LAMMPS (30 Mar 2018)
Reading data file ...
  orthogonal box = (0 0 0) to (46.7237 46.7237 46.7237)
  2 by 2 by 4 MPI processor grid
  reading atoms ...
  3179 atoms
  scanning bonds ...
  5 = max bonds/atom
  scanning angles ...
  10 = max angles/atom
  scanning dihedrals ...
  32 = max dihedrals/atom
  scanning impropers ...
  3 = max impropers/atom
  reading bonds ...
  2064 bonds
  reading angles ...
  3696 angles
  reading dihedrals ...
  6240 dihedrals
  reading impropers ...
  1008 impropers
Finding 1-2 1-3 1-4 neighbors ...
  special bond factors lj:   0          0          0         
  special bond factors coul: 0          0          0         
  5 = max # of 1-2 neighbors
  8 = max # of 1-3 neighbors
  20 = max # of 1-4 neighbors
  19 = max # of special neighbors
Finding 1-2 1-3 1-4 neighbors ...
  special bond factors lj:   0          0          1         
  special bond factors coul: 1          1          1         
  5 = max # of 1-2 neighbors
  8 = max # of 1-3 neighbors
  19 = max # of special neighbors
WARNING: Using 'neigh_modify every 1 delay 0 check yes' setting during minimization (../min.cpp:168)
Neighbor list info ...
  update every 1 steps, delay 0 steps, check yes
  max neighbors/atom: 2000, page size: 100000
  master list distance cutoff = 16
  ghost atom cutoff = 16
  binsize = 8, bins = 6 6 6
  3 neighbor lists, perpetual/occasional/extra = 3 0 0
  (1) pair buck6d/coul/gauss/dsf, perpetual, skip from (3)
      attributes: half, newton on
      pair build: skip
      stencil: none
      bin: none
  (2) pair lj/cut, perpetual, skip from (3)
      attributes: half, newton on
      pair build: skip
      stencil: none
      bin: none
  (3) neighbor class addition, perpetual
      attributes: half, newton on
      pair build: half/bin/newton
      stencil: half/bin/3d/newton
      bin: standard
Setting up cg style minimization ...
  Unit style    : real
  Current step  : 0
WARNING: Inconsistent image flags (../domain.cpp:786)
Per MPI rank memory allocation (min/avg/max) = 23.01 | 23.47 | 23.91 Mbytes
Step Temp E_pair E_mol TotEng Press 
       0            0   -15303.959    6482.8914   -8821.0676    6498.6291 
     500            0   -15816.471    3748.5136   -12067.958   -1992.8128 
Loop time of 4.28161 on 16 procs for 500 steps with 3179 atoms

99.9% CPU use with 16 MPI tasks x no OpenMP threads

Minimization stats:
  Stopping criterion = max force evaluations
  Energy initial, next-to-last, final = 
        -8821.06757365     -12067.8491989     -12067.9576763
  Force two-norm initial, final = 2575.86 15.2503
  Force max component initial, final = 152.068 2.02059
  Final line search alpha, max atom move = 0.00785771 0.0158772
  Iterations, force evaluations = 500 1000

MPI task timing breakdown:
Section |  min time  |  avg time  |  max time  |%varavg| %total
---------------------------------------------------------------
Pair    | 2.4822     | 2.9506     | 3.3936     |  14.1 | 68.91
Bond    | 0.27801    | 0.36073    | 0.44506    |   7.8 |  8.43
Neigh   | 0.033256   | 0.033327   | 0.033387   |   0.0 |  0.78
Comm    | 0.42815    | 0.88977    | 1.392      |  26.4 | 20.78
Output  | 0          | 0          | 0          |   0.0 |  0.00
Modify  | 0          | 0          | 0          |   0.0 |  0.00
Other   |            | 0.04721    |            |       |  1.10

Nlocal:    198.688 ave 226 max 180 min
Histogram: 4 3 0 2 1 1 1 1 1 2
Nghost:    3978.19 ave 4004 max 3939 min
Histogram: 1 1 1 2 1 0 3 3 1 3
Neighs:    11473.3 ave 16558 max 6900 min
Histogram: 1 2 2 1 3 2 2 1 1 1

Total # of neighbors = 183573
Ave neighs/atom = 57.7455
Ave special neighs/atom = 3.62378
Neighbor list builds = 10
Dangerous builds = 0
Neighbor list info ...
  update every 1 steps, delay 10 steps, check yes
  max neighbors/atom: 2000, page size: 100000
  master list distance cutoff = 16
  ghost atom cutoff = 16
  binsize = 8, bins = 6 6 6
  3 neighbor lists, perpetual/occasional/extra = 3 0 0
  (1) pair buck6d/coul/gauss/dsf, perpetual, skip from (3)
      attributes: half, newton on
      pair build: skip
      stencil: none
      bin: none
  (2) pair lj/cut, perpetual, skip from (3)
      attributes: half, newton on
      pair build: skip
      stencil: none
      bin: none
  (3) neighbor class addition, perpetual
      attributes: half, newton on
      pair build: half/bin/newton
      stencil: half/bin/3d/newton
      bin: standard
Setting up Verlet run ...
  Unit style    : real
  Current step  : 500
  Time step     : 1
WARNING: Inconsistent image flags (../domain.cpp:786)
Per MPI rank memory allocation (min/avg/max) = 22.66 | 22.72 | 22.79 Mbytes
Step Temp PotEng TotEng Press Volume Lx Ly Lz 
     500          130   -12067.958   -10836.466   -1440.9226     102002.7      46.7237      46.7237      46.7237 
    1000     111.1188   -11061.713   -10009.083   -16.734983     102002.7      46.7237      46.7237      46.7237 
    2000    131.27845   -10862.964   -9619.3618   -10.648951     102002.7      46.7237      46.7237      46.7237 
    3000    128.00662   -10896.502   -9683.8936    193.34903     102002.7      46.7237      46.7237      46.7237 
    4000    128.99844   -10902.924   -9680.9198    246.97535     102002.7      46.7237      46.7237      46.7237 
    5000    128.51836   -10924.257   -9706.8007    228.00209     102002.7      46.7237      46.7237      46.7237 
    6000    130.26175   -10918.489   -9684.5173    401.93244     102002.7      46.7237      46.7237      46.7237 
    7000    131.19888   -10915.948   -9673.0992    137.44747     102002.7      46.7237      46.7237      46.7237 
    8000    128.08496   -10898.093   -9684.7425    57.805182     102002.7      46.7237      46.7237      46.7237 
    9000    127.90359   -10883.804    -9672.171    71.322591     102002.7      46.7237      46.7237      46.7237 
   10000    131.80239   -10883.565    -9634.999    555.59584     102002.7      46.7237      46.7237      46.7237 
   11000    128.06323   -10853.869   -9640.7244    352.94746     102002.7      46.7237      46.7237      46.7237 
   12000    129.48022   -10929.528   -9702.9604    88.719563     102002.7      46.7237      46.7237      46.7237 
   13000    132.36759   -10890.413   -9636.4927    76.899558     102002.7      46.7237      46.7237      46.7237 
   14000    132.10366   -10908.605   -9657.1852    60.052584     102002.7      46.7237      46.7237      46.7237 
   15000    131.57794   -10917.581   -9671.1409   -87.991123     102002.7      46.7237      46.7237      46.7237 
   16000    132.36039    -10919.64   -9665.7877   -39.267035     102002.7      46.7237      46.7237      46.7237 
   17000    132.78281   -10885.812   -9627.9586    154.58544     102002.7      46.7237      46.7237      46.7237 
   18000    127.23054   -10922.015   -9716.7581    15.314485     102002.7      46.7237      46.7237      46.7237 
   19000    132.72599   -10907.058   -9649.7432    437.08648     102002.7      46.7237      46.7237      46.7237 
   20000    129.42912   -10899.506   -9673.4225    211.46593     102002.7      46.7237      46.7237      46.7237 
   21000     128.8102   -10870.941   -9650.7196    8.9268892     102002.7      46.7237      46.7237      46.7237 
   22000    131.84375   -10883.221   -9634.2633   -37.372172     102002.7      46.7237      46.7237      46.7237 
   23000    128.63522    -10885.07   -9666.5065    225.06452     102002.7      46.7237      46.7237      46.7237 
   24000    130.62917   -10885.538   -9648.0859    286.97589     102002.7      46.7237      46.7237      46.7237 
   25000    128.49775   -10891.632   -9674.3713    67.958637     102002.7      46.7237      46.7237      46.7237 
   26000    127.74214   -10892.439   -9682.3356    211.91263     102002.7      46.7237      46.7237      46.7237 
   27000     127.5769    -10907.37    -9698.832   -122.51261     102002.7      46.7237      46.7237      46.7237 
   28000    131.31017   -10921.829   -9677.9259    237.08395     102002.7      46.7237      46.7237      46.7237 
   29000    129.34098   -10926.893   -9701.6444    109.67481     102002.7      46.7237      46.7237      46.7237 
   30000    132.65442   -10897.375   -9640.7378   -407.22294     102002.7      46.7237      46.7237      46.7237 
   31000     130.4737   -10888.434   -9652.4548   -166.22971     102002.7      46.7237      46.7237      46.7237 
   32000    129.92665   -10907.426   -9676.6292     30.84208     102002.7      46.7237      46.7237      46.7237 
   33000    132.50077   -10903.139    -9647.957   -113.02155     102002.7      46.7237      46.7237      46.7237 
   34000    130.32762   -10901.628   -9667.0328    337.84359     102002.7      46.7237      46.7237      46.7237 
   35000    129.21343   -10904.591   -9680.5506    189.24465     102002.7      46.7237      46.7237      46.7237 
   36000    130.94238   -10909.918   -9669.4988    39.004811     102002.7      46.7237      46.7237      46.7237 
   37000    131.04224   -10877.284    -9635.919    543.44201     102002.7      46.7237      46.7237      46.7237 
   38000    131.54051   -10910.334   -9664.2489   -116.59638     102002.7      46.7237      46.7237      46.7237 
   39000    132.14817   -10895.238   -9643.3961    528.97148     102002.7      46.7237      46.7237      46.7237 
   40000    130.55045     -10927.9   -9691.1936    244.36292     102002.7      46.7237      46.7237      46.7237 
   41000     132.0368   -10887.591    -9636.805    118.98858     102002.7      46.7237      46.7237      46.7237 
   42000    129.91158   -10921.142   -9690.4877   -13.273072     102002.7      46.7237      46.7237      46.7237 
   43000    131.95362   -10913.546   -9663.5478    23.261484     102002.7      46.7237      46.7237      46.7237 
   44000    129.07558   -10906.626   -9683.8909    283.47348     102002.7      46.7237      46.7237      46.7237 
   45000     128.3651   -10909.481   -9693.4764    15.353091     102002.7      46.7237      46.7237      46.7237 
   46000    128.74773   -10899.319   -9679.6895   -12.392599     102002.7      46.7237      46.7237      46.7237 
   47000    128.30626   -10886.166   -9670.7191    63.678663     102002.7      46.7237      46.7237      46.7237 
   48000    128.49221   -10886.816   -9669.6071   -13.985416     102002.7      46.7237      46.7237      46.7237 
   49000    128.66172   -10940.474   -9721.6594   -21.762105     102002.7      46.7237      46.7237      46.7237 
   50000      128.615   -10881.459   -9663.0868    -167.7507     102002.7      46.7237      46.7237      46.7237 
   51000    128.51899   -10870.424   -9652.9614   -128.35982     102002.7      46.7237      46.7237      46.7237 
   52000    128.32448   -10902.357   -9686.7374   -76.912559     102002.7      46.7237      46.7237      46.7237 
   53000    131.74405   -10911.513   -9663.4993   -22.774747     102002.7      46.7237      46.7237      46.7237 
   54000    128.12565   -10897.083   -9683.3472    100.68704     102002.7      46.7237      46.7237      46.7237 
   55000    129.16789   -10930.986   -9707.3768    198.30253     102002.7      46.7237      46.7237      46.7237 
   56000    130.67852   -10885.042   -9647.1221   -309.86993     102002.7      46.7237      46.7237      46.7237 
   57000    129.62774   -10907.255   -9679.2896    116.26493     102002.7      46.7237      46.7237      46.7237 
   58000    131.08512   -10879.071   -9637.2994    102.41386     102002.7      46.7237      46.7237      46.7237 
   59000    131.46776   -10870.508    -9625.112   -23.353021     102002.7      46.7237      46.7237      46.7237 
   60000    132.13348   -10876.656   -9624.9532   -53.102258     102002.7      46.7237      46.7237      46.7237 
   61000    131.71321   -10910.913   -9663.1921   -263.93273     102002.7      46.7237      46.7237      46.7237 
   62000     131.2267   -10908.096   -9664.9832   -247.85627     102002.7      46.7237      46.7237      46.7237 
   63000    128.59256   -10897.159   -9678.9996    4.4356691     102002.7      46.7237      46.7237      46.7237 
   64000    130.23616   -10918.752   -9685.0228   -12.665019     102002.7      46.7237      46.7237      46.7237 
   65000    126.44169   -10885.833   -9688.0492   -122.15801     102002.7      46.7237      46.7237      46.7237 
   66000    126.67774   -10882.232   -9682.2118    194.59312     102002.7      46.7237      46.7237      46.7237 
   67000    129.20673   -10884.734   -9660.7566    268.98115     102002.7      46.7237      46.7237      46.7237 
   68000    131.33624   -10905.013   -9660.8626    111.61471     102002.7      46.7237      46.7237      46.7237 
   69000    127.84202   -10885.861    -9674.812    52.886355     102002.7      46.7237      46.7237      46.7237 
   70000    129.14486   -10900.457   -9677.0661   -25.905074     102002.7      46.7237      46.7237      46.7237 
   71000    133.51353   -10912.145   -9647.3697   -175.65545     102002.7      46.7237      46.7237      46.7237 
   72000    127.20354    -10884.82    -9679.819    202.21015     102002.7      46.7237      46.7237      46.7237 
   73000    128.83796   -10906.537   -9686.0532    33.861541     102002.7      46.7237      46.7237      46.7237 
   74000    131.95412   -10929.449   -9679.4458    201.20145     102002.7      46.7237      46.7237      46.7237 
   75000     133.3012   -10910.958   -9648.1943    179.60359     102002.7      46.7237      46.7237      46.7237 
   76000     130.6181   -10897.251   -9659.9035    199.70185     102002.7      46.7237      46.7237      46.7237 
   77000    129.85787   -10902.024   -9671.8783    161.08059     102002.7      46.7237      46.7237      46.7237 
   78000    134.66537   -10885.202   -9609.5147   -77.208074     102002.7      46.7237      46.7237      46.7237 
   79000    127.72566   -10902.135   -9692.1877   -217.97798     102002.7      46.7237      46.7237      46.7237 
   80000    131.56023   -10899.892   -9653.6198    55.093598     102002.7      46.7237      46.7237      46.7237 
   81000    129.22916   -10892.728   -9668.5381    10.480332     102002.7      46.7237      46.7237      46.7237 
   82000    127.85013   -10925.407   -9714.2805    196.92112     102002.7      46.7237      46.7237      46.7237 
   83000     130.0433   -10908.265   -9676.3628    89.248158     102002.7      46.7237      46.7237      46.7237 
   84000    129.50238    -10878.38   -9651.6021    409.33181     102002.7      46.7237      46.7237      46.7237 
   85000    129.87233   -10897.022     -9666.74   -55.892529     102002.7      46.7237      46.7237      46.7237 
   86000    129.97553     -10942.3   -9711.0403    185.84844     102002.7      46.7237      46.7237      46.7237 
   87000    131.72232   -10919.035   -9671.2275    317.78518     102002.7      46.7237      46.7237      46.7237 
   88000    133.99185   -10921.391   -9652.0843   -207.73496     102002.7      46.7237      46.7237      46.7237 
   89000    126.45743   -10907.992   -9710.0592   -2.2577286     102002.7      46.7237      46.7237      46.7237 
   90000    131.86688   -10893.548   -9644.3713   -375.32732     102002.7      46.7237      46.7237      46.7237 
   91000    131.85066   -10906.619   -9657.5961   -54.622519     102002.7      46.7237      46.7237      46.7237 
   92000    130.29074   -10924.665   -9690.4188    281.06732     102002.7      46.7237      46.7237      46.7237 
   93000    130.65878   -10931.115   -9693.3828   -9.4894031     102002.7      46.7237      46.7237      46.7237 
   94000    131.08172   -10886.478   -9644.7392     256.4542     102002.7      46.7237      46.7237      46.7237 
   95000    131.18489   -10915.788   -9673.0719    48.692313     102002.7      46.7237      46.7237      46.7237 
   96000    135.50983   -10933.154   -9649.4674   -298.93841     102002.7      46.7237      46.7237      46.7237 
   97000    132.42832   -10908.263   -9653.7674   -6.5728047     102002.7      46.7237      46.7237      46.7237 
   98000    130.83985   -10888.713   -9649.2651    330.53673     102002.7      46.7237      46.7237      46.7237 
   99000    126.78338   -10918.933   -9717.9119    117.51269     102002.7      46.7237      46.7237      46.7237 
  100000     127.7382   -10891.534   -9681.4679    202.96732     102002.7      46.7237      46.7237      46.7237 
  101000    127.40342   -10914.877   -9707.9822   -32.656178     102002.7      46.7237      46.7237      46.7237 
  102000     127.5451   -10903.801   -9695.5649   -168.84339     102002.7      46.7237      46.7237      46.7237 
  103000     127.9994   -10909.704   -9697.1634    36.854791     102002.7      46.7237      46.7237      46.7237 
  104000    130.31025     -10879.2   -9644.7692   -210.45292     102002.7      46.7237      46.7237      46.7237 
  105000     133.1897   -10881.881   -9620.1729   -99.083392     102002.7      46.7237      46.7237      46.7237 
  106000    130.52386   -10901.066    -9664.612   -12.668403     102002.7      46.7237      46.7237      46.7237 
  107000    129.97275   -10913.844   -9682.6105   -16.518921     102002.7      46.7237      46.7237      46.7237 
  108000    129.19145   -10873.728   -9649.8955    64.812472     102002.7      46.7237      46.7237      46.7237 
  109000     132.6931   -10913.625   -9656.6217   -281.86194     102002.7      46.7237      46.7237      46.7237 
  110000    128.46159   -10911.019   -9694.1003   -27.427349     102002.7      46.7237      46.7237      46.7237 
  111000    129.82215   -10899.983    -9670.176    377.22316     102002.7      46.7237      46.7237      46.7237 
  112000    132.51785   -10910.211   -9654.8679   -355.83816     102002.7      46.7237      46.7237      46.7237 
  113000    129.46535   -10908.176   -9681.7492   -79.482585     102002.7      46.7237      46.7237      46.7237 
  114000    131.29581   -10887.996   -9644.2295   -5.6655243     102002.7      46.7237      46.7237      46.7237 
  115000    132.35779   -10936.561   -9682.7338   -377.71223     102002.7      46.7237      46.7237      46.7237 
  116000    127.70469    -10865.39   -9655.6419    278.51239     102002.7      46.7237      46.7237      46.7237 
  117000    133.33914   -10916.808   -9653.6847   -125.27016     102002.7      46.7237      46.7237      46.7237 
  118000    128.91384    -10880.67   -9659.4677   -87.919438     102002.7      46.7237      46.7237      46.7237 
  119000    132.46839   -10889.045   -9634.1697   -104.72389     102002.7      46.7237      46.7237      46.7237 
  120000    129.26496   -10876.628   -9652.0994   -95.915281     102002.7      46.7237      46.7237      46.7237 
  121000    127.20147   -10905.244    -9700.263   -128.33728     102002.7      46.7237      46.7237      46.7237 
  122000    128.83936   -10904.299   -9683.8019    43.032214     102002.7      46.7237      46.7237      46.7237 
  123000    129.12375   -10908.049   -9684.8579   -183.64623     102002.7      46.7237      46.7237      46.7237 
  124000    128.17173   -10876.498   -9662.3256    50.409929     102002.7      46.7237      46.7237      46.7237 
  125000    126.73824   -10918.153   -9717.5598    340.05944     102002.7      46.7237      46.7237      46.7237 
  126000    130.08401       -10911   -9678.7128   -154.96418     102002.7      46.7237      46.7237      46.7237 
  127000    130.80598   -10899.618   -9660.4906    160.94738     102002.7      46.7237      46.7237      46.7237 
  128000    130.54015   -10884.106   -9647.4973    160.00812     102002.7      46.7237      46.7237      46.7237 
  129000    129.07505    -10906.66     -9683.93   -185.48883     102002.7      46.7237      46.7237      46.7237 
  130000    127.73766   -10938.548   -9728.4869    131.15236     102002.7      46.7237      46.7237      46.7237 
  131000    129.02621   -10866.286   -9644.0187    152.73538     102002.7      46.7237      46.7237      46.7237 
  132000     130.7012   -10889.667   -9651.5324    20.239083     102002.7      46.7237      46.7237      46.7237 
  133000    129.32636   -10899.152   -9674.0418    155.94739     102002.7      46.7237      46.7237      46.7237 
  134000    127.47432   -10902.678   -9695.1121   -16.773954     102002.7      46.7237      46.7237      46.7237 
  135000    128.83521   -10887.202   -9666.7444    133.53783     102002.7      46.7237      46.7237      46.7237 
  136000    128.88942    -10897.35   -9676.3788    97.880497     102002.7      46.7237      46.7237      46.7237 
  137000    128.60884   -10890.361   -9672.0474    135.05306     102002.7      46.7237      46.7237      46.7237 
  138000    130.32054     -10912.6   -9678.0713   -35.664389     102002.7      46.7237      46.7237      46.7237 
  139000    130.34877   -10894.413   -9659.6175   -135.61638     102002.7      46.7237      46.7237      46.7237 
  140000    133.43697   -10914.053   -9650.0025   -126.47909     102002.7      46.7237      46.7237      46.7237 
  141000    128.76308   -10890.742   -9670.9678   -199.22184     102002.7      46.7237      46.7237      46.7237 
  142000     129.5445   -10890.461   -9663.2838    58.472909     102002.7      46.7237      46.7237      46.7237 
  143000    129.88922   -10906.685   -9676.2423    158.46868     102002.7      46.7237      46.7237      46.7237 
  144000    130.46507   -10926.461   -9690.5639   -277.13034     102002.7      46.7237      46.7237      46.7237 
  145000     134.7302   -10877.534   -9601.2326     43.99673     102002.7      46.7237      46.7237      46.7237 
  146000    130.77444   -10901.185   -9662.3572    281.03324     102002.7      46.7237      46.7237      46.7237 
  147000     132.3689   -10869.471   -9615.5385    213.74758     102002.7      46.7237      46.7237      46.7237 
  148000    128.17476   -10894.495    -9680.294     328.6205     102002.7      46.7237      46.7237      46.7237 
  149000    129.51391   -10886.761   -9659.8742    239.80929     102002.7      46.7237      46.7237      46.7237 
  150000    129.60833   -10906.775   -9678.9933    122.26201     102002.7      46.7237      46.7237      46.7237 
  151000    127.99528   -10920.775    -9708.274    396.72957     102002.7      46.7237      46.7237      46.7237 
  152000    127.94648   -10866.359   -9654.3196    219.54168     102002.7      46.7237      46.7237      46.7237 
  153000    130.97312   -10900.009   -9659.2985    148.11692     102002.7      46.7237      46.7237      46.7237 
  154000    131.99514    -10907.97   -9657.5781    83.682647     102002.7      46.7237      46.7237      46.7237 
  155000    130.32569   -10847.751   -9613.1743       -89.94     102002.7      46.7237      46.7237      46.7237 
  156000    129.40283   -10880.058   -9654.2234     49.90354     102002.7      46.7237      46.7237      46.7237 
  157000    135.65826   -10918.645    -9633.552    6.1137076     102002.7      46.7237      46.7237      46.7237 
  158000    130.21707   -10887.051   -9653.5026   -111.87965     102002.7      46.7237      46.7237      46.7237 
  159000     134.7447   -10909.783   -9633.3446    331.21111     102002.7      46.7237      46.7237      46.7237 
  160000    129.77297   -10901.062   -9671.7211    13.583094     102002.7      46.7237      46.7237      46.7237 
  161000     127.5057   -10889.177   -9681.3132   -11.519901     102002.7      46.7237      46.7237      46.7237 
  162000    129.93475   -10917.492   -9686.6187   -57.172442     102002.7      46.7237      46.7237      46.7237 
  163000    132.37563   -10915.457   -9661.4608   -151.14651     102002.7      46.7237      46.7237      46.7237 
  164000    132.83577   -10902.456   -9644.1012    193.32052     102002.7      46.7237      46.7237      46.7237 
  165000    132.07476   -10922.126   -9670.9795    81.152976     102002.7      46.7237      46.7237      46.7237 
  166000    131.60723   -10878.428   -9631.7108   -50.233196     102002.7      46.7237      46.7237      46.7237 
  167000    127.88587   -10899.047   -9687.5827    418.13308     102002.7      46.7237      46.7237      46.7237 
  168000    130.11836   -10911.751   -9679.1383    41.475567     102002.7      46.7237      46.7237      46.7237 
  169000    131.13772   -10859.387   -9617.1174   -364.90747     102002.7      46.7237      46.7237      46.7237 
  170000    129.98276   -10921.989   -9690.6603   -216.68383     102002.7      46.7237      46.7237      46.7237 
  171000    131.95983   -10914.458   -9664.4007   -30.712469     102002.7      46.7237      46.7237      46.7237 
  172000    134.01646    -10894.98   -9625.4406    32.087506     102002.7      46.7237      46.7237      46.7237 
  173000    129.41917    -10888.45   -9662.4608   -3.5988908     102002.7      46.7237      46.7237      46.7237 
  174000     132.8584   -10865.502   -9606.9329    90.291104     102002.7      46.7237      46.7237      46.7237 
  175000    133.67452   -10913.506   -9647.2056   -89.425293     102002.7      46.7237      46.7237      46.7237 
  176000    131.42895   -10881.885   -9636.8571    56.494437     102002.7      46.7237      46.7237      46.7237 
  177000    125.33167   -10908.779   -9721.5105   -215.38778     102002.7      46.7237      46.7237      46.7237 
  178000    127.92812   -10899.183   -9687.3185    43.041373     102002.7      46.7237      46.7237      46.7237 
  179000    132.79806   -10906.024   -9648.0266    184.15572     102002.7      46.7237      46.7237      46.7237 
  180000    131.59609   -10891.805   -9645.1929    124.42979     102002.7      46.7237      46.7237      46.7237 
  181000    128.85458   -10914.152   -9693.5112    147.47035     102002.7      46.7237      46.7237      46.7237 
  182000    130.55754   -10892.144   -9655.3708   -171.73143     102002.7      46.7237      46.7237      46.7237 
  183000    129.65904   -10893.947   -9665.6847    124.86775     102002.7      46.7237      46.7237      46.7237 
  184000    132.28146   -10898.335   -9645.2311   -251.28075     102002.7      46.7237      46.7237      46.7237 
  185000    129.14992   -10878.341   -9654.9021     110.1902     102002.7      46.7237      46.7237      46.7237 
  186000    129.09538    -10883.73   -9660.8074   -109.92172     102002.7      46.7237      46.7237      46.7237 
  187000    126.08989   -10906.245   -9711.7933   -59.201375     102002.7      46.7237      46.7237      46.7237 
  188000    126.73657   -10903.282   -9702.7045    122.45262     102002.7      46.7237      46.7237      46.7237 
  189000    135.87918    -10917.38   -9630.1951    52.297004     102002.7      46.7237      46.7237      46.7237 
  190000    129.52987    -10868.06   -9641.0215    191.94105     102002.7      46.7237      46.7237      46.7237 
  191000    127.30178   -10884.449   -9678.5174    310.62689     102002.7      46.7237      46.7237      46.7237 
  192000    131.25504   -10877.777   -9634.3961    127.41986     102002.7      46.7237      46.7237      46.7237 
  193000    132.28655   -10923.864   -9670.7118   -38.899345     102002.7      46.7237      46.7237      46.7237 
  194000    132.12941   -10890.366   -9638.7023    385.55269     102002.7      46.7237      46.7237      46.7237 
  195000    126.99715   -10893.312   -9690.2663    65.777952     102002.7      46.7237      46.7237      46.7237 
  196000    126.95395   -10908.597   -9705.9607    222.38522     102002.7      46.7237      46.7237      46.7237 
  197000    131.54351   -10895.212   -9649.0983    -41.53587     102002.7      46.7237      46.7237      46.7237 
  198000     134.4024   -10920.547   -9647.3514     307.0743     102002.7      46.7237      46.7237      46.7237 
  199000    130.98969   -10914.636   -9673.7689   -51.707444     102002.7      46.7237      46.7237      46.7237 
  200000    130.01059   -10894.124   -9662.5316   -69.303918     102002.7      46.7237      46.7237      46.7237 
  201000    130.86682   -10881.441   -9641.7377    66.184859     102002.7      46.7237      46.7237      46.7237 
  202000    131.19029   -10915.255   -9672.4876   -266.78651     102002.7      46.7237      46.7237      46.7237 
  203000    128.82224   -10871.222   -9650.8869   -128.40747     102002.7      46.7237      46.7237      46.7237 
  204000    125.92704   -10915.644   -9722.7354   -36.962823     102002.7      46.7237      46.7237      46.7237 
  205000    133.58849   -10928.653   -9663.1674   -193.66187     102002.7      46.7237      46.7237      46.7237 
  206000    127.53147   -10895.807   -9687.6996    138.93269     102002.7      46.7237      46.7237      46.7237 
  207000    132.40172   -10921.503   -9667.2591    45.086202     102002.7      46.7237      46.7237      46.7237 
  208000    129.22165   -10888.172   -9664.0532    418.81742     102002.7      46.7237      46.7237      46.7237 
  209000    128.75873   -10886.163   -9666.4302    85.625208     102002.7      46.7237      46.7237      46.7237 
  210000    128.59883   -10914.468    -9696.249    221.17381     102002.7      46.7237      46.7237      46.7237 
  211000    131.06155   -10887.992   -9646.4445    184.75604     102002.7      46.7237      46.7237      46.7237 
  212000    129.61974   -10900.602   -9672.7123    54.530521     102002.7      46.7237      46.7237      46.7237 
  213000     131.3113   -10917.556   -9673.6425    122.37832     102002.7      46.7237      46.7237      46.7237 
  214000    131.92589   -10903.538   -9653.8024    130.62907     102002.7      46.7237      46.7237      46.7237 
  215000    132.58378   -10887.525   -9631.5569    299.11775     102002.7      46.7237      46.7237      46.7237 
  216000    132.05035   -10905.223   -9654.3084   -242.71733     102002.7      46.7237      46.7237      46.7237 
  217000    129.26817   -10880.898   -9656.3385   -268.49184     102002.7      46.7237      46.7237      46.7237 
  218000    128.29363   -10893.229   -9677.9018   -113.86256     102002.7      46.7237      46.7237      46.7237 
  219000    130.47985   -10903.901   -9667.8632   -15.505168     102002.7      46.7237      46.7237      46.7237 
  220000    125.45142   -10897.038   -9708.6348   -76.348202     102002.7      46.7237      46.7237      46.7237 
  221000    130.17891   -10922.571   -9689.3839   -292.22505     102002.7      46.7237      46.7237      46.7237 
  222000    130.39012    -10897.14   -9661.9522    26.595016     102002.7      46.7237      46.7237      46.7237 
  223000    129.32869   -10879.156   -9654.0236   -62.245132     102002.7      46.7237      46.7237      46.7237 
  224000    127.37583   -10892.622   -9685.9885   -129.06005     102002.7      46.7237      46.7237      46.7237 
  225000    132.43036   -10892.343   -9637.8287   -61.819869     102002.7      46.7237      46.7237      46.7237 
  226000    129.48038   -10883.081   -9656.5111    66.528886     102002.7      46.7237      46.7237      46.7237 
  227000    128.81078   -10882.977   -9662.7506    338.43088     102002.7      46.7237      46.7237      46.7237 
  228000    131.00837    -10886.96   -9645.9154   -50.908139     102002.7      46.7237      46.7237      46.7237 
  229000    127.62346   -10920.651   -9711.6719     103.9577     102002.7      46.7237      46.7237      46.7237 
  230000    132.20157   -10867.036   -9614.6884    248.49989     102002.7      46.7237      46.7237      46.7237 
  231000    128.48117   -10904.704   -9687.6003   -159.65985     102002.7      46.7237      46.7237      46.7237 
  232000    126.60835   -10909.102   -9709.7395    102.80443     102002.7      46.7237      46.7237      46.7237 
  233000    128.12633   -10905.017   -9691.2743   -277.82526     102002.7      46.7237      46.7237      46.7237 
  234000    130.50615   -10874.798   -9638.5112   -66.806421     102002.7      46.7237      46.7237      46.7237 
  235000    131.61412   -10900.487   -9653.7049   -34.181408     102002.7      46.7237      46.7237      46.7237 
  236000    129.80062   -10931.757   -9702.1534   -247.56435     102002.7      46.7237      46.7237      46.7237 
  237000    131.92951   -10905.169    -9655.399    271.65767     102002.7      46.7237      46.7237      46.7237 
  238000    132.51646   -10909.881   -9654.5508   -104.34101     102002.7      46.7237      46.7237      46.7237 
  239000    130.05318   -10897.929   -9665.9331   -109.57536     102002.7      46.7237      46.7237      46.7237 
  240000    131.02025   -10887.111   -9645.9538    294.79282     102002.7      46.7237      46.7237      46.7237 
  241000    129.59216   -10914.626   -9686.9975    80.311315     102002.7      46.7237      46.7237      46.7237 
  242000     126.8647   -10927.449   -9725.6583    89.979386     102002.7      46.7237      46.7237      46.7237 
  243000    130.25731   -10874.342   -9640.4129    503.41548     102002.7      46.7237      46.7237      46.7237 
  244000    132.09758    -10870.07   -9618.7073    299.35523     102002.7      46.7237      46.7237      46.7237 
  245000    133.39542   -10887.738   -9624.0814    168.61989     102002.7      46.7237      46.7237      46.7237 
  246000    130.13795    -10891.55   -9658.7517    256.07669     102002.7      46.7237      46.7237      46.7237 
  247000    128.23167   -10905.876   -9691.1358    135.82437     102002.7      46.7237      46.7237      46.7237 
  248000    132.63373   -10905.906   -9649.4647    390.63009     102002.7      46.7237      46.7237      46.7237 
  249000     132.5977   -10889.905   -9633.8054    233.53299     102002.7      46.7237      46.7237      46.7237 
  250000    128.53684   -10904.412   -9686.7803   -20.124294     102002.7      46.7237      46.7237      46.7237 
  251000    130.42756   -10893.726   -9658.1833    82.213616     102002.7      46.7237      46.7237      46.7237 
  252000    131.32763   -10889.202   -9645.1336   -159.07224     102002.7      46.7237      46.7237      46.7237 
  253000     129.7717   -10916.795   -9687.4661   -122.00193     102002.7      46.7237      46.7237      46.7237 
  254000    128.98085   -10883.996   -9662.1588   -61.413103     102002.7      46.7237      46.7237      46.7237 
  255000    129.28232   -10893.455   -9668.7613    168.63399     102002.7      46.7237      46.7237      46.7237 
  256000    129.56561   -10889.943   -9662.5658   -119.62264     102002.7      46.7237      46.7237      46.7237 
  257000    130.70386   -10889.949    -9651.789   -162.16808     102002.7      46.7237      46.7237      46.7237 
  258000    131.79059   -10898.596   -9650.1417    41.294059     102002.7      46.7237      46.7237      46.7237 
  259000    130.89652   -10913.153   -9673.1681    370.40008     102002.7      46.7237      46.7237      46.7237 
  260000    130.66697   -10915.365   -9677.5547   -188.97929     102002.7      46.7237      46.7237      46.7237 
  261000    127.96943    -10923.85   -9711.5934    -135.5442     102002.7      46.7237      46.7237      46.7237 
  262000    131.69577   -10854.696   -9607.1405    121.49329     102002.7      46.7237      46.7237      46.7237 
  263000    128.41333   -10858.633   -9642.1714    125.97336     102002.7      46.7237      46.7237      46.7237 
  264000    131.06533   -10923.203   -9681.6197   -39.520109     102002.7      46.7237      46.7237      46.7237 
  265000    127.61146   -10928.558   -9719.6924   -77.960161     102002.7      46.7237      46.7237      46.7237 
  266000    130.86914   -10918.557    -9678.832    20.011479     102002.7      46.7237      46.7237      46.7237 
  267000    130.53639   -10880.597   -9644.0238     115.9348     102002.7      46.7237      46.7237      46.7237 
  268000    130.40428   -10901.667   -9666.3458    44.656245     102002.7      46.7237      46.7237      46.7237 
  269000    127.51109   -10882.806   -9674.8919   -24.593788     102002.7      46.7237      46.7237      46.7237 
  270000    129.59407   -10892.815   -9665.1681    323.26401     102002.7      46.7237      46.7237      46.7237 
  271000    131.15722   -10869.347   -9626.8923    222.19887     102002.7      46.7237      46.7237      46.7237 
  272000    129.52931   -10874.058   -9647.0251     270.1283     102002.7      46.7237      46.7237      46.7237 
  273000    130.39934   -10903.337   -9668.0627   -284.36481     102002.7      46.7237      46.7237      46.7237 
  274000    128.43001   -10889.178   -9672.5582   -275.38501     102002.7      46.7237      46.7237      46.7237 
  275000    129.66586   -10901.381   -9673.0543    98.411857     102002.7      46.7237      46.7237      46.7237 
  276000     129.6358   -10881.595   -9653.5534    319.06692     102002.7      46.7237      46.7237      46.7237 
  277000    129.20564   -10883.029   -9659.0616    280.30544     102002.7      46.7237      46.7237      46.7237 
  278000    132.00697   -10904.141   -9653.6371    161.40187     102002.7      46.7237      46.7237      46.7237 
  279000    130.76988   -10901.259   -9662.4737    39.785284     102002.7      46.7237      46.7237      46.7237 
  280000    125.90355   -10893.999   -9701.3133    97.465309     102002.7      46.7237      46.7237      46.7237 
  281000    129.45856   -10903.106   -9676.7434   -268.91503     102002.7      46.7237      46.7237      46.7237 
  282000    130.31433   -10887.919   -9653.4499    216.73071     102002.7      46.7237      46.7237      46.7237 
  283000    130.69808   -10926.289   -9688.1842   -426.72685     102002.7      46.7237      46.7237      46.7237 
  284000    127.06362   -10902.016   -9698.3405   -462.54573     102002.7      46.7237      46.7237      46.7237 
  285000    131.09426     -10924.7   -9682.8417     -304.082     102002.7      46.7237      46.7237      46.7237 
  286000    128.76742   -10861.068   -9641.2525   -188.02626     102002.7      46.7237      46.7237      46.7237 
  287000    132.38939   -10891.267   -9637.1404   -209.17671     102002.7      46.7237      46.7237      46.7237 
  288000    126.48932   -10869.082   -9670.8465    569.24869     102002.7      46.7237      46.7237      46.7237 
  289000    130.63747    -10876.64   -9639.1091    99.938208     102002.7      46.7237      46.7237      46.7237 
  290000    130.03738   -10915.914   -9684.0675    58.017137     102002.7      46.7237      46.7237      46.7237 
  291000     132.5132   -10876.223   -9620.9234    -70.92689     102002.7      46.7237      46.7237      46.7237 
  292000    129.87796   -10909.083   -9678.7477    375.16834     102002.7      46.7237      46.7237      46.7237 
  293000    127.07064   -10879.399   -9675.6571   -107.58261     102002.7      46.7237      46.7237      46.7237 
  294000    128.17787   -10920.876   -9706.6453    214.32016     102002.7      46.7237      46.7237      46.7237 
  295000    129.72261   -10907.687   -9678.8225    294.08345     102002.7      46.7237      46.7237      46.7237 
  296000    129.69616   -10884.236   -9655.6224      -155.35     102002.7      46.7237      46.7237      46.7237 
  297000    130.38673   -10873.849    -9638.694    371.01983     102002.7      46.7237      46.7237      46.7237 
  298000    127.95693   -10887.148   -9675.0097    133.50523     102002.7      46.7237      46.7237      46.7237 
  299000    129.74886   -10912.058   -9682.9454    12.961436     102002.7      46.7237      46.7237      46.7237 
  300000    131.79644   -10901.629   -9653.1198    244.71288     102002.7      46.7237      46.7237      46.7237 
  301000    127.86297   -10887.153   -9675.9056    139.79658     102002.7      46.7237      46.7237      46.7237 
  302000    128.08162   -10906.435   -9693.1156     200.8099     102002.7      46.7237      46.7237      46.7237 
  303000    131.85869   -10918.473   -9669.3734    454.59956     102002.7      46.7237      46.7237      46.7237 
  304000    131.40005   -10878.538   -9633.7836    201.98707     102002.7      46.7237      46.7237      46.7237 
  305000    123.46343   -10898.559   -9728.9879    58.454228     102002.7      46.7237      46.7237      46.7237 
  306000    130.49092   -10913.999   -9677.8563     96.86629     102002.7      46.7237      46.7237      46.7237 
  307000    129.48735   -10912.841   -9686.2058    261.17803     102002.7      46.7237      46.7237      46.7237 
  308000    129.45525   -10910.185   -9683.8538    305.57037     102002.7      46.7237      46.7237      46.7237 
  309000    131.16912   -10897.199   -9654.6322    178.16671     102002.7      46.7237      46.7237      46.7237 
  310000    131.43853   -10889.469   -9644.3501    129.83714     102002.7      46.7237      46.7237      46.7237 
  311000    130.92298   -10896.636   -9656.4007    293.00341     102002.7      46.7237      46.7237      46.7237 
  312000    130.35037   -10910.495   -9675.6845    19.497609     102002.7      46.7237      46.7237      46.7237 
  313000    129.71563   -10902.924   -9674.1262    201.95363     102002.7      46.7237      46.7237      46.7237 
  314000    130.21255   -10847.683   -9614.1779    156.67802     102002.7      46.7237      46.7237      46.7237 
  315000    130.49947   -10875.368   -9639.1445    26.509449     102002.7      46.7237      46.7237      46.7237 
  316000    130.49337   -10906.195   -9670.0297    112.91832     102002.7      46.7237      46.7237      46.7237 
  317000    130.05483   -10884.006   -9651.9949   -78.361096     102002.7      46.7237      46.7237      46.7237 
  318000    130.20701   -10887.224   -9653.7706     42.18988     102002.7      46.7237      46.7237      46.7237 
  319000    127.44498   -10891.319   -9684.0313    97.539387     102002.7      46.7237      46.7237      46.7237 
  320000    130.19117   -10886.424   -9653.1211   -7.1116336     102002.7      46.7237      46.7237      46.7237 
  321000    130.61717   -10912.412   -9675.0741    344.98237     102002.7      46.7237      46.7237      46.7237 
  322000    128.34088   -10901.415   -9685.6396    103.48629     102002.7      46.7237      46.7237      46.7237 
  323000    130.33809   -10890.449   -9655.7544   -59.924409     102002.7      46.7237      46.7237      46.7237 
  324000     128.9539   -10891.449   -9669.8665   -120.91938     102002.7      46.7237      46.7237      46.7237 
  325000    129.44579   -10882.053   -9655.8112   -280.17648     102002.7      46.7237      46.7237      46.7237 
  326000    127.91659   -10888.949   -9677.1934    23.185527     102002.7      46.7237      46.7237      46.7237 
  327000    130.29591   -10876.524   -9642.2294    8.5098832     102002.7      46.7237      46.7237      46.7237 
  328000    130.83063   -10914.718   -9675.3572    97.568753     102002.7      46.7237      46.7237      46.7237 
  329000    131.30695   -10904.895   -9661.0221   -166.59171     102002.7      46.7237      46.7237      46.7237 
  330000     127.9095    -10930.93   -9719.2411    39.711945     102002.7      46.7237      46.7237      46.7237 
  331000    130.77485   -10901.351   -9662.5189   -42.220779     102002.7      46.7237      46.7237      46.7237 
  332000    130.78686   -10860.333   -9621.3872   -23.740009     102002.7      46.7237      46.7237      46.7237 
  333000    129.31648   -10919.502   -9694.4854   -80.118423     102002.7      46.7237      46.7237      46.7237 
  334000    130.59025   -10903.265   -9666.1814    295.57542     102002.7      46.7237      46.7237      46.7237 
  335000    129.45988     -10904.1   -9677.7245    375.40609     102002.7      46.7237      46.7237      46.7237 
  336000    132.82308   -10872.404   -9614.1693    150.44981     102002.7      46.7237      46.7237      46.7237 
  337000    127.56509   -10886.458   -9678.0319    69.487661     102002.7      46.7237      46.7237      46.7237 
  338000    132.99376   -10861.236   -9601.3839    42.641798     102002.7      46.7237      46.7237      46.7237 
  339000    130.39259    -10885.05   -9649.8394    77.998646     102002.7      46.7237      46.7237      46.7237 
  340000     130.9374   -10900.088   -9659.7164    249.80836     102002.7      46.7237      46.7237      46.7237 
  341000    128.06637   -10902.549   -9689.3747    107.46283     102002.7      46.7237      46.7237      46.7237 
  342000    129.96094   -10896.025   -9664.9028    24.791557     102002.7      46.7237      46.7237      46.7237 
  343000    131.07577    -10909.45   -9667.7673    71.817121     102002.7      46.7237      46.7237      46.7237 
  344000    129.22162   -10873.845   -9649.7263   -224.53349     102002.7      46.7237      46.7237      46.7237 
  345000    130.81018   -10908.562   -9669.3957    130.16968     102002.7      46.7237      46.7237      46.7237 
  346000    129.35035   -10912.036   -9686.6984   -68.176684     102002.7      46.7237      46.7237      46.7237 
  347000    128.79261   -10894.027   -9673.9732   -84.152815     102002.7      46.7237      46.7237      46.7237 
  348000    127.74122   -10897.832   -9687.7371    74.929729     102002.7      46.7237      46.7237      46.7237 
  349000    132.12822   -10875.367   -9623.7149     200.0425     102002.7      46.7237      46.7237      46.7237 
  350000    125.71932   -10891.133   -9700.1919    327.71225     102002.7      46.7237      46.7237      46.7237 
  351000    132.01377   -10922.222   -9671.6532    199.63861     102002.7      46.7237      46.7237      46.7237 
  352000    129.80365   -10920.249    -9690.617     10.81249     102002.7      46.7237      46.7237      46.7237 
  353000    129.95714   -10836.176     -9605.09    59.639583     102002.7      46.7237      46.7237      46.7237 
  354000    129.34531   -10877.489   -9652.1995    361.20424     102002.7      46.7237      46.7237      46.7237 
  355000    130.47201     -10876.6   -9640.6363    13.516528     102002.7      46.7237      46.7237      46.7237 
  356000    131.26104   -10920.799   -9677.3613   -82.681478     102002.7      46.7237      46.7237      46.7237 
  357000    128.39553   -10878.772   -9662.4789   -207.19398     102002.7      46.7237      46.7237      46.7237 
  358000    128.73269   -10916.557   -9697.0705   0.73618705     102002.7      46.7237      46.7237      46.7237 
  359000    132.78291   -10892.668   -9634.8133    5.1750105     102002.7      46.7237      46.7237      46.7237 
  360000    128.51362   -10912.634   -9695.2229    68.600688     102002.7      46.7237      46.7237      46.7237 
  361000    129.99161    -10933.05   -9701.6377   -61.919053     102002.7      46.7237      46.7237      46.7237 
  362000    126.66878   -10903.937   -9704.0016   -216.85075     102002.7      46.7237      46.7237      46.7237 
  363000    132.77679   -10902.902   -9645.1059    262.73955     102002.7      46.7237      46.7237      46.7237 
  364000     129.2223   -10895.107   -9670.9826    37.138886     102002.7      46.7237      46.7237      46.7237 
  365000    127.23322   -10908.226    -9702.944    239.55951     102002.7      46.7237      46.7237      46.7237 
  366000    133.79802   -10867.038   -9599.5677    195.36371     102002.7      46.7237      46.7237      46.7237 
  367000    128.48556   -10876.265   -9659.1197    69.538355     102002.7      46.7237      46.7237      46.7237 
  368000    127.42186   -10880.518   -9673.4485    353.54234     102002.7      46.7237      46.7237      46.7237 
  369000    130.95121   -10926.032   -9685.5288    78.780484     102002.7      46.7237      46.7237      46.7237 
  370000    130.36387   -10953.885   -9718.9458    2.8468098     102002.7      46.7237      46.7237      46.7237 
  371000    130.31386   -10897.797   -9663.3323   -61.352632     102002.7      46.7237      46.7237      46.7237 
  372000    132.53087   -10878.932    -9623.465    163.31919     102002.7      46.7237      46.7237      46.7237 
  373000    129.02878    -10906.67   -9684.3785   -163.94731     102002.7      46.7237      46.7237      46.7237 
  374000    129.13906   -10924.669   -9701.3325   -90.139642     102002.7      46.7237      46.7237      46.7237 
  375000    132.39477   -10867.728   -9613.5505    278.13535     102002.7      46.7237      46.7237      46.7237 
  376000     129.2584       -10913   -9688.5333   -47.635457     102002.7      46.7237      46.7237      46.7237 
  377000    131.02587   -10886.128   -9644.9177    14.655402     102002.7      46.7237      46.7237      46.7237 
  378000      130.338   -10905.166   -9670.4717   -130.68493     102002.7      46.7237      46.7237      46.7237 
  379000     130.9825   -10921.583   -9680.7835   -63.878548     102002.7      46.7237      46.7237      46.7237 
  380000    130.07019   -10926.426   -9694.2693     164.0173     102002.7      46.7237      46.7237      46.7237 
  381000    130.26834   -10892.066   -9658.0318   -247.07679     102002.7      46.7237      46.7237      46.7237 
  382000    128.96883   -10929.992   -9708.2687    45.642601     102002.7      46.7237      46.7237      46.7237 
  383000    132.19252   -10923.521   -9671.2592    115.59899     102002.7      46.7237      46.7237      46.7237 
  384000    128.38835     -10875.5    -9659.275     290.8162     102002.7      46.7237      46.7237      46.7237 
  385000    128.56029   -10910.613   -9692.7596    76.504679     102002.7      46.7237      46.7237      46.7237 
  386000    130.31983   -10892.064   -9657.5428   -48.765697     102002.7      46.7237      46.7237      46.7237 
  387000    130.79048   -10886.734   -9647.7544    157.81547     102002.7      46.7237      46.7237      46.7237 
  388000    132.01419   -10857.493   -9606.9208     70.21656     102002.7      46.7237      46.7237      46.7237 
  389000    129.56455   -10904.625    -9677.258    271.72394     102002.7      46.7237      46.7237      46.7237 
  390000    129.67895   -10936.424   -9707.9732    161.56211     102002.7      46.7237      46.7237      46.7237 
  391000    132.19693    -10913.58   -9661.2764    241.61338     102002.7      46.7237      46.7237      46.7237 
  392000    131.00437   -10887.464   -9646.4578    63.687731     102002.7      46.7237      46.7237      46.7237 
  393000     130.9104   -10905.285    -9665.169   -108.94152     102002.7      46.7237      46.7237      46.7237 
  394000    131.82717   -10889.181   -9640.3801    78.596772     102002.7      46.7237      46.7237      46.7237 
  395000    129.04134   -10903.939   -9681.5287    205.75454     102002.7      46.7237      46.7237      46.7237 
  396000        133.3   -10861.664    -9598.911   -190.80524     102002.7      46.7237      46.7237      46.7237 
  397000    133.31459   -10920.821   -9657.9303    66.140238     102002.7      46.7237      46.7237      46.7237 
  398000    129.14145   -10885.175   -9661.8157   -15.031896     102002.7      46.7237      46.7237      46.7237 
  399000    129.50285    -10922.76   -9695.9781    102.18881     102002.7      46.7237      46.7237      46.7237 
  400000    128.77931   -10909.087    -9689.159   -73.523844     102002.7      46.7237      46.7237      46.7237 
  401000    128.41793   -10890.925   -9674.4197    107.60726     102002.7      46.7237      46.7237      46.7237 
  402000     129.5606   -10860.632   -9633.3025     82.16318     102002.7      46.7237      46.7237      46.7237 
  403000    133.01721   -10910.003    -9649.929   -124.98236     102002.7      46.7237      46.7237      46.7237 
  404000    126.41885   -10941.554   -9743.9861   -141.26544     102002.7      46.7237      46.7237      46.7237 
  405000    133.45718   -10926.225   -9661.9833    -140.4548     102002.7      46.7237      46.7237      46.7237 
  406000    130.69294   -10881.821    -9643.765   -196.97428     102002.7      46.7237      46.7237      46.7237 
  407000     130.9047   -10918.402   -9678.3399    37.803642     102002.7      46.7237      46.7237      46.7237 
  408000    127.62744   -10888.036    -9679.019    85.306434     102002.7      46.7237      46.7237      46.7237 
  409000    134.17139   -10881.562   -9610.5542    99.102437     102002.7      46.7237      46.7237      46.7237 
  410000    129.19154   -10936.736   -9712.9028    144.49713     102002.7      46.7237      46.7237      46.7237 
  411000    129.10315   -10871.269   -9648.2731    282.58863     102002.7      46.7237      46.7237      46.7237 
  412000    129.71569   -10894.067   -9665.2688    182.02717     102002.7      46.7237      46.7237      46.7237 
  413000    128.47036   -10895.736   -9678.7342   -103.33012     102002.7      46.7237      46.7237      46.7237 
  414000    132.38428   -10861.351   -9607.2725    -46.49945     102002.7      46.7237      46.7237      46.7237 
  415000    130.23089   -10878.625    -9644.946    293.77311     102002.7      46.7237      46.7237      46.7237 
  416000    129.67684   -10899.468   -9671.0374    58.371027     102002.7      46.7237      46.7237      46.7237 
  417000    132.83567    -10891.64   -9633.2859    80.993696     102002.7      46.7237      46.7237      46.7237 
  418000    130.18543   -10894.299   -9661.0506   -129.28288     102002.7      46.7237      46.7237      46.7237 
  419000    131.68122   -10891.154   -9643.7356   -158.14367     102002.7      46.7237      46.7237      46.7237 
  420000    127.07742   -10900.697   -9696.8911    -254.6605     102002.7      46.7237      46.7237      46.7237 
  421000    126.57798    -10877.71   -9678.6353    64.131839     102002.7      46.7237      46.7237      46.7237 
  422000    128.23119   -10922.721   -9707.9853   -55.737064     102002.7      46.7237      46.7237      46.7237 
  423000    129.27856   -10908.336   -9683.6788    236.95505     102002.7      46.7237      46.7237      46.7237 
  424000    130.96987   -10892.915    -9652.236   -10.632786     102002.7      46.7237      46.7237      46.7237 
  425000    132.03822   -10874.753    -9623.953    85.014573     102002.7      46.7237      46.7237      46.7237 
  426000    132.31063   -10886.282   -9632.9013    134.85723     102002.7      46.7237      46.7237      46.7237 
  427000     128.9542   -10910.174   -9688.5891    38.992136     102002.7      46.7237      46.7237      46.7237 
  428000    128.91423   -10912.149   -9690.9424    225.67166     102002.7      46.7237      46.7237      46.7237 
  429000    127.21069   -10899.809   -9694.7403    245.02299     102002.7      46.7237      46.7237      46.7237 
  430000    130.38857   -10886.963   -9651.7902    252.31647     102002.7      46.7237      46.7237      46.7237 
  431000    130.18226   -10919.446   -9686.2276   -197.50879     102002.7      46.7237      46.7237      46.7237 
  432000    129.17807   -10911.328   -9687.6224   -326.99063     102002.7      46.7237      46.7237      46.7237 
  433000    128.74458   -10941.726   -9722.1264   -158.24254     102002.7      46.7237      46.7237      46.7237 
  434000     132.1214   -10904.756   -9653.1677    47.053639     102002.7      46.7237      46.7237      46.7237 
  435000    131.54983   -10878.294   -9632.1201   -165.77517     102002.7      46.7237      46.7237      46.7237 
  436000    129.46359   -10894.668   -9668.2577    147.96292     102002.7      46.7237      46.7237      46.7237 
  437000    131.27239   -10894.195   -9650.6494   -225.84257     102002.7      46.7237      46.7237      46.7237 
  438000     136.0949    -10916.83   -9627.6012    135.24081     102002.7      46.7237      46.7237      46.7237 
  439000    130.05883   -10862.369   -9630.3194    256.07492     102002.7      46.7237      46.7237      46.7237 
  440000    128.97005   -10892.627    -9670.892     161.1211     102002.7      46.7237      46.7237      46.7237 
  441000    127.93191   -10881.511   -9669.6104    130.20663     102002.7      46.7237      46.7237      46.7237 
  442000      129.846   -10892.071   -9662.0384    90.780034     102002.7      46.7237      46.7237      46.7237 
  443000    129.55762   -10891.467   -9664.1654    179.42041     102002.7      46.7237      46.7237      46.7237 
  444000    129.05793   -10919.387   -9696.8198   -54.430894     102002.7      46.7237      46.7237      46.7237 
  445000    130.86483    -10904.08   -9664.3954   -9.5444066     102002.7      46.7237      46.7237      46.7237 
  446000    127.92448   -10909.221   -9697.3909   -38.766543     102002.7      46.7237      46.7237      46.7237 
  447000    128.87568   -10902.373   -9681.5315    119.22822     102002.7      46.7237      46.7237      46.7237 
  448000    127.27509   -10903.018   -9697.3396    115.05158     102002.7      46.7237      46.7237      46.7237 
  449000    129.73475   -10879.046   -9650.0667    288.22783     102002.7      46.7237      46.7237      46.7237 
  450000    130.18233   -10887.557    -9654.338   -291.43978     102002.7      46.7237      46.7237      46.7237 
  451000    132.38684    -10876.36   -9622.2571   -281.58661     102002.7      46.7237      46.7237      46.7237 
  452000    129.21205   -10889.059    -9665.031     69.69114     102002.7      46.7237      46.7237      46.7237 
  453000    127.70508   -10906.481   -9696.7285   -137.73931     102002.7      46.7237      46.7237      46.7237 
  454000     129.6198   -10904.728   -9676.8382   -359.33546     102002.7      46.7237      46.7237      46.7237 
  455000    131.02212   -10887.771   -9646.5964    99.449949     102002.7      46.7237      46.7237      46.7237 
  456000    127.63017   -10901.058   -9692.0158    -105.7749     102002.7      46.7237      46.7237      46.7237 
  457000    128.34788   -10883.434   -9667.5926    100.48806     102002.7      46.7237      46.7237      46.7237 
  458000    133.58471   -10883.972    -9618.522    333.28817     102002.7      46.7237      46.7237      46.7237 
  459000    132.28598   -10878.187   -9625.0402   -104.65599     102002.7      46.7237      46.7237      46.7237 
  460000    133.88117   -10921.501   -9653.2427    219.73303     102002.7      46.7237      46.7237      46.7237 
  461000    129.89368   -10912.417   -9681.9321   -387.34679     102002.7      46.7237      46.7237      46.7237 
  462000    129.33405   -10915.946   -9690.7625   -196.67542     102002.7      46.7237      46.7237      46.7237 
  463000    129.27635    -10918.04   -9693.4029    72.158097     102002.7      46.7237      46.7237      46.7237 
  464000    130.69132   -10885.407   -9647.3666   -58.196579     102002.7      46.7237      46.7237      46.7237 
  465000    130.20521   -10898.081   -9664.6455    498.72174     102002.7      46.7237      46.7237      46.7237 
  466000    129.69781   -10924.888   -9696.2583    65.647381     102002.7      46.7237      46.7237      46.7237 
  467000    134.71529   -10895.761   -9619.6009    19.977676     102002.7      46.7237      46.7237      46.7237 
  468000    129.17828   -10900.408   -9676.6999    17.454014     102002.7      46.7237      46.7237      46.7237 
  469000    132.41806   -10893.482   -9639.0837    -233.6656     102002.7      46.7237      46.7237      46.7237 
  470000    130.20567   -10913.993   -9680.5524    6.7589873     102002.7      46.7237      46.7237      46.7237 
  471000    128.82666   -10887.504   -9667.1269    262.21924     102002.7      46.7237      46.7237      46.7237 
  472000    126.33333   -10891.484   -9694.7265     404.9832     102002.7      46.7237      46.7237      46.7237 
  473000    131.36394   -10873.696   -9629.2837   -368.14854     102002.7      46.7237      46.7237      46.7237 
  474000    127.36557   -10893.196     -9686.66    224.65143     102002.7      46.7237      46.7237      46.7237 
  475000      131.081   -10891.253   -9649.5206   -11.266199     102002.7      46.7237      46.7237      46.7237 
  476000    133.17267   -10886.951   -9625.4046    17.661274     102002.7      46.7237      46.7237      46.7237 
  477000    132.27747   -10892.211   -9639.1449    90.522938     102002.7      46.7237      46.7237      46.7237 
  478000    127.00462    -10913.63   -9710.5136    171.09774     102002.7      46.7237      46.7237      46.7237 
  479000    129.33453   -10894.463   -9669.2756    175.50674     102002.7      46.7237      46.7237      46.7237 
  480000    130.69172   -10906.786   -9668.7415   -168.28751     102002.7      46.7237      46.7237      46.7237 
  481000    126.49924   -10896.874   -9698.5454    104.32801     102002.7      46.7237      46.7237      46.7237 
  482000     132.1421   -10916.079   -9664.2953   -19.361164     102002.7      46.7237      46.7237      46.7237 
  483000    132.70022   -10919.075   -9662.0035    -59.84374     102002.7      46.7237      46.7237      46.7237 
  484000    131.60043   -10896.959   -9650.3059    247.18177     102002.7      46.7237      46.7237      46.7237 
  485000    132.03221   -10902.461   -9651.7179   -161.78041     102002.7      46.7237      46.7237      46.7237 
  486000    129.16105   -10909.892   -9686.3478   -152.58028     102002.7      46.7237      46.7237      46.7237 
  487000    132.40539   -10895.952   -9641.6735   -65.359364     102002.7      46.7237      46.7237      46.7237 
  488000    132.28222   -10868.465   -9615.3536    285.62445     102002.7      46.7237      46.7237      46.7237 
  489000    132.03774   -10897.474    -9646.679    407.27271     102002.7      46.7237      46.7237      46.7237 
  490000    132.52069   -10887.726   -9632.3559    143.08266     102002.7      46.7237      46.7237      46.7237 
  491000    126.40067   -10883.986   -9686.5903    360.63123     102002.7      46.7237      46.7237      46.7237 
  492000    131.60048   -10884.454   -9637.8011    161.17261     102002.7      46.7237      46.7237      46.7237 
  493000    130.46123   -10882.118    -9646.257    249.22413     102002.7      46.7237      46.7237      46.7237 
  494000    133.71127   -10898.839   -9632.1902     313.0136     102002.7      46.7237      46.7237      46.7237 
  495000    129.43812   -10910.638   -9684.4693   -204.55185     102002.7      46.7237      46.7237      46.7237 
  496000    129.26422   -10906.926   -9682.4044   -6.9164415     102002.7      46.7237      46.7237      46.7237 
  497000    127.20652   -10911.867   -9706.8375   -23.821276     102002.7      46.7237      46.7237      46.7237 
  498000     127.8974    -10937.98   -9726.4062   -269.52233     102002.7      46.7237      46.7237      46.7237 
  499000    127.78378   -10881.491   -9670.9936    302.60923     102002.7      46.7237      46.7237      46.7237 
  500000    129.84432   -10883.631   -9653.6134    291.67665     102002.7      46.7237      46.7237      46.7237 
  500500    129.08457   -10904.401   -9681.5811    77.563515     102002.7      46.7237      46.7237      46.7237 
Loop time of 2012.81 on 16 procs for 500000 steps with 3179 atoms

Performance: 21.462 ns/day, 1.118 hours/ns, 248.408 timesteps/s
99.8% CPU use with 16 MPI tasks x no OpenMP threads

MPI task timing breakdown:
Section |  min time  |  avg time  |  max time  |%varavg| %total
---------------------------------------------------------------
Pair    | 789.55     | 1154.9     | 1577.7     | 818.6 | 57.38
Bond    | 123.9      | 174.44     | 224.87     | 314.1 |  8.67
Neigh   | 18.538     | 18.588     | 18.65      |   0.7 |  0.92
Comm    | 173.76     | 646.96     | 1056.7     |1250.8 | 32.14
Output  | 0.021175   | 0.02166    | 0.025131   |   0.6 |  0.00
Modify  | 9.519      | 10.911     | 11.958     |  22.1 |  0.54
Other   |            | 7.024      |            |       |  0.35

Nlocal:    198.688 ave 242 max 158 min
Histogram: 3 1 1 1 2 3 0 2 0 3
Nghost:    4035.75 ave 4098 max 3986 min
Histogram: 2 0 3 3 1 4 1 0 1 1
Neighs:    11458.9 ave 19273 max 4007 min
Histogram: 1 3 3 1 0 0 3 1 2 2

Total # of neighbors = 183343
Ave neighs/atom = 57.6732
Ave special neighs/atom = 3.62378
Neighbor list builds = 5139
Dangerous builds = 0
Neighbor list info ...
  update every 1 steps, delay 10 steps, check yes
  max neighbors/atom: 2000, page size: 100000
  master list distance cutoff = 16
  ghost atom cutoff = 16
  binsize = 8, bins = 6 6 6
  3 neighbor lists, perpetual/occasional/extra = 3 0 0
  (1) pair buck6d/coul/gauss/dsf, perpetual, skip from (3)
      attributes: half, newton on
      pair build: skip
      stencil: none
      bin: none
  (2) pair lj/cut, perpetual, skip from (3)
      attributes: half, newton on
      pair build: skip
      stencil: none
      bin: none
  (3) neighbor class addition, perpetual
      attributes: half, newton on
      pair build: half/bin/newton
      stencil: half/bin/3d/newton
      bin: standard
Setting up Verlet run ...
  Unit style    : real
  Current step  : 500500
  Time step     : 1
WARNING: Inconsistent image flags (../domain.cpp:786)
Per MPI rank memory allocation (min/avg/max) = 22.79 | 23.36 | 23.44 Mbytes
Step Time TotEng KinEng PotEng E_mol E_pair Temp Pxx Pyy Pzz Pxy Pxz Pyz Cella Cellb Cellc CellAlpha CellBeta CellGamma Volume Press 
  500500       500000   -9681.5811      1222.82   -10904.401    4381.6428   -15286.044    129.08457    153.81834    12.677194    66.195008   -91.265542    118.19984   -133.09343      46.7237      46.7237      46.7237           90           90           90     102002.7    77.563515 
  501000       500500   -9685.1754    1228.0957   -10913.271    4368.8201   -15282.091    129.64149   -185.14744    104.44174   -40.634512    159.57273   -131.28841    60.837704      46.7237      46.7237      46.7237           90           90           90     102002.7    -40.44674 
  502000       501500   -9682.4403    1235.4798    -10917.92    4385.9355   -15303.856    130.42097   -368.77355    27.128123    46.783367    99.322962    13.114654   -188.56886      46.7237      46.7237      46.7237           90           90           90     102002.7   -98.287355 
  503000       502500   -9671.3923     1224.063   -10895.455    4377.5935   -15273.049    129.21579   -113.68873    -162.9479   -185.59016   -218.27503   -158.98668    253.87071      46.7237      46.7237      46.7237           90           90           90     102002.7    -154.0756 
  504000       503500   -9673.4581     1210.214   -10883.672    4390.5362   -15274.208    127.75385    134.19124    50.856849   -116.38067     47.12466    66.309208    -155.6503      46.7237      46.7237      46.7237           90           90           90     102002.7    22.889141 
  505000       504500   -9663.5626    1243.6205   -10907.183     4364.456   -15271.639    131.28034     39.81591     90.29665     100.0915    141.67386    140.07902   -51.640228      46.7237      46.7237      46.7237           90           90           90     102002.7    76.734686 
  506000       505500   -9657.1209    1228.7094    -10885.83    4408.8079   -15294.638    129.70627   -59.981857    569.25471    101.69421    336.07983   -286.06438    185.96609      46.7237      46.7237      46.7237           90           90           90     102002.7    203.65569 
  507000       506500   -9656.6848    1222.5434   -10879.228    4385.6107   -15264.839    129.05537   -256.34591    362.66445   -70.863467    220.32237    153.23459   -96.352608      46.7237      46.7237      46.7237           90           90           90     102002.7    11.818356 
  508000       507500    -9668.467    1243.0396   -10911.507    4377.6264   -15289.133    131.21901    2.7633938     290.3944   -546.28671    -4.545131    2.4628502   -158.77738      46.7237      46.7237      46.7237           90           90           90     102002.7   -84.376303 
  509000       508500    -9630.435    1254.4822   -10884.917    4380.4601   -15265.377    132.42693    101.72074    51.310293    131.39991    183.42761    32.031118    24.820739      46.7237      46.7237      46.7237           90           90           90     102002.7    94.810313 
  510000       509500   -9672.5752    1233.0482   -10905.623    4390.3126   -15295.936    130.16429    411.03448    69.970569     6.204809   -85.155799    51.830846   -156.88212      46.7237      46.7237      46.7237           90           90           90     102002.7    162.40329 
  511000       510500   -9700.1826    1213.6633   -10913.846    4400.1037    -15313.95    128.11796    219.65906   -32.270363    205.98321   -96.829185   -151.88736    70.915827      46.7237      46.7237      46.7237           90           90           90     102002.7    131.12397 
  512000       511500   -9670.5297    1235.2557   -10905.785    4358.6213   -15264.407    130.39732   -5.9211187   -186.33013   -178.42379    92.082282    227.76412     15.19133      46.7237      46.7237      46.7237           90           90           90     102002.7   -123.55835 
  513000       512500   -9688.5971    1208.7456   -10897.343    4369.4667   -15266.809    127.59884   -114.32507    216.44481    183.38644    281.09191    174.09653   -255.64033      46.7237      46.7237      46.7237           90           90           90     102002.7    95.168725 
  514000       513500   -9714.0461    1222.9733   -10937.019    4336.7829   -15273.802    129.10076   -479.77211    593.89043   -50.423997   -126.95058    96.187115    90.731431      46.7237      46.7237      46.7237           90           90           90     102002.7    21.231442 
  515000       514500   -9676.9103    1210.3773   -10887.288    4392.4942   -15279.782    127.77108    63.896002     269.0718    -245.9956    79.920841    67.701509    268.86546      46.7237      46.7237      46.7237           90           90           90     102002.7    28.990736 
  516000       515500   -9663.4571    1212.8391   -10876.296     4377.205   -15253.501    128.03095   -302.57396    518.94767    295.98048    259.45103   -118.46072   -330.75691      46.7237      46.7237      46.7237           90           90           90     102002.7    170.78473 
  517000       516500   -9685.0219    1219.1934   -10904.215    4348.3342    -15252.55    128.70174    131.71153    616.09511    291.67967    159.02914   -143.78495    49.480084      46.7237      46.7237      46.7237           90           90           90     102002.7    346.49544 
  518000       517500   -9668.9432    1218.2615   -10887.205    4393.6505   -15280.855    128.60336    51.379098    646.00221   -84.982373    285.81837    148.64452   -254.10233      46.7237      46.7237      46.7237           90           90           90     102002.7    204.13298 
  519000       518500   -9678.8432    1229.8721   -10908.715    4360.2206   -15268.936    129.82901   -294.89916    476.64841    110.83652    246.79949   -31.849352   -64.778491      46.7237      46.7237      46.7237           90           90           90     102002.7     97.52859 
  520000       519500   -9716.4864    1211.6866   -10928.173    4370.0239   -15298.197    127.90929   -510.93097    286.47766     585.1961   -142.26019   -141.11032   -116.05456      46.7237      46.7237      46.7237           90           90           90     102002.7    120.24759 
  521000       520500   -9656.5979    1231.2348   -10887.833    4356.9739   -15244.807    129.97287    484.03858   -200.38926   -531.25776   -152.70129   -165.47966    28.752888      46.7237      46.7237      46.7237           90           90           90     102002.7   -82.536147 
  522000       521500   -9685.1889    1225.7852   -10910.974    4380.4106   -15291.385    129.39759   -31.024376    -244.3453   -322.19655   -50.329698    229.83461   -339.61241      46.7237      46.7237      46.7237           90           90           90     102002.7   -199.18874 
  523000       522500   -9665.8273    1233.8627    -10899.69    4390.0073   -15289.697    130.25028   -222.50811    48.621691   -20.500356    251.13761    78.387642    62.505675      46.7237      46.7237      46.7237           90           90           90     102002.7   -64.795592 
  524000       523500   -9645.2601    1274.7599    -10920.02    4373.6694   -15293.689    134.56751   -193.97563   -189.91813    25.356976     254.6509    258.46807    188.54965      46.7237      46.7237      46.7237           90           90           90     102002.7   -119.51226 
  525000       524500   -9672.0421    1231.4138   -10903.456     4372.157   -15275.613    129.99176     78.51488    29.244081    61.570794     2.333928    20.013485   -92.215468      46.7237      46.7237      46.7237           90           90           90     102002.7    56.443251 
  526000       525500   -9704.7572     1201.169   -10905.926    4381.5315   -15287.458    126.79903   -530.86883   -262.33944    336.32076    77.249993    50.912207    74.245223      46.7237      46.7237      46.7237           90           90           90     102002.7   -152.29584 
  527000       526500   -9664.4453    1230.7738   -10895.219    4393.2053   -15288.424     129.9242    16.652479   -322.02359    41.867857    137.80404    98.674938    50.629269      46.7237      46.7237      46.7237           90           90           90     102002.7   -87.834418 
  528000       527500   -9678.4944    1260.5377   -10939.032    4374.8914   -15313.923    133.06616    186.48034    107.93839   -73.673055    116.40479    77.706684   -245.65117      46.7237      46.7237      46.7237           90           90           90     102002.7    73.581892 
  529000       528500   -9685.3468    1234.3067   -10919.653    4348.1605   -15267.814    130.29714   -76.114386   -171.91566   -41.921308    3.0418768   -228.44873    94.049375      46.7237      46.7237      46.7237           90           90           90     102002.7   -96.650452 
  530000       529500   -9681.0703    1211.9097    -10892.98    4371.6534   -15264.633    127.93285     52.82792   -109.02736    1142.8464   -161.62412       153.72   -128.62045      46.7237      46.7237      46.7237           90           90           90     102002.7    362.21567 
  531000       530500   -9701.9949    1193.5294   -10895.524    4358.8685   -15254.393    125.99257    244.31536   -50.030842    463.61544    -171.0868    85.645294   -61.673692      46.7237      46.7237      46.7237           90           90           90     102002.7    219.29998 
  532000       531500   -9711.4456    1202.1117   -10913.557     4354.678   -15268.235    126.89854    80.884755   -597.63266   -96.737221    48.555872    30.755246   -59.436918      46.7237      46.7237      46.7237           90           90           90     102002.7   -204.49504 
  533000       532500   -9662.5365    1232.1996   -10894.736    4375.6785   -15270.415    130.07471    256.64952   -35.030967     322.5551    36.732327    18.334171   -137.49663      46.7237      46.7237      46.7237           90           90           90     102002.7    181.39122 
  534000       533500    -9692.225     1240.669   -10932.894    4327.7235   -15260.618    130.96877   -106.49598   -165.70268    423.09625    64.304555    133.76758   -173.78891      46.7237      46.7237      46.7237           90           90           90     102002.7    50.299195 
  535000       534500   -9657.7258    1220.2701   -10877.996    4368.2607   -15246.257     128.8154    591.54219    49.844516   -56.894181   -17.272223    122.35642   -312.50212      46.7237      46.7237      46.7237           90           90           90     102002.7    194.83084 
  536000       535500   -9629.4394    1258.5566   -10887.996    4360.7795   -15248.775    132.85704    65.317004    362.52206    304.27041    158.26884   -127.63281   -21.772477      46.7237      46.7237      46.7237           90           90           90     102002.7    244.03649 
  537000       536500   -9628.8129    1247.7457   -10876.559     4361.373   -15237.932    131.71581    31.436675    198.66383    665.35669    37.280287    232.71986   -40.784846      46.7237      46.7237      46.7237           90           90           90     102002.7    298.48573 
  538000       537500   -9670.2596    1226.2923   -10896.552    4365.2266   -15261.778    129.45111    1.9890469    643.03478     19.44686    21.448336    103.91999    15.684397      46.7237      46.7237      46.7237           90           90           90     102002.7    221.49023 
  539000       538500   -9681.0548    1234.4747   -10915.529    4366.8847   -15282.414    130.31487    73.483935    438.37804    167.73554    8.3582072    -77.73929    291.89127      46.7237      46.7237      46.7237           90           90           90     102002.7     226.5325 
  540000       539500   -9678.0688    1236.6928   -10914.762    4361.9637   -15276.725    130.54903    336.17036    298.77046    588.90984    61.338796    134.20805   -14.098204      46.7237      46.7237      46.7237           90           90           90     102002.7    407.95022 
  541000       540500   -9661.5279     1232.498   -10894.026    4370.0555   -15264.081    130.10621    414.24694   -144.65557   -163.31803   -160.32321    361.25125   -122.59765      46.7237      46.7237      46.7237           90           90           90     102002.7    35.424444 
  542000       541500   -9712.6588    1199.7378   -10912.397     4346.817   -15259.214    126.64795     630.5619    304.62573   -81.757347    158.48006    40.038789   -90.703066      46.7237      46.7237      46.7237           90           90           90     102002.7    284.47676 
  543000       542500   -9632.0545    1257.9325   -10889.987    4367.2112   -15257.198    132.79116    227.67996   -177.31857     727.6751   -35.705072   -394.52026    153.38561      46.7237      46.7237      46.7237           90           90           90     102002.7     259.3455 
  544000       543500    -9687.447    1224.5919   -10912.039    4348.5107    -15260.55    129.27162    204.97402    73.058986   -178.00544    186.20704   -189.44073     18.37893      46.7237      46.7237      46.7237           90           90           90     102002.7    33.342521 
  545000       544500   -9662.9905    1229.6641   -10892.655    4378.7474   -15271.402    129.80706    385.27464   -279.78019    65.455282    240.12769   -37.534644    32.319903      46.7237      46.7237      46.7237           90           90           90     102002.7    56.983241 
  546000       545500   -9696.5144    1218.3957    -10914.91    4375.6262   -15290.536    128.61753   -65.086378   -620.72176   -111.74483   -25.074594   -44.915049   -1.0169491      46.7237      46.7237      46.7237           90           90           90     102002.7   -265.85099 
  547000       546500   -9639.3184     1259.952    -10899.27    4409.5683   -15308.839    133.00434   -174.85987     229.7732   -297.31065   -87.532789    23.670037   -145.71124      46.7237      46.7237      46.7237           90           90           90     102002.7   -80.799106 
  548000       547500   -9651.0032    1246.3623   -10897.365    4399.5024   -15296.868    131.56977    518.63429    105.68665   -180.72292   -111.60691    213.86175   -302.46844      46.7237      46.7237      46.7237           90           90           90     102002.7    147.86601 
  549000       548500   -9690.9391    1223.5381   -10914.477    4351.3936   -15265.871    129.16038    185.56216   -167.96505    462.30777   -56.951057    75.303853   -123.83654      46.7237      46.7237      46.7237           90           90           90     102002.7    159.96829 
  550000       549500   -9651.5313    1221.3541   -10872.885    4402.6844    -15275.57    128.92983    101.31277    282.49519   -113.82819    142.73447     325.5616    97.076146      46.7237      46.7237      46.7237           90           90           90     102002.7    89.993259 
  551000       550500   -9656.3259    1225.1618   -10881.488    4373.9619    -15255.45    129.33178   -136.15021    226.19158   -8.2072877   -126.41142   -27.712136   -155.91462      46.7237      46.7237      46.7237           90           90           90     102002.7    27.278026 
  552000       551500   -9672.2599    1227.4882   -10899.748    4369.2309   -15268.979    129.57736    557.88464   -128.60589    346.70145   -96.095295    316.96747    11.876683      46.7237      46.7237      46.7237           90           90           90     102002.7    258.66007 
  553000       552500   -9655.5227    1224.4073    -10879.93    4411.3079   -15291.238    129.25213   -5.1113702    -186.7248   -319.75785    131.47736    -33.65897    139.64539      46.7237      46.7237      46.7237           90           90           90     102002.7   -170.53134 
  554000       553500   -9641.4984    1237.1272   -10878.626    4375.3729   -15253.999    130.59488    135.24539   -203.05845    22.295987    334.89173    -64.81643    54.726451      46.7237      46.7237      46.7237           90           90           90     102002.7   -15.172356 
  555000       554500   -9691.3516    1236.4449   -10927.796    4375.8969   -15303.693    130.52285    310.00438     146.6335    360.56897    11.437476   -184.85782    359.04542      46.7237      46.7237      46.7237           90           90           90     102002.7    272.40228 
[...]
  936000       935500   -9666.4413    1247.8013   -10914.243      4351.63   -15265.873    131.72168    238.60292    26.786398    63.020289   -150.02711   -195.02398    183.14929      46.7237      46.7237      46.7237           90           90           90     102002.7    109.46987 
  937000       936500    -9619.155    1250.1104   -10869.265    4396.7059   -15265.971    131.96543   -4.2514766   -53.884138   -111.82812    423.12184   -125.63863   -100.42417      46.7237      46.7237      46.7237           90           90           90     102002.7    -56.65458 
  938000       937500   -9717.7204    1198.5887   -10916.309    4387.5914     -15303.9    126.52664    52.050319    -55.43934     -355.969    455.03476   -288.07382     23.98936      46.7237      46.7237      46.7237           90           90           90     102002.7   -119.78601 
  939000       938500   -9653.4843    1233.2096   -10886.694    4372.6282   -15259.322    130.18133    51.981969    591.87667    333.84284   -166.34973     54.76672    25.130451      46.7237      46.7237      46.7237           90           90           90     102002.7    325.90049 
  940000       939500   -9689.6563    1203.6192   -10893.276    4385.4502   -15278.726    127.05768    164.25178    360.54305    26.095254    57.697251   -88.227823   -27.015805      46.7237      46.7237      46.7237           90           90           90     102002.7    183.63003 
  941000       940500   -9611.4846    1254.9252    -10866.41    4390.3215   -15256.731    132.47369   -335.85787   -6.1679958    55.522863      194.524    98.110071    46.008686      46.7237      46.7237      46.7237           90           90           90     102002.7   -95.501002 
  942000       941500   -9687.5289    1229.3034   -10916.832    4385.2424   -15302.075    129.76898    67.501322   -20.719282    110.94076   -57.616577    122.21534    190.30142      46.7237      46.7237      46.7237           90           90           90     102002.7    52.574268 
  943000       942500   -9638.9693    1239.3539   -10878.323     4408.705   -15287.028    130.82994    104.12638    428.70511   -327.81535    25.256907   -116.84994   -17.976279      46.7237      46.7237      46.7237           90           90           90     102002.7    68.338713 
  944000       943500   -9653.1984    1219.0206   -10872.219    4418.4023   -15290.621    128.68349    324.92463   -83.078991   -332.80168   -202.55614   -310.01399    376.07888      46.7237      46.7237      46.7237           90           90           90     102002.7    -30.31868 
  945000       944500   -9660.6439    1244.5548   -10905.199    4377.1445   -15282.343    131.37896    202.52425    295.08408    776.58848   -180.22306   -25.837315   -122.06933      46.7237      46.7237      46.7237           90           90           90     102002.7    424.73227 
  946000       945500   -9642.7374    1251.3803   -10894.118    4381.0802   -15275.198    132.09948   -15.843025    822.03533    261.32154    51.739141    339.52763   -25.505325      46.7237      46.7237      46.7237           90           90           90     102002.7    355.83795 
  947000       946500   -9664.4059     1229.009   -10893.415    4380.6219   -15274.037     129.7379    151.44322    126.55543    456.88854    135.51435   -84.754361   -316.99538      46.7237      46.7237      46.7237           90           90           90     102002.7     244.9624 
  948000       947500   -9662.4934     1234.425   -10896.918    4385.7458   -15282.664    130.30963    197.35693    585.46223   -43.539418    34.513885   -96.969496   -59.232378      46.7237      46.7237      46.7237           90           90           90     102002.7    246.42658 
  949000       948500   -9663.1986     1241.004   -10904.203    4390.5753   -15294.778    131.00413    109.63118   -241.89403   -271.55909    55.901617    41.492711     55.85761      46.7237      46.7237      46.7237           90           90           90     102002.7   -134.60732 
  950000       949500   -9672.2196     1234.414   -10906.634    4370.2759    -15276.91    130.30847   -91.301344   -296.94824   -212.23499    3.8803773    -16.96592   -37.463398      46.7237      46.7237      46.7237           90           90           90     102002.7   -200.16152 
  951000       950500   -9665.2981    1222.7551   -10888.053    4389.4113   -15277.464    129.07772   -20.114197   -189.05068   -53.778926    40.570858    117.45431    90.027683      46.7237      46.7237      46.7237           90           90           90     102002.7   -87.647935 
  952000       951500   -9643.3697    1237.5745   -10880.944    4385.2511   -15266.195     130.6421    232.73257   -23.985131   -379.80479   -59.239843    196.18364      131.782      46.7237      46.7237      46.7237           90           90           90     102002.7   -57.019119 
  953000       952500   -9669.2692    1237.7318   -10907.001    4371.5567   -15278.558     130.6587   -180.80918    45.284948   -201.82386    73.488258     -77.3727    131.62338      46.7237      46.7237      46.7237           90           90           90     102002.7   -112.44936 
  954000       953500   -9702.8916    1199.9032   -10902.795    4378.1176   -15280.912     126.6654   -443.10109    236.92186   -222.35558    68.969447   -109.48394   -19.896903      46.7237      46.7237      46.7237           90           90           90     102002.7   -142.84494 
  955000       954500   -9681.5952     1218.119   -10899.714    4393.1547   -15292.869    128.58832     422.7165   -342.18372   -391.54916    167.73756   -184.28024    146.08023      46.7237      46.7237      46.7237           90           90           90     102002.7   -103.67213 
  956000       955500   -9716.0591    1211.9889   -10928.048    4389.3833   -15317.431    127.94121    283.94094    81.027761    6.2668738    175.44017     -168.567   -226.74253      46.7237      46.7237      46.7237           90           90           90     102002.7    123.74519 
  957000       956500   -9664.5705    1234.3182   -10898.889    4379.3846   -15278.273    130.29836    80.463148    278.30918   -357.52551    32.028625    86.375494    104.65884      46.7237      46.7237      46.7237           90           90           90     102002.7   0.41560544 
  958000       957500   -9606.4574    1259.6917   -10866.149    4409.7457   -15275.895    132.97686   -0.8107433    690.21181    247.82012    129.14034   -107.21565   -92.700626      46.7237      46.7237      46.7237           90           90           90     102002.7    312.40706 
  959000       958500   -9672.5392    1216.2101   -10888.749    4365.0252   -15253.774    128.38682   -365.31775    240.36148    242.24111   -216.87608   -180.37949    101.00805      46.7237      46.7237      46.7237           90           90           90     102002.7    39.094945 
  960000       959500   -9679.9922     1236.501   -10916.493    4373.4619   -15289.955    130.52878     322.4568   -100.18299    152.47011    134.53987   -334.63659   -116.42352      46.7237      46.7237      46.7237           90           90           90     102002.7    124.91464 
  961000       960500   -9664.4125    1258.4926   -10922.905    4367.3002   -15290.205    132.85028   -216.07777   -309.62268   -72.455575   -155.21653    165.46378    7.9911304      46.7237      46.7237      46.7237           90           90           90     102002.7   -199.38534 
  962000       961500   -9700.5255     1208.975     -10909.5    4381.6696    -15291.17    127.62305    194.15986    200.11351   -242.84666    165.41566     279.2403   -147.78528      46.7237      46.7237      46.7237           90           90           90     102002.7    50.475572 
  963000       962500   -9700.3957    1192.9402   -10893.336    4370.0373   -15263.373    125.93038   -435.18849     450.5111    741.01986      242.622    157.83539   -20.420777      46.7237      46.7237      46.7237           90           90           90     102002.7    252.11416 
  964000       963500   -9668.6519    1229.1707   -10897.823    4372.1081   -15269.931    129.75497    98.695883    405.65368    388.13936   -143.78845    116.04474   -307.70343      46.7237      46.7237      46.7237           90           90           90     102002.7    297.49631 
  965000       964500    -9656.476    1226.9795   -10883.455    4403.2179   -15286.673    129.52366    150.50336   -333.89327    85.173011   -103.61412   -68.883194   -294.34698      46.7237      46.7237      46.7237           90           90           90     102002.7   -32.738968 
  966000       965500   -9672.9345    1233.3401   -10906.275    4370.8383   -15277.113     130.1951   -275.05127    255.54066    861.36479   -141.67398   -23.954045    11.789613      46.7237      46.7237      46.7237           90           90           90     102002.7    280.61806 
  967000       966500   -9685.9905    1230.8322   -10916.823    4368.9221   -15285.745    129.93036    38.404732   -64.200546    479.25764    336.89934   -232.03639    122.38102      46.7237      46.7237      46.7237           90           90           90     102002.7    151.15394 
  968000       967500    -9663.615    1244.5058   -10908.121    4371.2531   -15279.374    131.37379   -138.41885    433.61288    249.67261    221.04193    66.069292    -35.70799      46.7237      46.7237      46.7237           90           90           90     102002.7    181.62221 
  969000       968500   -9645.9446    1233.7876   -10879.732    4383.3628   -15263.095    130.24235    53.649058   -352.02913    611.07902   -85.805222    5.0625563    160.29355      46.7237      46.7237      46.7237           90           90           90     102002.7    104.23298 
  970000       969500   -9649.3539    1233.6383   -10882.992    4397.2779    -15280.27    130.22658   -119.46296   -47.872699   -29.021007   -253.29634    377.30527   -30.743248      46.7237      46.7237      46.7237           90           90           90     102002.7   -65.452221 
  971000       970500   -9681.2089    1214.3161   -10895.525    4378.8223   -15274.347    128.18688    6.4633267    548.22262    84.686814    199.88992    86.402896    40.785626      46.7237      46.7237      46.7237           90           90           90     102002.7    213.12425 
  972000       971500   -9647.7914    1238.9061   -10886.697    4384.7209   -15271.418    130.78267   -142.60171    321.51803    445.87531   -147.40995   -123.14996    132.99504      46.7237      46.7237      46.7237           90           90           90     102002.7    208.26388 
  973000       972500   -9693.0565    1224.9346   -10917.991    4389.7779   -15307.769    129.30779   -223.12248   -296.27789   -247.61958    282.42414    79.036454    44.065609      46.7237      46.7237      46.7237           90           90           90     102002.7   -255.67332 
  974000       973500   -9702.6141    1205.7412   -10908.355     4378.375    -15286.73    127.28168    545.76476   -32.271305   -153.33034   -270.04958   -162.85941    95.008219      46.7237      46.7237      46.7237           90           90           90     102002.7    120.05437 
  975000       974500   -9662.4949    1242.0503   -10904.545    4376.8059   -15281.351    131.11458    281.45647    94.181541    96.398729    -231.8032   -68.782183    134.62447      46.7237      46.7237      46.7237           90           90           90     102002.7    157.34558 
  976000       975500   -9669.7135    1230.7449   -10900.458    4367.7589   -15268.217    129.92115    466.39398    175.46676   -266.63716    124.00376    16.624614   -117.10856      46.7237      46.7237      46.7237           90           90           90     102002.7    125.07453 
  977000       976500     -9685.29    1217.2993   -10902.589    4389.7222   -15292.311    128.50179    -906.2772    3.6614453    -290.3562    75.041293    118.82792   -112.77227      46.7237      46.7237      46.7237           90           90           90     102002.7   -397.65732 
  978000       977500   -9658.4344    1219.2088   -10877.643     4394.792   -15272.435    128.70337    127.93186   -8.5133175    170.05748    169.04608   -128.96247    68.523109      46.7237      46.7237      46.7237           90           90           90     102002.7    96.492005 
  979000       978500    -9690.974    1212.3273   -10903.301    4373.6603   -15276.962    127.97693    583.83014   -372.28355   -641.37507   -101.13093   -30.756822   -425.57064      46.7237      46.7237      46.7237           90           90           90     102002.7   -143.27616 
  980000       979500   -9660.7949    1220.3561   -10881.151    4419.8086    -15300.96    128.82447    144.40092   -248.58212   -129.66356   -162.57059   -202.33533   -79.743398      46.7237      46.7237      46.7237           90           90           90     102002.7   -77.948254 
  981000       980500   -9669.2981    1230.3692   -10899.667    4399.0387   -15298.706    129.88149    495.85516    42.923843    20.851608    104.04964    121.23497    50.223908      46.7237      46.7237      46.7237           90           90           90     102002.7    186.54354 
  982000       981500   -9644.1168     1253.501   -10897.618    4369.4477   -15267.065    132.32336    15.158712   -540.68212   -355.40399    78.318602    181.00741    257.41457      46.7237      46.7237      46.7237           90           90           90     102002.7   -293.64246 
  983000       982500   -9686.2828    1216.1999   -10902.483    4370.0854   -15272.568    128.38573     21.69059   -139.04976    466.09707   -107.15383   -54.036335   -261.46395      46.7237      46.7237      46.7237           90           90           90     102002.7    116.24597 
  984000       983500   -9666.6297    1233.1361   -10899.766    4374.6656   -15274.431    130.17357    564.38248   -298.29837   -171.68557    69.262311   -72.543286   -78.562928      46.7237      46.7237      46.7237           90           90           90     102002.7    31.466182 
  985000       984500   -9673.3208    1243.3181   -10916.639      4365.41   -15282.049    131.24841   -193.49288    9.3735224      443.846    105.10913    203.00632    27.649349      46.7237      46.7237      46.7237           90           90           90     102002.7    86.575549 
  986000       985500    -9667.945    1229.5468   -10897.492    4358.9827   -15256.475    129.79467   -346.06494    599.26344    724.81236    122.33195    189.21304   -12.633041      46.7237      46.7237      46.7237           90           90           90     102002.7    326.00362 
  987000       986500   -9660.1895    1224.1598   -10884.349    4382.8794   -15267.229      129.226    29.269021    482.32554      -115.95   -111.05386    35.567953    -160.3474      46.7237      46.7237      46.7237           90           90           90     102002.7    131.88152 
  988000       987500   -9672.4345    1232.0271   -10904.462    4383.2699   -15287.731     130.0565   -68.776164   -26.838433   -429.50101   -159.57398   -69.186086   -49.639404      46.7237      46.7237      46.7237           90           90           90     102002.7   -175.03854 
  989000       988500   -9685.6478    1246.3969   -10932.045    4378.7637   -15310.808    131.57342   -90.377156    363.16455   -258.63956    33.559419   -126.31159    35.654795      46.7237      46.7237      46.7237           90           90           90     102002.7    4.7159464 
  990000       989500   -9641.7192    1231.1338   -10872.853    4383.2355   -15256.088     129.9622    173.38214    154.72831   -107.94434    208.88882    111.30907   -132.54275      46.7237      46.7237      46.7237           90           90           90     102002.7    73.388703 
  991000       990500   -9727.1337    1215.0119   -10942.146    4352.4679   -15294.614    128.26033   -279.67538    182.02836    576.47826   -34.512727    31.994594   -86.123296      46.7237      46.7237      46.7237           90           90           90     102002.7    159.61041 
  992000       991500   -9674.2988    1238.4579   -10912.757     4368.907   -15281.664    130.73536    220.19551   -125.04478   -44.652485     3.623809    220.93787    309.86543      46.7237      46.7237      46.7237           90           90           90     102002.7     16.83275 
  993000       992500   -9652.1717    1238.3398   -10890.512    4368.6538   -15259.165    130.72289   -97.155858   -84.430862    317.37469    150.79803    17.890218    5.4544106      46.7237      46.7237      46.7237           90           90           90     102002.7    45.262655 
  994000       993500   -9681.3944    1234.2029   -10915.597    4361.5881   -15277.185    130.28619   -188.60701    301.85334    108.41495    110.00071    283.97373    117.91379      46.7237      46.7237      46.7237           90           90           90     102002.7    73.887093 
  995000       994500   -9654.6153    1222.9987   -10877.614    4358.2234   -15235.837    129.10343    243.80317    432.68966    89.769327     51.15437    37.494312   -23.350731      46.7237      46.7237      46.7237           90           90           90     102002.7    255.42072 
  996000       995500   -9667.0734    1260.1826   -10927.256    4367.0056   -15294.262    133.02868    28.109115   -255.89157    222.97835   -164.17315    -69.22526    55.989996      46.7237      46.7237      46.7237           90           90           90     102002.7   -1.6013689 
  997000       996500   -9654.4818    1240.5135   -10894.995    4379.6961   -15274.691    130.95236   -503.87329   -468.50546   -164.40523    58.207766    191.27628    133.29084      46.7237      46.7237      46.7237           90           90           90     102002.7   -378.92799 
  998000       997500   -9715.0872    1209.9996   -10925.087     4349.574   -15274.661    127.73121   -256.71884   -201.49751   -246.51706    97.881241     312.3477   -304.34958      46.7237      46.7237      46.7237           90           90           90     102002.7   -234.91114 
  999000       998500   -9683.2185    1240.8659   -10924.084    4340.5031   -15264.588    130.98955    469.94547    480.40095    19.011961   -210.19429   -45.789255   -7.4628697      46.7237      46.7237      46.7237           90           90           90     102002.7    323.11946 
 1000000       999500   -9651.7109    1234.1402   -10885.851    4359.9948   -15245.846    130.27956    215.69567     537.5847    282.97349    106.14433   -183.27812    221.30144      46.7237      46.7237      46.7237           90           90           90     102002.7    345.41795 
 1000500      1000000   -9652.3699      1261.92    -10914.29    4338.0111   -15252.301    133.21209   -122.57822    515.47299   0.39529528   -79.947844   -255.82254     11.99657      46.7237      46.7237      46.7237           90           90           90     102002.7    131.09669 
Loop time of 2419.24 on 16 procs for 500000 steps with 3179 atoms

Performance: 17.857 ns/day, 1.344 hours/ns, 206.677 timesteps/s
99.8% CPU use with 16 MPI tasks x no OpenMP threads

MPI task timing breakdown:
Section |  min time  |  avg time  |  max time  |%varavg| %total
---------------------------------------------------------------
Pair    | 952.21     | 1452       | 1942.4     | 943.1 | 60.02
Bond    | 116.64     | 183.32     | 247.89     | 419.1 |  7.58
Neigh   | 18.348     | 18.408     | 18.481     |   1.0 |  0.76
Comm    | 182.33     | 733.63     | 1300.5     |1528.8 | 30.32
Output  | 0.1337     | 0.14059    | 0.14131    |   0.5 |  0.01
Modify  | 23.684     | 24.949     | 27.444     |  27.4 |  1.03
Other   |            | 6.742      |            |       |  0.28

Nlocal:    198.688 ave 235 max 170 min
Histogram: 4 1 3 1 0 1 1 1 1 3
Nghost:    4052.44 ave 4084 max 4013 min
Histogram: 2 2 0 3 0 0 2 0 5 2
Neighs:    11453.3 ave 17868 max 5597 min
Histogram: 3 3 2 0 0 0 2 1 4 1

Total # of neighbors = 183253
Ave neighs/atom = 57.6449
Ave special neighs/atom = 3.62378
Neighbor list builds = 5110
Dangerous builds = 0
Total wall time: 1:13:56
