LAMMPS (30 Mar 2018)
Reading data file ...
  orthogonal box = (0 0 0) to (46.7237 46.7237 46.7237)
  2 by 2 by 4 MPI processor grid
  reading atoms ...
  2343 atoms
  scanning bonds ...
  5 = max bonds/atom
  scanning angles ...
  10 = max angles/atom
  scanning dihedrals ...
  32 = max dihedrals/atom
  scanning impropers ...
  3 = max impropers/atom
  reading bonds ...
  2064 bonds
  reading angles ...
  3696 angles
  reading dihedrals ...
  6240 dihedrals
  reading impropers ...
  1008 impropers
Finding 1-2 1-3 1-4 neighbors ...
  special bond factors lj:   0          0          0         
  special bond factors coul: 0          0          0         
  5 = max # of 1-2 neighbors
  8 = max # of 1-3 neighbors
  20 = max # of 1-4 neighbors
  19 = max # of special neighbors
Finding 1-2 1-3 1-4 neighbors ...
  special bond factors lj:   0          0          1         
  special bond factors coul: 1          1          1         
  5 = max # of 1-2 neighbors
  8 = max # of 1-3 neighbors
  19 = max # of special neighbors
WARNING: Using 'neigh_modify every 1 delay 0 check yes' setting during minimization (../min.cpp:168)
Neighbor list info ...
  update every 1 steps, delay 0 steps, check yes
  max neighbors/atom: 2000, page size: 100000
  master list distance cutoff = 16
  ghost atom cutoff = 16
  binsize = 8, bins = 6 6 6
  3 neighbor lists, perpetual/occasional/extra = 3 0 0
  (1) pair buck6d/coul/gauss/dsf, perpetual, skip from (3)
      attributes: half, newton on
      pair build: skip
      stencil: none
      bin: none
  (2) pair lj/cut, perpetual, skip from (3)
      attributes: half, newton on
      pair build: skip
      stencil: none
      bin: none
  (3) neighbor class addition, perpetual
      attributes: half, newton on
      pair build: half/bin/newton
      stencil: half/bin/3d/newton
      bin: standard
Setting up cg style minimization ...
  Unit style    : real
  Current step  : 0
WARNING: Inconsistent image flags (../domain.cpp:786)
Per MPI rank memory allocation (min/avg/max) = 22.94 | 23.4 | 23.84 Mbytes
Step Temp E_pair E_mol TotEng Press 
       0            0   -13116.013    6482.8914   -6633.1214    5918.0051 
     500            0   -13419.346    3725.3277   -9694.0182   -807.47399 
Loop time of 3.40964 on 16 procs for 500 steps with 2343 atoms

99.8% CPU use with 16 MPI tasks x no OpenMP threads

Minimization stats:
  Stopping criterion = max force evaluations
  Energy initial, next-to-last, final = 
        -6633.12138335     -9693.89289684     -9694.01815483
  Force two-norm initial, final = 2574.81 16.4664
  Force max component initial, final = 152.091 3.23033
  Final line search alpha, max atom move = 0.00453616 0.0146533
  Iterations, force evaluations = 500 1000

MPI task timing breakdown:
Section |  min time  |  avg time  |  max time  |%varavg| %total
---------------------------------------------------------------
Pair    | 1.4958     | 2.0741     | 2.5845     |  22.2 | 60.83
Bond    | 0.30411    | 0.36148    | 0.4481     |   7.2 | 10.60
Neigh   | 0.029104   | 0.029297   | 0.029482   |   0.1 |  0.86
Comm    | 0.35893    | 0.90253    | 1.505      |  34.9 | 26.47
Output  | 0          | 0          | 0          |   0.0 |  0.00
Modify  | 0          | 0          | 0          |   0.0 |  0.00
Other   |            | 0.04219    |            |       |  1.24

Nlocal:    146.438 ave 185 max 111 min
Histogram: 1 1 2 2 3 0 5 1 0 1
Nghost:    2915.38 ave 2948 max 2870 min
Histogram: 1 0 0 3 3 1 3 2 1 2
Neighs:    11466.2 ave 15349 max 6056 min
Histogram: 2 1 0 0 2 4 2 0 2 3

Total # of neighbors = 183459
Ave neighs/atom = 78.3009
Ave special neighs/atom = 4.91677
Neighbor list builds = 14
Dangerous builds = 0
Neighbor list info ...
  update every 1 steps, delay 10 steps, check yes
  max neighbors/atom: 2000, page size: 100000
  master list distance cutoff = 16
  ghost atom cutoff = 16
  binsize = 8, bins = 6 6 6
  3 neighbor lists, perpetual/occasional/extra = 3 0 0
  (1) pair buck6d/coul/gauss/dsf, perpetual, skip from (3)
      attributes: half, newton on
      pair build: skip
      stencil: none
      bin: none
  (2) pair lj/cut, perpetual, skip from (3)
      attributes: half, newton on
      pair build: skip
      stencil: none
      bin: none
  (3) neighbor class addition, perpetual
      attributes: half, newton on
      pair build: half/bin/newton
      stencil: half/bin/3d/newton
      bin: standard
Setting up Verlet run ...
  Unit style    : real
  Current step  : 500
  Time step     : 1
WARNING: Inconsistent image flags (../domain.cpp:786)
Per MPI rank memory allocation (min/avg/max) = 22.58 | 22.66 | 22.71 Mbytes
Step Temp PotEng TotEng Press Volume Lx Ly Lz 
     500          130   -9694.0182   -8786.4807   -400.76318     102002.7      46.7237      46.7237      46.7237 
    1000    110.82568   -8902.8713   -8129.1908   -713.92562     102002.7      46.7237      46.7237      46.7237 
    2000    135.48016   -8722.2433   -7776.4485   -826.57429     102002.7      46.7237      46.7237      46.7237 
    3000    129.91824   -8687.8917   -7780.9251   -1033.0507     102002.7      46.7237      46.7237      46.7237 
    4000    126.72622   -8704.1959   -7819.5129   -611.55034     102002.7      46.7237      46.7237      46.7237 
    5000    130.60128   -8702.1789   -7790.4439   -1132.0562     102002.7      46.7237      46.7237      46.7237 
    6000    127.01534   -8699.8671   -7813.1658   -988.86143     102002.7      46.7237      46.7237      46.7237 
    7000    130.44823   -8674.0175   -7763.3509   -837.43552     102002.7      46.7237      46.7237      46.7237 
    8000    126.16223   -8698.8534   -7818.1076   -942.73155     102002.7      46.7237      46.7237      46.7237 
    9000      126.464   -8724.4873   -7841.6349   -536.71204     102002.7      46.7237      46.7237      46.7237 
   10000    132.92389   -8688.0762   -7760.1269   -786.13321     102002.7      46.7237      46.7237      46.7237 
   11000    131.94557   -8695.0488   -7773.9293   -808.60345     102002.7      46.7237      46.7237      46.7237 
   12000    131.92772   -8707.9551   -7786.9601   -825.93528     102002.7      46.7237      46.7237      46.7237 
   13000    135.47661   -8695.8314   -7750.0614   -870.54712     102002.7      46.7237      46.7237      46.7237 
   14000    132.84121   -8694.9843   -7767.6122   -842.02673     102002.7      46.7237      46.7237      46.7237 
   15000    127.69825   -8714.9558    -7823.487   -902.42687     102002.7      46.7237      46.7237      46.7237 
   16000    131.44312   -8710.1959   -7792.5839   -732.43859     102002.7      46.7237      46.7237      46.7237 
   17000       131.34    -8698.403    -7781.511   -866.07273     102002.7      46.7237      46.7237      46.7237 
   18000    129.63314   -8713.9619   -7808.9855    -841.6044     102002.7      46.7237      46.7237      46.7237 
   19000    129.85006   -8703.6316   -7797.1409   -926.21324     102002.7      46.7237      46.7237      46.7237 
   20000    131.23351    -8717.033   -7800.8844   -564.14225     102002.7      46.7237      46.7237      46.7237 
   21000    132.50479   -8732.4553   -7807.4318   -790.41584     102002.7      46.7237      46.7237      46.7237 
   22000    132.52683   -8719.9961   -7794.8187   -859.15633     102002.7      46.7237      46.7237      46.7237 
   23000    131.11392   -8688.9722   -7773.6584   -1004.6853     102002.7      46.7237      46.7237      46.7237 
   24000    130.36709   -8705.9649   -7795.8648    -576.4571     102002.7      46.7237      46.7237      46.7237 
   25000    127.21875   -8697.6164   -7809.4951   -1236.2258     102002.7      46.7237      46.7237      46.7237 
   26000    128.27083   -8721.6594   -7826.1935   -1116.0006     102002.7      46.7237      46.7237      46.7237 
   27000    131.61089   -8699.3954   -7780.6123   -1102.9881     102002.7      46.7237      46.7237      46.7237 
   28000    133.20361   -8712.7016   -7782.7996   -807.64534     102002.7      46.7237      46.7237      46.7237 
   29000    128.61282   -8668.2037   -7770.3502   -632.49332     102002.7      46.7237      46.7237      46.7237 
   30000    130.14229   -8713.5617   -7805.0309   -611.12912     102002.7      46.7237      46.7237      46.7237 
   31000    129.98483    -8710.585   -7803.1534   -1135.4007     102002.7      46.7237      46.7237      46.7237 
   32000    128.99591   -8690.5787   -7790.0509   -898.31433     102002.7      46.7237      46.7237      46.7237 
   33000    129.57659   -8708.2979   -7803.7164   -870.02289     102002.7      46.7237      46.7237      46.7237 
   34000    128.75292   -8712.9104   -7814.0789   -1067.6982     102002.7      46.7237      46.7237      46.7237 
   35000    132.22378   -8724.3827   -7801.3209   -717.68568     102002.7      46.7237      46.7237      46.7237 
   36000      128.554   -8725.4755   -7828.0326   -957.85664     102002.7      46.7237      46.7237      46.7237 
   37000    129.68566   -8717.7289   -7812.3859   -752.92931     102002.7      46.7237      46.7237      46.7237 
   38000    130.57717   -8690.1093   -7778.5427   -1004.8778     102002.7      46.7237      46.7237      46.7237 
   39000    128.96667   -8688.0824   -7787.7588   -1018.4961     102002.7      46.7237      46.7237      46.7237 
   40000    127.47213   -8699.0115   -7809.1213   -543.61737     102002.7      46.7237      46.7237      46.7237 
   41000    130.56984    -8716.961   -7805.4455   -771.05462     102002.7      46.7237      46.7237      46.7237 
   42000     130.4427   -8712.1087   -7801.4808   -704.62687     102002.7      46.7237      46.7237      46.7237 
   43000    132.30738    -8706.171   -7782.5256   -713.54865     102002.7      46.7237      46.7237      46.7237 
   44000    131.55891   -8697.7921   -7779.3718   -1225.5244     102002.7      46.7237      46.7237      46.7237 
   45000    129.10399   -8720.6015   -7819.3191   -523.48482     102002.7      46.7237      46.7237      46.7237 
   46000    131.64032   -8697.2916    -7778.303   -909.30125     102002.7      46.7237      46.7237      46.7237 
   47000    128.24525    -8721.741   -7826.4535   -767.05029     102002.7      46.7237      46.7237      46.7237 
   48000    131.20571   -8698.5631   -7782.6085   -752.09851     102002.7      46.7237      46.7237      46.7237 
   49000    129.73129   -8693.0691   -7787.4075   -829.93547     102002.7      46.7237      46.7237      46.7237 
   50000    135.27601   -8704.0438   -7759.6743   -535.33486     102002.7      46.7237      46.7237      46.7237 
   51000    127.75485   -8685.3397   -7793.4758   -970.83301     102002.7      46.7237      46.7237      46.7237 
   52000     127.5425   -8721.9256   -7831.5441   -728.39966     102002.7      46.7237      46.7237      46.7237 
   53000    130.46833   -8706.6011   -7795.7943   -738.76772     102002.7      46.7237      46.7237      46.7237 
   54000    130.91532   -8702.5417   -7788.6144   -628.95108     102002.7      46.7237      46.7237      46.7237 
   55000    126.83058    -8706.469   -7821.0574   -673.34399     102002.7      46.7237      46.7237      46.7237 
   56000    128.58135   -8687.1711   -7789.5373   -849.11158     102002.7      46.7237      46.7237      46.7237 
   57000    131.43735   -8691.6993   -7774.1276   -514.25936     102002.7      46.7237      46.7237      46.7237 
   58000    128.15144   -8677.2638   -7782.6313   -809.88458     102002.7      46.7237      46.7237      46.7237 
   59000    130.00785   -8713.8001   -7806.2079    -439.4944     102002.7      46.7237      46.7237      46.7237 
   60000    131.25958   -8714.9982   -7798.6675   -754.31766     102002.7      46.7237      46.7237      46.7237 
   61000    130.44563   -8711.0113   -7800.3629   -740.40732     102002.7      46.7237      46.7237      46.7237 
   62000    130.67967   -8688.3329   -7776.0507   -659.33252     102002.7      46.7237      46.7237      46.7237 
   63000    128.72275   -8706.2401   -7807.6192   -1104.2896     102002.7      46.7237      46.7237      46.7237 
   64000    131.76867   -8718.0394   -7798.1548   -930.76405     102002.7      46.7237      46.7237      46.7237 
   65000    130.09443   -8716.5557    -7808.359   -693.34006     102002.7      46.7237      46.7237      46.7237 
   66000    130.66766   -8674.8169   -7762.6185   -1072.0649     102002.7      46.7237      46.7237      46.7237 
   67000    131.95547   -8681.9289   -7760.7402   -547.31891     102002.7      46.7237      46.7237      46.7237 
   68000    129.74076   -8697.0295   -7791.3019   -564.23311     102002.7      46.7237      46.7237      46.7237 
   69000     128.2669   -8688.4214   -7792.9829   -836.35597     102002.7      46.7237      46.7237      46.7237 
   70000    131.07913   -8668.3863   -7753.3154    -561.4029     102002.7      46.7237      46.7237      46.7237 
   71000    126.20904   -8734.1812   -7853.1087   -809.32488     102002.7      46.7237      46.7237      46.7237 
   72000    130.09067   -8712.6677   -7804.4973   -556.99121     102002.7      46.7237      46.7237      46.7237 
   73000    132.27833   -8694.6427   -7771.2001   -774.66871     102002.7      46.7237      46.7237      46.7237 
   74000     126.2279   -8675.7542     -7794.55   -792.68027     102002.7      46.7237      46.7237      46.7237 
   75000    130.65822   -8702.7759   -7790.6434   -849.80227     102002.7      46.7237      46.7237      46.7237 
   76000    130.33375    -8699.845   -7789.9777   -1139.0382     102002.7      46.7237      46.7237      46.7237 
   77000     131.6351   -8658.2192   -7739.2671   -609.19308     102002.7      46.7237      46.7237      46.7237 
   78000    129.14214   -8669.9513   -7768.4026   -993.41289     102002.7      46.7237      46.7237      46.7237 
   79000    127.61092   -8701.6286   -7810.7695   -920.96529     102002.7      46.7237      46.7237      46.7237 
   80000    132.84683   -8680.9246   -7753.5132   -639.44789     102002.7      46.7237      46.7237      46.7237 
   81000    126.86213   -8702.1362   -7816.5045   -724.01398     102002.7      46.7237      46.7237      46.7237 
   82000    127.20827   -8709.8073   -7821.7592   -791.57437     102002.7      46.7237      46.7237      46.7237 
   83000    127.48576   -8673.2483    -7783.263   -954.06834     102002.7      46.7237      46.7237      46.7237 
   84000    130.01471   -8652.3632   -7744.7231   -1023.8563     102002.7      46.7237      46.7237      46.7237 
   85000    131.53673   -8692.1334    -7773.868   -433.41113     102002.7      46.7237      46.7237      46.7237 
   86000    131.80665   -8700.1831   -7780.0334   -925.42821     102002.7      46.7237      46.7237      46.7237 
   87000    129.58174   -8670.4175   -7765.7999   -904.51337     102002.7      46.7237      46.7237      46.7237 
   88000    133.06604    -8711.487   -7782.5454   -527.98515     102002.7      46.7237      46.7237      46.7237 
   89000    129.56198   -8686.1354   -7781.6558   -801.42333     102002.7      46.7237      46.7237      46.7237 
   90000    129.44345   -8705.9634   -7802.3113   -596.30883     102002.7      46.7237      46.7237      46.7237 
   91000    129.17504   -8686.6426   -7784.8642   -704.99751     102002.7      46.7237      46.7237      46.7237 
   92000    128.32708   -8713.8616   -7818.0029   -866.88177     102002.7      46.7237      46.7237      46.7237 
   93000    130.57805   -8679.5006   -7767.9277   -910.76253     102002.7      46.7237      46.7237      46.7237 
   94000    131.64414   -8695.0183   -7776.0031   -1006.7225     102002.7      46.7237      46.7237      46.7237 
   95000    132.17956   -8690.5486   -7767.7955   -668.55072     102002.7      46.7237      46.7237      46.7237 
   96000    129.82781   -8713.8197   -7807.4844     -1024.69     102002.7      46.7237      46.7237      46.7237 
   97000     128.6166   -8716.0262   -7818.1464   -629.39654     102002.7      46.7237      46.7237      46.7237 
   98000    130.00993   -8681.0691   -7773.4624   -1125.6571     102002.7      46.7237      46.7237      46.7237 
   99000      127.788   -8711.4127   -7819.3174   -824.78794     102002.7      46.7237      46.7237      46.7237 
  100000     132.9245   -8703.0095    -7775.056   -800.17168     102002.7      46.7237      46.7237      46.7237 
  101000     128.8058   -8706.9091   -7807.7085   -1034.8889     102002.7      46.7237      46.7237      46.7237 
  102000    129.89166   -8664.1015   -7757.3204   -870.11097     102002.7      46.7237      46.7237      46.7237 
  103000    128.59067   -8718.1079   -7820.4091   -957.43595     102002.7      46.7237      46.7237      46.7237 
  104000    127.57751   -8681.7782   -7791.1524   -879.46468     102002.7      46.7237      46.7237      46.7237 
  105000    131.70098   -8693.9192   -7774.5072     -756.529     102002.7      46.7237      46.7237      46.7237 
  106000    132.00421   -8679.1372   -7757.6083   -643.78591     102002.7      46.7237      46.7237      46.7237 
  107000    128.36961   -8687.3349   -7791.1793   -925.95888     102002.7      46.7237      46.7237      46.7237 
  108000     128.7583   -8674.6741    -7775.805   -735.82831     102002.7      46.7237      46.7237      46.7237 
  109000    129.78157   -8719.4166   -7813.4041   -787.38264     102002.7      46.7237      46.7237      46.7237 
  110000    130.14028   -8706.3376   -7797.8209   -1199.7138     102002.7      46.7237      46.7237      46.7237 
  111000    131.57777   -8705.5192   -7786.9673   -433.16224     102002.7      46.7237      46.7237      46.7237 
  112000    128.72649   -8695.0416   -7796.3946   -1067.4929     102002.7      46.7237      46.7237      46.7237 
  113000    127.50367   -8695.9743   -7805.8638   -724.22532     102002.7      46.7237      46.7237      46.7237 
  114000    124.85181     -8694.98   -7823.3824   -1094.9075     102002.7      46.7237      46.7237      46.7237 
  115000      127.713   -8700.0211   -7808.4493   -1169.0166     102002.7      46.7237      46.7237      46.7237 
  116000    134.36242   -8695.5815   -7757.5897   -760.28555     102002.7      46.7237      46.7237      46.7237 
  117000    129.38343   -8687.5507   -7784.3176   -684.63729     102002.7      46.7237      46.7237      46.7237 
  118000    132.79029   -8680.9283   -7753.9117    -591.3606     102002.7      46.7237      46.7237      46.7237 
  119000    130.52141   -8706.5602   -7795.3828   -782.87727     102002.7      46.7237      46.7237      46.7237 
  120000    130.28577   -8722.5553   -7813.0229   -853.04513     102002.7      46.7237      46.7237      46.7237 
  121000    129.75711   -8698.4017   -7792.5599   -889.15952     102002.7      46.7237      46.7237      46.7237 
  122000    130.80006   -8670.7081   -7757.5854   -1043.7576     102002.7      46.7237      46.7237      46.7237 
  123000    129.82076   -8709.1865   -7802.9003    -745.8484     102002.7      46.7237      46.7237      46.7237 
  124000    127.33535   -8710.3839   -7821.4486   -699.72154     102002.7      46.7237      46.7237      46.7237 
  125000    129.67998    -8714.499   -7809.1957   -1047.8233     102002.7      46.7237      46.7237      46.7237 
  126000    128.84113   -8691.7263    -7792.279    -829.6184     102002.7      46.7237      46.7237      46.7237 
  127000    133.32168   -8696.5393   -7765.8131   -754.64162     102002.7      46.7237      46.7237      46.7237 
  128000    131.41845   -8711.3329   -7793.8932   -922.08429     102002.7      46.7237      46.7237      46.7237 
  129000    131.18493    -8710.329   -7794.5195   -609.00976     102002.7      46.7237      46.7237      46.7237 
  130000    133.22151   -8667.0122   -7736.9853   -602.35695     102002.7      46.7237      46.7237      46.7237 
  131000    131.44033   -8701.6622   -7784.0698   -839.88351     102002.7      46.7237      46.7237      46.7237 
  132000     128.6301    -8695.602   -7797.6279   -740.53935     102002.7      46.7237      46.7237      46.7237 
  133000    128.50122   -8684.7254    -7787.651   -837.02245     102002.7      46.7237      46.7237      46.7237 
  134000    131.24411   -8680.9574   -7764.7348   -712.03407     102002.7      46.7237      46.7237      46.7237 
  135000    132.74321   -8671.6132   -7744.9253    -620.7247     102002.7      46.7237      46.7237      46.7237 
  136000    129.72038   -8683.7219   -7778.1365   -876.61714     102002.7      46.7237      46.7237      46.7237 
  137000    129.39816   -8712.9185   -7809.5826   -665.36013     102002.7      46.7237      46.7237      46.7237 
  138000    129.41819   -8679.2425   -7775.7667   -769.01745     102002.7      46.7237      46.7237      46.7237 
  139000    126.59944   -8680.0381   -7796.2402   -850.04724     102002.7      46.7237      46.7237      46.7237 
  140000    131.26661   -8685.0931   -7768.7134   -754.87094     102002.7      46.7237      46.7237      46.7237 
  141000    131.35418   -8729.3962   -7812.4052    -649.5597     102002.7      46.7237      46.7237      46.7237 
  142000     134.9711   -8700.0512   -7757.8103   -780.37818     102002.7      46.7237      46.7237      46.7237 
  143000    132.97379   -8713.9498   -7785.6521   -803.85315     102002.7      46.7237      46.7237      46.7237 
  144000    127.81171   -8708.2881   -7816.0272   -723.04966     102002.7      46.7237      46.7237      46.7237 
  145000    131.51779   -8702.8058   -7784.6726    -757.1395     102002.7      46.7237      46.7237      46.7237 
  146000    129.17356   -8685.1376   -7783.3696   -478.85204     102002.7      46.7237      46.7237      46.7237 
  147000    129.86599   -8715.8732   -7809.2713   -416.97087     102002.7      46.7237      46.7237      46.7237 
  148000    129.63843   -8679.0612   -7774.0479   -403.70214     102002.7      46.7237      46.7237      46.7237 
  149000    127.27939   -8721.8832   -7833.3385      -528.89     102002.7      46.7237      46.7237      46.7237 
  150000     125.6986   -8726.0628   -7848.5537   -500.75226     102002.7      46.7237      46.7237      46.7237 
  151000    128.21083   -8687.9944   -7792.9472   -851.38528     102002.7      46.7237      46.7237      46.7237 
  152000    128.02999    -8692.875   -7799.0903   -670.28394     102002.7      46.7237      46.7237      46.7237 
  153000    130.84249    -8718.666   -7805.2471     -551.279     102002.7      46.7237      46.7237      46.7237 
  154000    130.67965   -8694.5538   -7782.2716   -891.09314     102002.7      46.7237      46.7237      46.7237 
  155000    128.53178   -8696.1376   -7798.8499   -894.81572     102002.7      46.7237      46.7237      46.7237 
  156000    131.07318   -8665.3673   -7750.3379   -952.25424     102002.7      46.7237      46.7237      46.7237 
  157000    129.52605   -8708.8785   -7804.6498   -648.60029     102002.7      46.7237      46.7237      46.7237 
  158000    130.73464   -8708.6495   -7795.9835   -708.64947     102002.7      46.7237      46.7237      46.7237 
  159000    132.81134   -8704.2037   -7777.0402   -496.75232     102002.7      46.7237      46.7237      46.7237 
  160000    130.02001   -8700.3685   -7792.6914    -620.8342     102002.7      46.7237      46.7237      46.7237 
  161000    125.55754   -8706.5194   -7829.9951   -573.90959     102002.7      46.7237      46.7237      46.7237 
  162000    126.34442   -8690.2081   -7808.1905   -541.18074     102002.7      46.7237      46.7237      46.7237 
  163000    129.06813   -8713.1347   -7812.1027   -724.25054     102002.7      46.7237      46.7237      46.7237 
  164000    130.57192   -8706.5844   -7795.0544   -648.66786     102002.7      46.7237      46.7237      46.7237 
  165000    134.79768   -8691.2889   -7750.2587   -770.86927     102002.7      46.7237      46.7237      46.7237 
  166000    133.29322    -8691.163   -7760.6354   -936.14003     102002.7      46.7237      46.7237      46.7237 
  167000    128.49113   -8734.2429   -7837.2389   -625.60912     102002.7      46.7237      46.7237      46.7237 
  168000    126.88217   -8708.4589   -7822.6873    -933.7851     102002.7      46.7237      46.7237      46.7237 
  169000    132.93554    -8715.672   -7787.6414   -738.19345     102002.7      46.7237      46.7237      46.7237 
  170000    128.08804   -8738.8926   -7844.7027   -957.90582     102002.7      46.7237      46.7237      46.7237 
  171000    131.22942    -8720.295   -7804.1749   -925.95401     102002.7      46.7237      46.7237      46.7237 
  172000    129.28816   -8728.7317   -7826.1636   -647.66228     102002.7      46.7237      46.7237      46.7237 
  173000    129.68355   -8690.2351   -7784.9068   -674.76982     102002.7      46.7237      46.7237      46.7237 
  174000    128.06803   -8699.5093   -7805.4591   -724.41354     102002.7      46.7237      46.7237      46.7237 
  175000    131.42714   -8734.8578   -7817.3574   -755.33827     102002.7      46.7237      46.7237      46.7237 
  176000    132.03201   -8725.0295   -7803.3065   -746.53714     102002.7      46.7237      46.7237      46.7237 
  177000    131.02403   -8679.8508   -7765.1645   -731.02759     102002.7      46.7237      46.7237      46.7237 
  178000    128.62081   -8692.9713   -7795.0621   -682.26607     102002.7      46.7237      46.7237      46.7237 
  179000    131.59284   -8700.2123   -7781.5552   -1096.1168     102002.7      46.7237      46.7237      46.7237 
  180000    127.27187   -8707.8336   -7819.3414   -1019.3594     102002.7      46.7237      46.7237      46.7237 
  181000    130.34727   -8691.7173   -7781.7556   -741.07872     102002.7      46.7237      46.7237      46.7237 
  182000    130.91164   -8687.9538   -7774.0522   -410.95948     102002.7      46.7237      46.7237      46.7237 
  183000    130.35103   -8703.8088   -7793.8208   -515.50193     102002.7      46.7237      46.7237      46.7237 
  184000    128.77505    -8704.879   -7805.8931   -699.23439     102002.7      46.7237      46.7237      46.7237 
  185000    132.12563   -8712.8448   -7790.4682   -596.20791     102002.7      46.7237      46.7237      46.7237 
  186000    126.20751   -8733.7707   -7852.7089   -836.76689     102002.7      46.7237      46.7237      46.7237 
  187000    127.30259   -8707.4065   -7818.6998    -680.4473     102002.7      46.7237      46.7237      46.7237 
  188000    131.38718   -8708.4875   -7791.2661   -736.11557     102002.7      46.7237      46.7237      46.7237 
  189000    132.58006   -8682.0688   -7756.5198   -936.10723     102002.7      46.7237      46.7237      46.7237 
  190000     129.5749   -8716.6237   -7812.0539   -1060.3706     102002.7      46.7237      46.7237      46.7237 
  191000    128.85312   -8700.5552   -7801.0242   -767.92974     102002.7      46.7237      46.7237      46.7237 
  192000    127.75197   -8705.1946   -7813.3508   -619.65294     102002.7      46.7237      46.7237      46.7237 
  193000     133.9322   -8698.9675   -7763.9791   -736.56509     102002.7      46.7237      46.7237      46.7237 
  194000    132.67541   -8701.5105   -7775.2959   -752.09413     102002.7      46.7237      46.7237      46.7237 
  195000    131.96677   -8719.4086    -7798.141   -672.53146     102002.7      46.7237      46.7237      46.7237 
  196000    129.66503   -8695.8233   -7790.6243    -764.3509     102002.7      46.7237      46.7237      46.7237 
  197000    127.94038   -8739.6936   -7846.5346   -660.31928     102002.7      46.7237      46.7237      46.7237 
  198000    130.19569   -8690.2021   -7781.2985   -631.29325     102002.7      46.7237      46.7237      46.7237 
  199000     130.8471   -8670.1511      -7756.7   -786.24515     102002.7      46.7237      46.7237      46.7237 
  200000    129.69411   -8700.1591   -7794.7571   -688.78422     102002.7      46.7237      46.7237      46.7237 
  201000    126.71137   -8717.7771   -7833.1978   -679.30213     102002.7      46.7237      46.7237      46.7237 
  202000    131.37494   -8727.9001   -7810.7642   -557.74331     102002.7      46.7237      46.7237      46.7237 
  203000    131.91962   -8671.5862   -7750.6478   -940.95602     102002.7      46.7237      46.7237      46.7237 
  204000    128.15792   -8715.8433   -7821.1655   -709.21063     102002.7      46.7237      46.7237      46.7237 
  205000    133.71941    -8683.381   -7749.8782   -626.59155     102002.7      46.7237      46.7237      46.7237 
  206000    130.30059   -8713.4162   -7803.7803   -433.80009     102002.7      46.7237      46.7237      46.7237 
  207000    130.88226   -8688.1877   -7774.4912   -747.77378     102002.7      46.7237      46.7237      46.7237 
  208000    129.75122   -8729.3297    -7823.529   -897.24784     102002.7      46.7237      46.7237      46.7237 
  209000    134.96896   -8711.3167   -7769.0907   -732.37285     102002.7      46.7237      46.7237      46.7237 
  210000     130.9226   -8698.5445   -7784.5664   -954.15996     102002.7      46.7237      46.7237      46.7237 
  211000    129.06284   -8718.0092   -7817.0141    -767.8189     102002.7      46.7237      46.7237      46.7237 
  212000    131.17294   -8720.4083   -7804.6825   -682.06723     102002.7      46.7237      46.7237      46.7237 
  213000    133.53644   -8714.3624   -7782.1369   -591.56147     102002.7      46.7237      46.7237      46.7237 
  214000    128.37519   -8683.9977   -7787.8031   -817.32486     102002.7      46.7237      46.7237      46.7237 
  215000    130.47485   -8684.6966   -7773.8442   -816.05525     102002.7      46.7237      46.7237      46.7237 
  216000    132.80494   -8667.3214   -7740.2025   -866.37097     102002.7      46.7237      46.7237      46.7237 
  217000     128.7365   -8708.2588    -7809.542   -777.40585     102002.7      46.7237      46.7237      46.7237 
  218000    127.28223   -8725.3012   -7836.7367   -684.85316     102002.7      46.7237      46.7237      46.7237 
  219000    131.76271   -8690.8145   -7770.9715   -1050.5315     102002.7      46.7237      46.7237      46.7237 
  220000    129.79767   -8685.3008   -7779.1758   -620.01349     102002.7      46.7237      46.7237      46.7237 
  221000    126.51912   -8737.9299   -7854.6927   -764.32128     102002.7      46.7237      46.7237      46.7237 
  222000    129.70446    -8716.172   -7810.6978    -930.3692     102002.7      46.7237      46.7237      46.7237 
  223000    130.66895   -8688.5674     -7776.36   -687.84055     102002.7      46.7237      46.7237      46.7237 
  224000    132.72257   -8686.1029   -7759.5591   -613.78513     102002.7      46.7237      46.7237      46.7237 
  225000     130.2999   -8695.4543   -7785.8232   -505.79332     102002.7      46.7237      46.7237      46.7237 
  226000    131.84079   -8681.6507   -7761.2626    -335.9101     102002.7      46.7237      46.7237      46.7237 
  227000    128.23694   -8722.0222   -7826.7928   -869.94227     102002.7      46.7237      46.7237      46.7237 
  228000     130.4238   -8710.9754   -7800.4794   -1021.8366     102002.7      46.7237      46.7237      46.7237 
  229000    132.88678   -8691.3354   -7763.6452   -952.88413     102002.7      46.7237      46.7237      46.7237 
  230000    127.77355   -8712.6109   -7820.6164   -740.88041     102002.7      46.7237      46.7237      46.7237 
  231000    130.75108   -8702.9165   -7790.1358   -865.87801     102002.7      46.7237      46.7237      46.7237 
  232000    125.79635   -8720.1985    -7842.007   -905.92817     102002.7      46.7237      46.7237      46.7237 
  233000     126.8914   -8701.0953   -7815.2592   -1047.1762     102002.7      46.7237      46.7237      46.7237 
  234000    130.65345   -8668.0182    -7755.919   -985.83564     102002.7      46.7237      46.7237      46.7237 
  235000    131.18178   -8672.8641   -7757.0766    -883.4946     102002.7      46.7237      46.7237      46.7237 
  236000    127.98307   -8684.4465   -7790.9894   -812.93257     102002.7      46.7237      46.7237      46.7237 
  237000    127.35279   -8670.4064   -7781.3493   -714.00513     102002.7      46.7237      46.7237      46.7237 
  238000     133.6984   -8695.6697   -7762.3135   -615.66182     102002.7      46.7237      46.7237      46.7237 
  239000    129.64251   -8699.2064   -7794.1647   -714.43906     102002.7      46.7237      46.7237      46.7237 
  240000    129.10236   -8692.5756   -7791.3046   -857.91771     102002.7      46.7237      46.7237      46.7237 
  241000    128.85712   -8694.9684   -7795.4094   -747.94258     102002.7      46.7237      46.7237      46.7237 
  242000    129.10008   -8712.8906   -7811.6356   -1004.7349     102002.7      46.7237      46.7237      46.7237 
  243000    129.44301   -8695.5223   -7791.8732   -884.33863     102002.7      46.7237      46.7237      46.7237 
  244000    125.77202   -8714.5915   -7836.5699   -801.92791     102002.7      46.7237      46.7237      46.7237 
  245000    131.67428   -8676.5166   -7757.2909   -555.36995     102002.7      46.7237      46.7237      46.7237 
  246000     131.0965   -8704.0244   -7788.8322   -648.54949     102002.7      46.7237      46.7237      46.7237 
  247000    130.99788   -8735.2701   -7820.7665   -760.42243     102002.7      46.7237      46.7237      46.7237 
  248000    128.01402   -8722.2283   -7828.5551   -705.15177     102002.7      46.7237      46.7237      46.7237 
  249000    127.53262    -8679.304   -7788.9915   -639.71883     102002.7      46.7237      46.7237      46.7237 
  250000    131.30729   -8704.7525   -7788.0888   -458.12871     102002.7      46.7237      46.7237      46.7237 
  251000    128.96656   -8731.4669   -7831.1439   -491.89036     102002.7      46.7237      46.7237      46.7237 
  252000    127.45941   -8695.1671   -7805.3657   -1084.6268     102002.7      46.7237      46.7237      46.7237 
  253000    133.59256   -8689.4095   -7756.7922    -803.2147     102002.7      46.7237      46.7237      46.7237 
  254000    132.55454   -8689.8513   -7764.4804   -908.10371     102002.7      46.7237      46.7237      46.7237 
  255000    130.26592   -8704.2114   -7794.8175    -980.7082     102002.7      46.7237      46.7237      46.7237 
  256000     131.8188    -8692.133   -7771.8984   -822.25824     102002.7      46.7237      46.7237      46.7237 
  257000    124.62485   -8706.9668   -7836.9536   -611.99789     102002.7      46.7237      46.7237      46.7237 
  258000    127.01528   -8684.7056   -7798.0046   -1015.7475     102002.7      46.7237      46.7237      46.7237 
  259000    130.85045   -8689.7982   -7776.3238   -849.60277     102002.7      46.7237      46.7237      46.7237 
  260000    128.44829   -8700.6505   -7803.9456   -988.23608     102002.7      46.7237      46.7237      46.7237 
  261000    137.57555   -8710.4483   -7750.0255   -864.47117     102002.7      46.7237      46.7237      46.7237 
  262000    126.50573   -8692.5402   -7809.3965   -593.01415     102002.7      46.7237      46.7237      46.7237 
  263000    127.21918   -8684.5606   -7796.4363   -916.22641     102002.7      46.7237      46.7237      46.7237 
  264000    130.10985   -8690.6047   -7782.3004   -837.72888     102002.7      46.7237      46.7237      46.7237 
  265000    133.57994   -8686.3155   -7753.7863    -875.7484     102002.7      46.7237      46.7237      46.7237 
  266000     129.3949    -8692.894   -7789.5808   -798.97277     102002.7      46.7237      46.7237      46.7237 
  267000    133.25608   -8713.9047   -7783.6364   -1028.8423     102002.7      46.7237      46.7237      46.7237 
  268000    132.16938   -8677.3945   -7754.7125   -1085.6647     102002.7      46.7237      46.7237      46.7237 
  269000    127.48205   -8706.5685    -7816.609   -854.44645     102002.7      46.7237      46.7237      46.7237 
  270000    132.90889   -8721.2771   -7793.4326   -715.10846     102002.7      46.7237      46.7237      46.7237 
  271000    131.70092   -8693.9165   -7774.5049   -743.00493     102002.7      46.7237      46.7237      46.7237 
  272000    130.35577    -8676.526   -7766.5049   -780.02688     102002.7      46.7237      46.7237      46.7237 
  273000    127.19898   -8686.1367   -7798.1534   -910.62786     102002.7      46.7237      46.7237      46.7237 
  274000     130.6722   -8683.9944   -7771.7644   -1135.2342     102002.7      46.7237      46.7237      46.7237 
  275000    130.35853   -8687.4551   -7777.4148   -568.71343     102002.7      46.7237      46.7237      46.7237 
  276000    127.33736    -8684.532   -7795.5826     -626.166     102002.7      46.7237      46.7237      46.7237 
  277000    127.32897   -8705.4102   -7816.5194   -683.32011     102002.7      46.7237      46.7237      46.7237 
  278000    129.68166   -8693.0628   -7787.7477   -608.14601     102002.7      46.7237      46.7237      46.7237 
  279000    131.03878   -8739.1939   -7824.4046   -882.56146     102002.7      46.7237      46.7237      46.7237 
  280000    130.47128   -8692.6061   -7781.7786   -759.36531     102002.7      46.7237      46.7237      46.7237 
  281000    131.29867    -8730.369   -7813.7655   -950.83413     102002.7      46.7237      46.7237      46.7237 
  282000    126.89845   -8661.1112   -7775.2259   -993.05869     102002.7      46.7237      46.7237      46.7237 
  283000    128.70117   -8701.5364   -7803.0662   -983.85374     102002.7      46.7237      46.7237      46.7237 
  284000    129.76245   -8699.8486   -7793.9695   -689.59805     102002.7      46.7237      46.7237      46.7237 
  285000     134.9019   -8711.2398   -7769.4819   -956.25159     102002.7      46.7237      46.7237      46.7237 
  286000    132.67594   -8688.1663    -7761.948   -842.54818     102002.7      46.7237      46.7237      46.7237 
  287000      125.748   -8712.2441   -7834.3901   -930.20189     102002.7      46.7237      46.7237      46.7237 
  288000    129.80435   -8698.0951   -7791.9235   -754.12232     102002.7      46.7237      46.7237      46.7237 
  289000    130.10877   -8707.2331   -7798.9364   -661.99791     102002.7      46.7237      46.7237      46.7237 
  290000    129.30863   -8700.0628   -7797.3519   -747.63516     102002.7      46.7237      46.7237      46.7237 
  291000    131.07156    -8709.483    -7794.465    -856.4726     102002.7      46.7237      46.7237      46.7237 
  292000    128.18478   -8668.7067   -7773.8414    -740.5988     102002.7      46.7237      46.7237      46.7237 
  293000    127.52877   -8692.7844   -7802.4988   -611.84452     102002.7      46.7237      46.7237      46.7237 
  294000    128.18455   -8728.5667    -7833.703   -801.09399     102002.7      46.7237      46.7237      46.7237 
  295000    128.27686   -8674.2897   -7778.7816   -863.59493     102002.7      46.7237      46.7237      46.7237 
  296000    130.56691   -8702.5191    -7791.024   -753.86055     102002.7      46.7237      46.7237      46.7237 
  297000    132.05701   -8689.9039   -7768.0063   -807.65649     102002.7      46.7237      46.7237      46.7237 
  298000    128.95629   -8723.2136   -7822.9623   -878.40956     102002.7      46.7237      46.7237      46.7237 
  299000    130.22817    -8701.417   -7792.2867   -1141.2226     102002.7      46.7237      46.7237      46.7237 
  300000    129.27423   -8675.5107   -7773.0398   -727.52677     102002.7      46.7237      46.7237      46.7237 
  301000    129.80113   -8705.5362   -7799.3871   -1027.2742     102002.7      46.7237      46.7237      46.7237 
  302000    131.78535   -8675.3272   -7755.3261   -1171.9989     102002.7      46.7237      46.7237      46.7237 
  303000     132.7664   -8709.8391   -7782.9893   -859.47465     102002.7      46.7237      46.7237      46.7237 
  304000    127.78529   -8719.7851   -7827.7086   -1167.6901     102002.7      46.7237      46.7237      46.7237 
  305000    126.92483   -8686.8826   -7800.8132   -958.60627     102002.7      46.7237      46.7237      46.7237 
  306000    129.52266   -8697.3101   -7793.1051    -763.0268     102002.7      46.7237      46.7237      46.7237 
  307000     129.8428   -8699.9799     -7793.54   -1123.9673     102002.7      46.7237      46.7237      46.7237 
  308000    131.91305   -8712.9055   -7792.0129   -768.59171     102002.7      46.7237      46.7237      46.7237 
  309000    127.46274   -8726.4249   -7836.6002   -986.33536     102002.7      46.7237      46.7237      46.7237 
  310000    132.01294   -8706.3716   -7784.7817   -927.03111     102002.7      46.7237      46.7237      46.7237 
  311000    130.62711   -8698.8275   -7786.9122   -916.29162     102002.7      46.7237      46.7237      46.7237 
  312000    126.47401    -8700.341   -7817.4187   -961.73197     102002.7      46.7237      46.7237      46.7237 
  313000     132.3991   -8678.4111   -7754.1254   -1041.6139     102002.7      46.7237      46.7237      46.7237 
  314000    129.92687   -8740.8434   -7833.8165   -1074.2953     102002.7      46.7237      46.7237      46.7237 
  315000    127.65032   -8660.3649   -7769.2308   -803.06677     102002.7      46.7237      46.7237      46.7237 
  316000    129.42188   -8671.8309   -7768.3294   -1215.6022     102002.7      46.7237      46.7237      46.7237 
  317000    129.04065   -8706.8887   -7806.0486   -699.18484     102002.7      46.7237      46.7237      46.7237 
  318000    127.27517   -8710.1613   -7821.6461   -635.70786     102002.7      46.7237      46.7237      46.7237 
  319000    129.18454   -8702.1704   -7800.3257   -517.50062     102002.7      46.7237      46.7237      46.7237 
  320000    128.11774   -8736.9901   -7842.5928   -556.61637     102002.7      46.7237      46.7237      46.7237 
  321000    130.86325   -8727.9966   -7814.4328   -412.42677     102002.7      46.7237      46.7237      46.7237 
  322000    132.97984   -8689.4471   -7761.1073   -671.55437     102002.7      46.7237      46.7237      46.7237 
  323000    133.38789   -8715.6297   -7784.4412   -683.86005     102002.7      46.7237      46.7237      46.7237 
  324000    130.42523   -8712.1733   -7801.6673   -806.16557     102002.7      46.7237      46.7237      46.7237 
  325000    129.08074   -8736.3107   -7835.1906   -717.90799     102002.7      46.7237      46.7237      46.7237 
  326000    129.19962   -8695.4522   -7793.5023   -990.79657     102002.7      46.7237      46.7237      46.7237 
  327000    127.74121   -8710.9237    -7819.155   -748.55265     102002.7      46.7237      46.7237      46.7237 
  328000     129.0923   -8684.3986   -7783.1979   -741.66538     102002.7      46.7237      46.7237      46.7237 
  329000    129.25568   -8713.9423    -7811.601    -788.9345     102002.7      46.7237      46.7237      46.7237 
  330000    130.19732   -8692.4152   -7783.5003    -831.9487     102002.7      46.7237      46.7237      46.7237 
  331000    125.70938   -8696.0737   -7818.4894   -898.52166     102002.7      46.7237      46.7237      46.7237 
  332000    132.04981   -8739.2854   -7817.4381   -868.61783     102002.7      46.7237      46.7237      46.7237 
  333000    130.83662   -8700.8608   -7787.4829   -1012.7207     102002.7      46.7237      46.7237      46.7237 
  334000    125.29815   -8689.6979   -7814.9843   -967.54363     102002.7      46.7237      46.7237      46.7237 
  335000    130.55865   -8725.6337   -7814.1963   -1040.2657     102002.7      46.7237      46.7237      46.7237 
  336000    130.36625   -8669.1247   -7759.0305   -1103.7456     102002.7      46.7237      46.7237      46.7237 
  337000     130.0183   -8712.3959   -7804.7308   -1036.0274     102002.7      46.7237      46.7237      46.7237 
  338000    132.94774   -8674.8625   -7746.7467    -717.2461     102002.7      46.7237      46.7237      46.7237 
  339000    130.44113   -8719.4508   -7808.8338   -630.08537     102002.7      46.7237      46.7237      46.7237 
  340000    133.45001   -8683.0974   -7751.4753   -856.75517     102002.7      46.7237      46.7237      46.7237 
  341000    130.28069   -8710.0583   -7800.5613   -767.38985     102002.7      46.7237      46.7237      46.7237 
  342000    128.19844   -8699.8797    -7804.919   -597.89586     102002.7      46.7237      46.7237      46.7237 
  343000    134.70763   -8679.2739   -7738.8722   -1064.7604     102002.7      46.7237      46.7237      46.7237 
  344000    128.82013   -8691.2054   -7791.9047   -327.60605     102002.7      46.7237      46.7237      46.7237 
  345000    126.41515   -8677.6124    -7795.101   -540.61044     102002.7      46.7237      46.7237      46.7237 
  346000     129.0474   -8694.1668   -7793.2795   -508.96027     102002.7      46.7237      46.7237      46.7237 
  347000    128.29801   -8711.4606   -7815.8049   -586.52968     102002.7      46.7237      46.7237      46.7237 
  348000    128.31711   -8678.5117   -7782.7227   -626.84071     102002.7      46.7237      46.7237      46.7237 
  349000    129.54584   -8690.1735   -7785.8066   -885.66497     102002.7      46.7237      46.7237      46.7237 
  350000    131.21756   -8685.8188   -7769.7816   -1035.6424     102002.7      46.7237      46.7237      46.7237 
  351000    131.26219   -8694.7052   -7778.3564   -685.34527     102002.7      46.7237      46.7237      46.7237 
  352000    129.59675   -8704.5013    -7799.779   -530.24125     102002.7      46.7237      46.7237      46.7237 
  353000    129.40265   -8700.0381   -7796.6709   -1032.7189     102002.7      46.7237      46.7237      46.7237 
  354000    128.11989    -8715.319   -7820.9068   -1145.2976     102002.7      46.7237      46.7237      46.7237 
  355000    130.69227   -8679.5293   -7767.1591   -1042.9331     102002.7      46.7237      46.7237      46.7237 
  356000    130.15081   -8725.6588   -7817.0685   -936.42828     102002.7      46.7237      46.7237      46.7237 
  357000    130.81639   -8704.2036   -7790.9669   -748.59278     102002.7      46.7237      46.7237      46.7237 
  358000    131.49903   -8700.7765   -7782.7743   -915.78659     102002.7      46.7237      46.7237      46.7237 
  359000    132.74365   -8702.0427   -7775.3517   -929.36147     102002.7      46.7237      46.7237      46.7237 
  360000    128.49426   -8687.9934   -7790.9676   -1138.9339     102002.7      46.7237      46.7237      46.7237 
  361000    127.64555   -8722.6721   -7831.5713   -837.07599     102002.7      46.7237      46.7237      46.7237 
  362000    127.80204    -8705.343   -7813.1496   -884.37895     102002.7      46.7237      46.7237      46.7237 
  363000    127.51667   -8706.9376   -7816.7364   -906.46718     102002.7      46.7237      46.7237      46.7237 
  364000    130.44506   -8716.1829   -7805.5384   -1034.6504     102002.7      46.7237      46.7237      46.7237 
  365000    131.43495   -8711.6538    -7794.099   -745.26244     102002.7      46.7237      46.7237      46.7237 
  366000     127.6541   -8716.2012   -7825.0407   -835.99706     102002.7      46.7237      46.7237      46.7237 
  367000    134.09212   -8699.3771   -7763.2724   -933.18237     102002.7      46.7237      46.7237      46.7237 
  368000    132.63263   -8735.3983   -7809.4823   -952.18163     102002.7      46.7237      46.7237      46.7237 
  369000    131.22099   -8699.2044   -7783.1431   -702.19618     102002.7      46.7237      46.7237      46.7237 
  370000    135.48059   -8685.2062   -7739.4085   -909.99731     102002.7      46.7237      46.7237      46.7237 
  371000    130.61612   -8714.2724   -7802.4338   -826.77628     102002.7      46.7237      46.7237      46.7237 
  372000    126.01157   -8685.3375   -7805.6435    -868.9236     102002.7      46.7237      46.7237      46.7237 
  373000    126.27941   -8727.3776   -7845.8138   -1006.2422     102002.7      46.7237      46.7237      46.7237 
  374000    130.47944   -8681.6344   -7770.7499   -734.19667     102002.7      46.7237      46.7237      46.7237 
  375000    125.96808   -8691.8601   -7812.4698   -834.13619     102002.7      46.7237      46.7237      46.7237 
  376000     126.0158   -8655.2085    -7775.485   -283.33719     102002.7      46.7237      46.7237      46.7237 
  377000    132.36531   -8706.0597   -7782.0099   -875.10119     102002.7      46.7237      46.7237      46.7237 
  378000    132.07587   -8725.4164   -7803.3872   -814.35693     102002.7      46.7237      46.7237      46.7237 
  379000     131.9002   -8722.6409    -7801.838   -604.08923     102002.7      46.7237      46.7237      46.7237 
  380000    132.81926    -8709.638   -7782.4191   -556.58125     102002.7      46.7237      46.7237      46.7237 
  381000    129.71554   -8753.1095   -7847.5579   -642.94517     102002.7      46.7237      46.7237      46.7237 
  382000    126.64866   -8692.6613   -7808.5198   -819.95123     102002.7      46.7237      46.7237      46.7237 
  383000    132.45619    -8704.502   -7779.8177   -854.74296     102002.7      46.7237      46.7237      46.7237 
  384000    131.30897   -8681.3505    -7764.675   -1018.1389     102002.7      46.7237      46.7237      46.7237 
  385000    128.53676   -8706.3877   -7809.0652   -742.11634     102002.7      46.7237      46.7237      46.7237 
  386000     129.3346   -8712.1919   -7809.2997    -812.9668     102002.7      46.7237      46.7237      46.7237 
  387000    133.54632     -8688.45   -7756.1555    -804.5636     102002.7      46.7237      46.7237      46.7237 
  388000    130.39305   -8690.9994    -7780.718   -463.08689     102002.7      46.7237      46.7237      46.7237 
  389000    130.00355   -8699.2493   -7791.6872   -736.48548     102002.7      46.7237      46.7237      46.7237 
  390000    130.73592   -8701.5566   -7788.8817   -717.18396     102002.7      46.7237      46.7237      46.7237 
  391000    129.16018   -8686.3426    -7784.668   -598.10592     102002.7      46.7237      46.7237      46.7237 
  392000    131.11069   -8708.9162   -7793.6249    -881.5333     102002.7      46.7237      46.7237      46.7237 
  393000     132.3781   -8686.8327   -7762.6936   -895.72446     102002.7      46.7237      46.7237      46.7237 
  394000     129.8046   -8690.8663    -7784.693   -714.93553     102002.7      46.7237      46.7237      46.7237 
  395000    130.93843   -8693.6478   -7779.5592    -829.3462     102002.7      46.7237      46.7237      46.7237 
  396000    128.33667   -8694.5244   -7798.5988   -1000.4737     102002.7      46.7237      46.7237      46.7237 
  397000    130.84817   -8701.1361   -7787.6776   -1040.5209     102002.7      46.7237      46.7237      46.7237 
  398000     126.1015   -8679.1831   -7798.8614    -499.0728     102002.7      46.7237      46.7237      46.7237 
  399000    132.09394   -8711.7021   -7789.5467   -720.68589     102002.7      46.7237      46.7237      46.7237 
  400000    126.09685   -8693.8556   -7813.5662   -787.31152     102002.7      46.7237      46.7237      46.7237 
  401000    129.92499   -8702.7541   -7795.7404   -1039.3233     102002.7      46.7237      46.7237      46.7237 
  402000    129.90545    -8733.301   -7826.4237   -1075.5286     102002.7      46.7237      46.7237      46.7237 
  403000    129.53792   -8699.9456   -7795.6339   -996.00185     102002.7      46.7237      46.7237      46.7237 
  404000    129.48071   -8710.4213   -7806.5091   -990.41142     102002.7      46.7237      46.7237      46.7237 
  405000    132.83836   -8680.8512    -7753.499   -964.74424     102002.7      46.7237      46.7237      46.7237 
  406000    129.70979   -8702.7689   -7797.2574   -522.94839     102002.7      46.7237      46.7237      46.7237 
  407000    129.03314    -8685.334   -7784.5463   -698.62797     102002.7      46.7237      46.7237      46.7237 
  408000    129.89816   -8707.5315    -7800.705   -859.11001     102002.7      46.7237      46.7237      46.7237 
  409000    129.13854   -8702.1131   -7800.5896   -787.19327     102002.7      46.7237      46.7237      46.7237 
  410000    129.78297   -8685.9873   -7779.9649   -788.47419     102002.7      46.7237      46.7237      46.7237 
  411000    131.61431   -8725.3385   -7806.5315   -1010.9048     102002.7      46.7237      46.7237      46.7237 
  412000    129.40923   -8705.8967   -7802.4834   -798.35634     102002.7      46.7237      46.7237      46.7237 
  413000    130.36871    -8680.756   -7770.6446   -704.70062     102002.7      46.7237      46.7237      46.7237 
  414000    134.39927   -8682.1277   -7743.8788   -656.79122     102002.7      46.7237      46.7237      46.7237 
  415000    129.48284   -8696.1824   -7792.2553   -728.05608     102002.7      46.7237      46.7237      46.7237 
  416000    129.56679   -8698.7153   -7794.2022   -1062.7548     102002.7      46.7237      46.7237      46.7237 
  417000    130.91787   -8695.6554   -7781.7102   -561.69915     102002.7      46.7237      46.7237      46.7237 
  418000    131.78914   -8684.0829   -7764.0553   -868.22462     102002.7      46.7237      46.7237      46.7237 
  419000    129.59565   -8690.1226    -7785.408   -696.78958     102002.7      46.7237      46.7237      46.7237 
  420000    130.70882   -8696.3812   -7783.8955   -778.97737     102002.7      46.7237      46.7237      46.7237 
  421000    128.66112   -8704.5704   -7806.3798   -736.37207     102002.7      46.7237      46.7237      46.7237 
  422000    127.99625   -8742.5929   -7849.0437   -427.48261     102002.7      46.7237      46.7237      46.7237 
  423000    128.77672   -8697.2752   -7798.2776   -415.43622     102002.7      46.7237      46.7237      46.7237 
  424000    129.79325   -8692.0313   -7785.9372    -661.3576     102002.7      46.7237      46.7237      46.7237 
  425000    130.24343   -8692.9716   -7783.7348   -961.46713     102002.7      46.7237      46.7237      46.7237 
  426000    128.12427   -8700.0306   -7805.5878    -608.3415     102002.7      46.7237      46.7237      46.7237 
  427000    129.99177   -8680.9221   -7773.4422   -682.19276     102002.7      46.7237      46.7237      46.7237 
  428000    134.70549   -8714.0296   -7773.6429   -655.40925     102002.7      46.7237      46.7237      46.7237 
  429000    129.71777   -8697.3002    -7791.733   -768.16516     102002.7      46.7237      46.7237      46.7237 
  430000    126.59857   -8709.4345   -7825.6427   -908.35935     102002.7      46.7237      46.7237      46.7237 
  431000    128.16118   -8715.5526   -7820.8521   -1088.2959     102002.7      46.7237      46.7237      46.7237 
  432000    132.22837   -8709.9228   -7786.8289   -465.80608     102002.7      46.7237      46.7237      46.7237 
  433000    131.42959   -8707.5994   -7790.0819   -1093.1303     102002.7      46.7237      46.7237      46.7237 
  434000    131.92971   -8722.1462   -7801.1374   -935.67075     102002.7      46.7237      46.7237      46.7237 
  435000    126.87161   -8707.2636   -7821.5656   -669.59734     102002.7      46.7237      46.7237      46.7237 
  436000    128.45816   -8693.8959   -7797.1221   -592.60387     102002.7      46.7237      46.7237      46.7237 
  437000    133.27068   -8705.1309   -7774.7607   -572.66206     102002.7      46.7237      46.7237      46.7237 
  438000    131.33006   -8703.3042   -7786.4815   -814.49962     102002.7      46.7237      46.7237      46.7237 
  439000    126.55745   -8714.5045   -7830.9997   -659.91429     102002.7      46.7237      46.7237      46.7237 
  440000    129.23913   -8728.6495   -7826.4237   -712.17256     102002.7      46.7237      46.7237      46.7237 
  441000    128.24939   -8717.4401   -7822.1238   -930.34688     102002.7      46.7237      46.7237      46.7237 
  442000    130.09459   -8723.0677   -7814.8699   -811.41788     102002.7      46.7237      46.7237      46.7237 
  443000    130.79143   -8696.2159   -7783.1535   -909.75582     102002.7      46.7237      46.7237      46.7237 
  444000    129.24457    -8714.024   -7811.7603   -679.72324     102002.7      46.7237      46.7237      46.7237 
  445000    129.82209   -8702.0778   -7795.7824   -1095.7909     102002.7      46.7237      46.7237      46.7237 
  446000    132.77339   -8695.2538   -7768.3552   -1016.7632     102002.7      46.7237      46.7237      46.7237 
  447000    125.97144   -8688.4534   -7809.0396   -557.27231     102002.7      46.7237      46.7237      46.7237 
  448000    129.07072   -8698.5178   -7797.4677   -679.42978     102002.7      46.7237      46.7237      46.7237 
  449000    129.71229   -8700.4759    -7794.947   -1021.3954     102002.7      46.7237      46.7237      46.7237 
  450000    130.22494   -8712.9447    -7803.837   -929.57116     102002.7      46.7237      46.7237      46.7237 
  451000    128.22017   -8722.7917   -7827.6794   -402.06003     102002.7      46.7237      46.7237      46.7237 
  452000    129.50315   -8685.6089     -7781.54   -775.91437     102002.7      46.7237      46.7237      46.7237 
  453000    130.48009   -8679.7172   -7768.8282   -637.35389     102002.7      46.7237      46.7237      46.7237 
  454000    126.09996   -8677.0404   -7796.7293   -485.12114     102002.7      46.7237      46.7237      46.7237 
  455000    131.32008   -8719.4139   -7802.6609   -583.46388     102002.7      46.7237      46.7237      46.7237 
  456000      130.545   -8676.9067   -7765.5646   -625.10989     102002.7      46.7237      46.7237      46.7237 
  457000    129.02305   -8698.0573     -7797.34    -630.2103     102002.7      46.7237      46.7237      46.7237 
  458000    126.76585   -8691.7706   -7806.8109    -853.6935     102002.7      46.7237      46.7237      46.7237 
  459000     130.9384   -8708.3256   -7794.2372   -849.85116     102002.7      46.7237      46.7237      46.7237 
  460000    130.91233   -8703.0825    -7789.176   -895.81501     102002.7      46.7237      46.7237      46.7237 
  461000    129.05489   -8734.0337   -7833.0942   -918.36924     102002.7      46.7237      46.7237      46.7237 
  462000    130.28022   -8729.6641   -7820.1704   -785.74747     102002.7      46.7237      46.7237      46.7237 
  463000    128.87477   -8737.9292   -7838.2471   -836.98277     102002.7      46.7237      46.7237      46.7237 
  464000    129.14033   -8708.7056   -7807.1695   -729.98935     102002.7      46.7237      46.7237      46.7237 
  465000    131.67538   -8713.0428   -7793.8094   -576.13322     102002.7      46.7237      46.7237      46.7237 
  466000    133.35763   -8696.2827   -7765.3054   -825.18268     102002.7      46.7237      46.7237      46.7237 
  467000    131.70646   -8707.4708   -7788.0205   -795.64751     102002.7      46.7237      46.7237      46.7237 
  468000    129.57468   -8703.4635   -7798.8952   -590.40228     102002.7      46.7237      46.7237      46.7237 
  469000    128.98444   -8723.0598    -7822.612   -1096.9795     102002.7      46.7237      46.7237      46.7237 
  470000     128.0528   -8704.1435   -7810.1996   -639.90518     102002.7      46.7237      46.7237      46.7237 
  471000     130.3465   -8690.0518   -7780.0955    -513.5782     102002.7      46.7237      46.7237      46.7237 
  472000    127.67928   -8701.8444    -7810.508   -747.48697     102002.7      46.7237      46.7237      46.7237 
  473000    130.43428   -8711.9933   -7801.4241   -811.90326     102002.7      46.7237      46.7237      46.7237 
  474000    126.61087   -8718.2434   -7834.3657   -706.84668     102002.7      46.7237      46.7237      46.7237 
  475000    129.20936     -8716.87    -7814.852   -824.09308     102002.7      46.7237      46.7237      46.7237 
  476000    127.27305   -8671.0301   -7782.5296   -693.44156     102002.7      46.7237      46.7237      46.7237 
  477000    131.29156   -8680.6246   -7764.0707   -387.10287     102002.7      46.7237      46.7237      46.7237 
  478000    127.91013   -8665.2516   -7772.3036   -681.33378     102002.7      46.7237      46.7237      46.7237 
  479000     134.0221   -8708.1128   -7772.4968   -647.61167     102002.7      46.7237      46.7237      46.7237 
  480000    130.31947   -8714.9369   -7805.1692   -828.50409     102002.7      46.7237      46.7237      46.7237 
  481000    132.93577   -8717.1821   -7789.1499   -816.66723     102002.7      46.7237      46.7237      46.7237 
  482000    125.61505   -8689.1046   -7812.1788   -575.43877     102002.7      46.7237      46.7237      46.7237 
  483000    130.10672   -8734.5583   -7826.2759   -659.36952     102002.7      46.7237      46.7237      46.7237 
  484000    127.31882   -8695.8004   -7806.9804   -1024.1638     102002.7      46.7237      46.7237      46.7237 
  485000    128.40043    -8692.314   -7795.9433   -748.47301     102002.7      46.7237      46.7237      46.7237 
  486000    134.90022   -8694.4505   -7752.7044   -999.17377     102002.7      46.7237      46.7237      46.7237 
  487000    132.15268   -8692.1834    -7769.618    -908.8669     102002.7      46.7237      46.7237      46.7237 
  488000    130.16699   -8698.5045   -7789.8013   -828.77659     102002.7      46.7237      46.7237      46.7237 
  489000      129.322   -8688.7602   -7785.9559   -965.47939     102002.7      46.7237      46.7237      46.7237 
  490000    129.72345   -8675.0194   -7769.4125    -641.1578     102002.7      46.7237      46.7237      46.7237 
  491000    129.46454   -8672.9138   -7769.1145   -1110.7578     102002.7      46.7237      46.7237      46.7237 
  492000    132.16696   -8675.8579   -7753.1927   -767.98285     102002.7      46.7237      46.7237      46.7237 
  493000    133.09611   -8695.1213   -7765.9698   -612.55774     102002.7      46.7237      46.7237      46.7237 
  494000    132.79092   -8696.6112   -7769.5902   -547.11321     102002.7      46.7237      46.7237      46.7237 
  495000    131.16017   -8702.5112   -7786.8745   -557.52191     102002.7      46.7237      46.7237      46.7237 
  496000    135.02409   -8691.6518   -7749.0409   -459.12954     102002.7      46.7237      46.7237      46.7237 
  497000    126.42917   -8693.5365   -7810.9272   -553.83395     102002.7      46.7237      46.7237      46.7237 
  498000    127.64322    -8700.238   -7809.1534   -606.63658     102002.7      46.7237      46.7237      46.7237 
  499000    126.80967   -8683.2866   -7798.0211   -454.62978     102002.7      46.7237      46.7237      46.7237 
  500000    129.05957   -8666.7795   -7765.8072   -607.03275     102002.7      46.7237      46.7237      46.7237 
  500500    129.94959   -8698.5148   -7791.3292   -588.88478     102002.7      46.7237      46.7237      46.7237 
Loop time of 1440.8 on 16 procs for 500000 steps with 2343 atoms

Performance: 29.983 ns/day, 0.800 hours/ns, 347.028 timesteps/s
99.8% CPU use with 16 MPI tasks x no OpenMP threads

MPI task timing breakdown:
Section |  min time  |  avg time  |  max time  |%varavg| %total
---------------------------------------------------------------
Pair    | 755.51     | 856.71     | 957.58     | 196.3 | 59.46
Bond    | 140.79     | 174.41     | 209.7      | 215.6 | 12.11
Neigh   | 10.688     | 10.735     | 10.802     |   1.3 |  0.75
Comm    | 309.8      | 383.8      | 513.29     | 274.6 | 26.64
Output  | 0.022002   | 0.02247    | 0.025963   |   0.6 |  0.00
Modify  | 8.1162     | 9.2519     | 11.177     |  37.8 |  0.64
Other   |            | 5.872      |            |       |  0.41

Nlocal:    146.438 ave 179 max 101 min
Histogram: 1 2 2 2 1 0 0 1 1 6
Nghost:    3009.12 ave 3061 max 2961 min
Histogram: 4 3 0 1 0 0 1 2 2 3
Neighs:    11463.7 ave 13297 max 8868 min
Histogram: 1 0 4 0 0 2 2 3 0 4

Total # of neighbors = 183419
Ave neighs/atom = 78.2838
Ave special neighs/atom = 4.91677
Neighbor list builds = 5002
Dangerous builds = 0
Neighbor list info ...
  update every 1 steps, delay 10 steps, check yes
  max neighbors/atom: 2000, page size: 100000
  master list distance cutoff = 16
  ghost atom cutoff = 16
  binsize = 8, bins = 6 6 6
  3 neighbor lists, perpetual/occasional/extra = 3 0 0
  (1) pair buck6d/coul/gauss/dsf, perpetual, skip from (3)
      attributes: half, newton on
      pair build: skip
      stencil: none
      bin: none
  (2) pair lj/cut, perpetual, skip from (3)
      attributes: half, newton on
      pair build: skip
      stencil: none
      bin: none
  (3) neighbor class addition, perpetual
      attributes: half, newton on
      pair build: half/bin/newton
      stencil: half/bin/3d/newton
      bin: standard
Setting up Verlet run ...
  Unit style    : real
  Current step  : 500500
  Time step     : 1
WARNING: Inconsistent image flags (../domain.cpp:786)
Per MPI rank memory allocation (min/avg/max) = 23.1 | 23.34 | 23.4 Mbytes
Step Time TotEng KinEng PotEng E_mol E_pair Temp Pxx Pyy Pzz Pxy Pxz Pyz Cella Cellb Cellc CellAlpha CellBeta CellGamma Volume Press 
  500500       500000   -7791.3292    907.18552   -8698.5148    4369.5247   -13068.039    129.94959   -315.28427   -622.41274   -828.95733   -223.90613    135.46165    37.817335      46.7237      46.7237      46.7237           90           90           90     102002.7   -588.88478 
  501000       500500   -7797.7727    923.77797   -8721.5507    4369.5608   -13091.111    132.32637   -705.10512   -944.90285   -764.92932   -26.423382   -192.07968    50.495542      46.7237      46.7237      46.7237           90           90           90     102002.7    -804.9791 
  502000       501500   -7803.0897    899.77507   -8702.8647    4374.6942   -13077.559    128.88808    -1148.107   -211.92279   -425.86493   -141.47242   -118.50272   -50.769352      46.7237      46.7237      46.7237           90           90           90     102002.7   -595.29823 
  503000       502500   -7799.9334    901.75329   -8701.6867    4378.6802   -13080.367    129.17145   -1011.2497   -1045.4465   -1083.7262    11.135999    166.65213    44.479466      46.7237      46.7237      46.7237           90           90           90     102002.7   -1046.8075 
  504000       503500    -7801.691    892.48392   -8694.1749    4381.8214   -13075.996    127.84366   -802.36926   -404.93507   -631.26636    17.457158   -85.408351     125.4688      46.7237      46.7237      46.7237           90           90           90     102002.7    -612.8569 
  505000       504500   -7808.3401    928.28683   -8736.6269    4350.6352   -13087.262    132.97224   -412.24328   -708.43117   -491.64685   -216.60758    33.647004    278.42504      46.7237      46.7237      46.7237           90           90           90     102002.7   -537.44043 
  506000       505500   -7791.2327    914.47729     -8705.71    4382.8089   -13088.519     130.9941   -478.04634   -969.09884    -915.1076   -3.2992321   -65.583791    96.826615      46.7237      46.7237      46.7237           90           90           90     102002.7   -787.41759 
  507000       506500   -7767.3695    917.39773   -8684.7673    4377.3385   -13062.106    131.41244   -690.10117    -708.8233   -478.47099   -43.420839   -53.185505   -52.541657      46.7237      46.7237      46.7237           90           90           90     102002.7   -625.79848 
  508000       507500   -7823.1839    899.62594   -8722.8098    4358.2425   -13081.052    128.86672   -1070.3828   -963.31265   -921.73422     96.97151     51.50532    158.36542      46.7237      46.7237      46.7237           90           90           90     102002.7   -985.14323 
  509000       508500   -7776.0932    922.19759   -8698.2908    4382.2212   -13080.512    132.09999   -716.04904   -1114.0367   -49.623105    263.60389    257.00959   -35.476819      46.7237      46.7237      46.7237           90           90           90     102002.7    -626.5696 
  510000       509500   -7818.6458    891.68173   -8710.3275    4354.1087   -13064.436    127.72875    -1042.322    -1362.052   -447.59554   -78.169239    150.53343   -51.837843      46.7237      46.7237      46.7237           90           90           90     102002.7   -950.65651 
  511000       510500   -7765.2724    921.50308   -8686.7754    4390.1432   -13076.919    132.00051   -842.30497   -850.39537   -707.52187   -244.81332   -202.65223    127.99635      46.7237      46.7237      46.7237           90           90           90     102002.7   -800.07407 
  512000       511500   -7823.8106    891.78939      -8715.6    4351.1691   -13066.769    127.74418   -337.15393   -451.27759    -875.4767    87.661989   -134.32195   -165.67925      46.7237      46.7237      46.7237           90           90           90     102002.7   -554.63607 
  513000       512500   -7788.0437    916.81273   -8704.8564    4380.1518   -13085.008    131.32864   -1489.4782   -1298.5885   -810.83746    139.36486   -195.15306    -108.7008      46.7237      46.7237      46.7237           90           90           90     102002.7   -1199.6347 
  514000       513500   -7809.6021    904.53795   -8714.1401    4381.2315   -13095.372    129.57034   -1099.2064   -555.93643    -933.9032    154.16861    60.181688    -194.7579      46.7237      46.7237      46.7237           90           90           90     102002.7   -863.01533 
  515000       514500   -7813.4363    912.37198   -8725.8083    4337.7127   -13063.521    130.69252   -1074.7621   -1143.0037   -742.25923     12.09741    58.491569    196.26849      46.7237      46.7237      46.7237           90           90           90     102002.7   -986.67502 
  516000       515500   -7760.9653    936.68882   -8697.6541    4394.3979   -13092.052    134.17578   -961.96733   -885.17904    20.294216    416.57145   -203.81959    203.35051      46.7237      46.7237      46.7237           90           90           90     102002.7   -608.95072 
  517000       516500   -7803.0848    921.55167   -8724.6365    4361.7109   -13086.347    132.00747   -350.56526   -722.00734   -802.38686   -121.07551   -104.51701   -81.888915      46.7237      46.7237      46.7237           90           90           90     102002.7   -624.98649 
  518000       517500   -7817.8641    884.09403   -8701.9582    4366.4427   -13068.401    126.64186   -909.15048   -631.90709   -599.30791    379.12636    70.933568   -199.72266      46.7237      46.7237      46.7237           90           90           90     102002.7   -713.45516 
  519000       518500   -7796.2908    900.24456   -8696.5354    4358.0455   -13054.581    128.95533   -135.56321   -1056.1949   -313.80011   -28.310498    129.55973   -94.534321      46.7237      46.7237      46.7237           90           90           90     102002.7   -501.85275 
  520000       519500    -7760.496    909.52223   -8670.0182    4394.9406   -13064.959    130.28431   -979.17611   -1171.0549   -772.84922   0.35020874    139.26738    18.833275      46.7237      46.7237      46.7237           90           90           90     102002.7   -974.36009 
  521000       520500   -7822.7701    897.36832   -8720.1384    4377.9031   -13098.041    128.54333   -1030.0584    -1132.362   -892.76124    230.78194   -6.4305073     128.8131      46.7237      46.7237      46.7237           90           90           90     102002.7   -1018.3939 
  522000       521500   -7807.5902    895.71704   -8703.3072    4375.4903   -13078.798    128.30679   -592.52915   -853.68228   -694.79443   -173.17647   -2.6016433   -23.109201      46.7237      46.7237      46.7237           90           90           90     102002.7   -713.66862 
  523000       522500   -7794.8956    907.61352   -8702.5091     4396.345   -13098.854     130.0109   -1233.3557   -730.82967   -695.02875   -50.137564   -99.186537   -10.715703      46.7237      46.7237      46.7237           90           90           90     102002.7   -886.40472 
  524000       523500     -7776.06    908.84836   -8684.9083    4417.4073   -13102.316    130.18778   -641.74829   -1167.1443   -1248.3282   -265.79223    71.331532   -91.789844      46.7237      46.7237      46.7237           90           90           90     102002.7   -1019.0736 
  525000       524500   -7801.5285    889.40424   -8690.9327    4394.4895   -13085.422    127.40252   -699.92555   -1278.1664   -1158.1658   -478.10081   -6.0659262    133.33296      46.7237      46.7237      46.7237           90           90           90     102002.7   -1045.4192 
  526000       525500   -7772.5242    925.55929   -8698.0835    4379.6666    -13077.75    132.58154   -614.42991    -630.7658    -763.4678    74.527365    165.89466   -144.53106      46.7237      46.7237      46.7237           90           90           90     102002.7    -669.5545 
  527000       526500   -7781.4297    913.91613   -8695.3459    4401.0959   -13096.442    130.91372    -765.9589   -884.23204   -1481.6916   -148.10127   -55.735376    231.34313      46.7237      46.7237      46.7237           90           90           90     102002.7   -1043.9609 
  528000       527500   -7793.0483    894.17848   -8687.2268    4387.0272   -13074.254     128.0864   -866.34275   -795.37886    -1025.304    192.74221   -175.42994   -170.21363      46.7237      46.7237      46.7237           90           90           90     102002.7    -895.6752 
  529000       528500   -7786.4187    914.64967   -8701.0684    4363.7761   -13064.845    131.01879   -391.39532   -581.43973   -1021.9793   -165.13575     96.49965    258.28902      46.7237      46.7237      46.7237           90           90           90     102002.7   -664.93811 
  530000       529500   -7796.1832     908.5455   -8704.7287    4368.7524   -13073.481     130.1444   -514.90232    -902.5264    -450.7315     20.76965   -151.54763   -71.833482      46.7237      46.7237      46.7237           90           90           90     102002.7   -622.72007 
  531000       530500   -7787.6158    902.47074   -8690.0866    4386.8284   -13076.915    129.27422   -546.96588   -437.33686   -1041.7763    153.59924   -20.839354    95.811689      46.7237      46.7237      46.7237           90           90           90     102002.7   -675.35968 
  532000       531500    -7809.341    885.18665   -8694.5277    4374.1596   -13068.687    126.79837   -950.93601   -1389.0097   -557.76918   -58.441154    94.666634    42.838556      46.7237      46.7237      46.7237           90           90           90     102002.7   -965.90496 
  533000       532500   -7848.4867    858.87997   -8707.3666    4389.7267   -13097.093    123.03007   -1000.0907   -895.20337   -1232.8108   -96.269401   -193.91113   -135.83748      46.7237      46.7237      46.7237           90           90           90     102002.7   -1042.7016 
  534000       533500   -7771.1535    937.16217   -8708.3156    4371.9142    -13080.23    134.24359   -733.85368   -1172.9944   -771.87747    180.32872   -144.40978    104.14652      46.7237      46.7237      46.7237           90           90           90     102002.7    -892.9085 
  535000       534500   -7803.9029    869.62728   -8673.5302    4396.4225   -13069.953    124.56957   -897.17873   -699.54436   -1341.9337   -49.080164   -145.67268    259.40246      46.7237      46.7237      46.7237           90           90           90     102002.7   -979.55227 
  536000       535500   -7779.1592    892.45101   -8671.6102    4390.6398    -13062.25    127.83895   -880.90723   -851.12394   -775.97647   -266.84179   -300.39334    159.17614      46.7237      46.7237      46.7237           90           90           90     102002.7   -836.00255 
  537000       536500   -7757.8646    915.60165   -8673.4662    4393.5442    -13067.01    131.15516   -1038.7969   -573.26271   -795.45936   -339.72769     245.1488   -81.553426      46.7237      46.7237      46.7237           90           90           90     102002.7   -802.50634 
  538000       537500   -7765.9795    928.48657   -8694.4661    4383.6612   -13078.127    133.00085   -842.41654   -1377.4615   -1045.5951    243.06546   -165.38413    21.593754      46.7237      46.7237      46.7237           90           90           90     102002.7    -1088.491 
  539000       538500    -7794.297    886.53199   -8680.8289    4388.3311    -13069.16    126.99108   -1254.6169    -755.8991   -1169.5906   -113.75295   -104.74334    55.079974      46.7237      46.7237      46.7237           90           90           90     102002.7   -1060.0355 
  540000       539500   -7814.2023    891.89834   -8706.1007    4382.6186   -13088.719    127.75978   -888.12875   -1496.2873   -1197.2463    19.432537    62.023303   -153.59255      46.7237      46.7237      46.7237           90           90           90     102002.7   -1193.8875 
  541000       540500   -7815.1285    895.00583   -8710.1343     4387.237   -13097.371    128.20491   -611.71538   -1092.2949   -740.62653     153.2913    98.081207   -108.32343      46.7237      46.7237      46.7237           90           90           90     102002.7   -814.87893 
  542000       541500   -7780.0859    906.56765   -8686.6536    4363.8053   -13050.459    129.86108   -860.62376   -1020.4234   -984.09556   -33.823871    269.29588   -185.32179      46.7237      46.7237      46.7237           90           90           90     102002.7   -955.04758 
  543000       542500   -7792.3204    910.61701   -8702.9374    4385.5678   -13088.505    130.44113   -552.61218   -791.30249   -164.08906   -54.228902    273.02955    74.172538      46.7237      46.7237      46.7237           90           90           90     102002.7   -502.66791 
  544000       543500   -7802.0833    906.64727   -8708.7306    4355.4692     -13064.2    129.87249   -636.00848   -625.33987   -1287.7329   -104.61372    186.86619    90.405966      46.7237      46.7237      46.7237           90           90           90     102002.7   -849.69375 
  545000       544500   -7753.7443     915.6656   -8669.4099     4373.743   -13043.153    131.16432   -996.91659   -1075.6624   -857.79093    181.34237   -193.50709   -102.29825      46.7237      46.7237      46.7237           90           90           90     102002.7   -976.78998 
  546000       545500   -7780.9301    925.72096    -8706.651    4363.9818   -13070.633     132.6047    -572.9667   -690.99217   -442.34619    78.437541   -63.689903    1.4516238      46.7237      46.7237      46.7237           90           90           90     102002.7   -568.76835 
  547000       546500   -7788.4942    916.52495   -8705.0192    4353.4909    -13058.51    131.28742   -657.43718   -1159.0253    -940.1464    4.6374243    165.80286    24.584295      46.7237      46.7237      46.7237           90           90           90     102002.7   -918.86962 
  548000       547500   -7810.9627    869.21315   -8680.1759    4389.1535   -13069.329    124.51025   -899.93937   -1064.1867   -960.14741    161.07677    73.181374   -16.934429      46.7237      46.7237      46.7237           90           90           90     102002.7   -974.75784 
  549000       548500   -7760.1141    907.87581   -8667.9899    4397.2263   -13065.216    130.04847   -468.61941   -662.78092   -935.29971   -76.561469   -210.11188    101.57717      46.7237      46.7237      46.7237           90           90           90     102002.7   -688.90001 
  550000       549500   -7776.2483     878.4973   -8654.7456    4409.7265   -13064.472    125.84015   -937.30529   -1060.0563   -620.39545   -298.70665    57.321896    280.36428      46.7237      46.7237      46.7237           90           90           90     102002.7   -872.58568 
  551000       550500   -7756.2516    925.96293   -8682.2145    4380.3389   -13062.553    132.63936   -425.12107   -982.83169   -740.73944   -45.193852    295.47785    291.25056      46.7237      46.7237      46.7237           90           90           90     102002.7   -716.23073 
  552000       551500   -7774.2169    894.67636   -8668.8932    4366.9665    -13035.86    128.15772   -994.50195   -889.42536   -527.46972    42.135302    215.23705   -140.15049      46.7237      46.7237      46.7237           90           90           90     102002.7   -803.79901 
  553000       552500   -7754.9322    901.02387    -8655.956    4369.6661   -13025.622    129.06697   -842.88552    -835.2999   -987.71362     337.2803    42.954901     101.6369      46.7237      46.7237      46.7237           90           90           90     102002.7   -888.63302 
  554000       553500   -7783.9533    897.06209   -8681.0154    4373.8606   -13054.876    128.49946   -769.13148    -984.8972   -218.90352    -178.6684    143.60854     212.7766      46.7237      46.7237      46.7237           90           90           90     102002.7   -657.64407 
  555000       554500   -7765.1968    910.44895   -8675.6458    4377.5305   -13053.176    130.41706    -440.9172   -1734.4296   -1029.0361     284.6361   -93.164512   -137.93323      46.7237      46.7237      46.7237           90           90           90     102002.7   -1068.1276 
[...]
  936000       935500   -7801.0423    900.17583   -8701.2181     4386.595   -13087.813    128.94549   -448.66175   -1385.2814    -433.8791    -203.0654    37.834398   -126.13122      46.7237      46.7237      46.7237           90           90           90     102002.7   -755.94074 
  937000       936500   -7783.9329    921.10872   -8705.0416    4361.1679    -13066.21    131.94402   -446.44344   -1153.5134   -1033.4249   -265.00263   -199.19092   -84.629386      46.7237      46.7237      46.7237           90           90           90     102002.7   -877.79392 
  938000       937500   -7821.3772    891.36936   -8712.7466    4373.8893   -13086.636    127.68401   -618.95608   -855.29923   -656.66958    42.790902     161.7996    6.4614131      46.7237      46.7237      46.7237           90           90           90     102002.7    -710.3083 
  939000       938500   -7808.4811    892.14305   -8700.6242    4356.5285   -13057.153    127.79484   -532.85914   -1478.3294    -1075.746   -131.33419    380.58892    312.09609      46.7237      46.7237      46.7237           90           90           90     102002.7   -1028.9782 
  940000       939500   -7774.5062     912.3023   -8686.8085    4397.1951   -13084.004    130.68254    -1049.696   -1326.5649   -675.29884    79.925432    25.321276    -45.26226      46.7237      46.7237      46.7237           90           90           90     102002.7   -1017.1865 
  941000       940500   -7784.9472    921.67137   -8706.6186    4376.4543   -13083.073    132.02461    14.662436   -959.89911   -533.48805    -4.466462   -23.339268    79.813502      46.7237      46.7237      46.7237           90           90           90     102002.7   -492.90824 
  942000       941500   -7807.1792    898.47109   -8705.6503    4364.6394    -13070.29    128.70129   -382.20552   -948.24191   -972.56441   -158.77762   -98.052195    271.19408      46.7237      46.7237      46.7237           90           90           90     102002.7   -767.67061 
  943000       942500   -7779.5068    900.17217    -8679.679    4406.4316   -13086.111    128.94497   -433.29248   -854.97553   -699.05411   -251.54307   -171.70912   -42.405643      46.7237      46.7237      46.7237           90           90           90     102002.7    -662.4407 
  944000       943500    -7779.903    902.78174   -8682.6847    4383.5492   -13066.234    129.31877   -1521.3728   -759.56325   -1349.4153   -379.46478    15.352086   -47.692416      46.7237      46.7237      46.7237           90           90           90     102002.7   -1210.1171 
  945000       944500   -7803.2119     899.9076   -8703.1195    4377.2223   -13080.342    128.90707   -446.34545   -425.08752   -852.17567   -209.78754    187.30481   -233.94813      46.7237      46.7237      46.7237           90           90           90     102002.7   -574.53621 
  946000       945500   -7782.9098    908.95494   -8691.8647    4397.0734   -13088.938    130.20305   -1133.0454   -903.08463    -432.2786   -116.18802   -21.507475   -46.570759      46.7237      46.7237      46.7237           90           90           90     102002.7   -822.80289 
  947000       946500   -7762.8771    928.35341   -8691.2305    4413.7887   -13105.019    132.98178   -797.86795   -1277.1206   -390.26972   -25.322206   -136.32659    80.731079      46.7237      46.7237      46.7237           90           90           90     102002.7   -821.75275 
  948000       947500   -7817.7766     882.1482   -8699.9248    4407.4293   -13107.354    126.36313   -744.95099   -738.04654   -721.36359    85.456013   -264.49716    -218.5973      46.7237      46.7237      46.7237           90           90           90     102002.7   -734.78704 
  949000       948500   -7800.7494    909.17353   -8709.9229    4385.3825   -13095.305    130.23436   -524.49157   -497.89553   -1348.3339    136.91202    129.45929   -105.05585      46.7237      46.7237      46.7237           90           90           90     102002.7   -790.24033 
  950000       949500   -7821.7971    899.45632   -8721.2535    4356.0824   -13077.336    128.84242   -630.64103    -1088.863   -529.11974  -0.18577499   -187.91534    47.257289      46.7237      46.7237      46.7237           90           90           90     102002.7   -749.54124 
  951000       950500   -7773.7604    907.29796   -8681.0584      4401.77   -13082.828     129.9657    -438.1366   -268.75376   -1182.7366    38.835013   -11.587315   -98.459174      46.7237      46.7237      46.7237           90           90           90     102002.7   -629.87566 
  952000       951500    -7803.886    897.51377   -8701.3998     4366.268   -13067.668    128.56416   -13.467092    -1432.655   -1035.0798      159.131   -162.15464   -143.05833      46.7237      46.7237      46.7237           90           90           90     102002.7   -827.06731 
  953000       952500   -7773.0865    930.78378   -8703.8703     4380.036   -13083.906    133.32992   -434.76743   -735.65674   -429.72674   -78.153076    7.3951012   -64.581181      46.7237      46.7237      46.7237           90           90           90     102002.7   -533.38364 
  954000       953500   -7775.5153    916.55465     -8692.07    4388.4404    -13080.51    131.29167   -990.73298   -514.65269   -400.34437    169.93721   -95.874107   -282.39422      46.7237      46.7237      46.7237           90           90           90     102002.7   -635.24335 
  955000       954500   -7735.9915    921.03598   -8657.0274    4374.2439   -13031.271     131.9336   -1018.8948   -1212.1463   -1053.6105   -102.71347    123.81385   -148.29089      46.7237      46.7237      46.7237           90           90           90     102002.7   -1094.8838 
  956000       955500   -7789.0944     915.0048   -8704.0992    4377.7283   -13081.827    131.06966   -480.25435    -687.4135   -241.99007     -59.7455    185.71209   -175.78322      46.7237      46.7237      46.7237           90           90           90     102002.7   -469.88597 
  957000       956500   -7809.7118    902.49805   -8712.2099    4362.4914   -13074.701    129.27814   -654.54917   -889.94084   -897.10363    103.44745    94.962493   -9.4894043      46.7237      46.7237      46.7237           90           90           90     102002.7   -813.86455 
  958000       957500   -7811.8874    880.43706   -8692.3245    4364.9411   -13057.266    126.11801    -673.3578   -567.21754   -562.61997    55.288362    111.45099    103.78952      46.7237      46.7237      46.7237           90           90           90     102002.7   -601.06511 
  959000       958500   -7766.3642    928.54827   -8694.9125    4373.4668   -13068.379    133.00969   -648.23709   -292.24784   -505.20897    172.58979   -71.751319   -71.841169      46.7237      46.7237      46.7237           90           90           90     102002.7   -481.89797 
  960000       959500   -7769.8397    910.49175   -8680.3314    4407.8765   -13088.208    130.42319   -906.22522   -596.20261    -705.5479    15.232394    489.44176     384.7634      46.7237      46.7237      46.7237           90           90           90     102002.7   -735.99191 
  961000       960500    -7793.452    894.77471   -8688.2267    4385.2087   -13073.435    128.17181   -383.39268    -595.4956   -319.00843   -225.09026    172.55578   -71.760949      46.7237      46.7237      46.7237           90           90           90     102002.7   -432.63223 
  962000       961500   -7759.8296    920.04842    -8679.878    4404.5972   -13084.475    131.79213   -897.54051   -670.89852   -665.09313   -26.422509   -267.62307    269.26769      46.7237      46.7237      46.7237           90           90           90     102002.7   -744.51072 
  963000       962500   -7778.6944    894.17654   -8672.8709    4394.1193    -13066.99    128.08612   -694.55891   -657.75819   -842.83442    42.296596   -74.496303   -230.91271      46.7237      46.7237      46.7237           90           90           90     102002.7   -731.71717 
  964000       963500   -7803.7174    886.93452   -8690.6519    4395.7819   -13086.434    127.04874   -444.20561   -745.14991    -375.3856   -25.152308    31.628339   -166.92532      46.7237      46.7237      46.7237           90           90           90     102002.7   -521.58037 
  965000       964500   -7783.5292    916.14437   -8699.6736    4379.9084   -13079.582     131.2329   -193.83049   -1098.7985   -965.77166    83.058506   -182.72001    186.65835      46.7237      46.7237      46.7237           90           90           90     102002.7   -752.80022 
  966000       965500   -7740.5696    940.70271   -8681.2724    4393.3643   -13074.637    134.75075   -937.28038   -642.85369   -1061.8607    153.90424   -74.260289     140.9458      46.7237      46.7237      46.7237           90           90           90     102002.7   -880.66494 
  967000       966500   -7786.6757    925.37926    -8712.055    4367.2506   -13079.306    132.55575   -1104.6313   -619.63392   -955.81146    6.7667108   -31.460413    24.939677      46.7237      46.7237      46.7237           90           90           90     102002.7   -893.35891 
  968000       967500    -7790.029    913.75209   -8703.7811    4398.7504   -13102.531    130.89022    -860.2142   -609.42965   -939.15497    46.429921   -375.62441    129.47775      46.7237      46.7237      46.7237           90           90           90     102002.7   -802.93294 
  969000       968500    -7806.436    902.53138   -8708.9673    4376.4153   -13085.383    129.28291   -511.72606   -1183.9063   -1257.8054    16.952758    285.23729   -25.021382      46.7237      46.7237      46.7237           90           90           90     102002.7   -984.47925 
  970000       969500   -7772.5631    910.78241   -8683.3455    4399.6481   -13082.994    130.46483   -700.39973   -1025.0121   -821.21541   -7.1198084    45.780371     64.54458      46.7237      46.7237      46.7237           90           90           90     102002.7   -848.87576 
  971000       970500   -7808.2731     890.8076   -8699.0807    4398.3455   -13097.426    127.60354   -906.88843   -1490.0801   -552.96594    2.2906993   -30.610648   -92.655153      46.7237      46.7237      46.7237           90           90           90     102002.7    -983.3115 
  972000       971500   -7811.6625    906.67659   -8718.3391    4365.9532   -13084.292    129.87669    -926.2749   -409.10649   -673.03502   -21.457961    136.10639   -75.370263      46.7237      46.7237      46.7237           90           90           90     102002.7   -669.47213 
  973000       972500   -7824.4117    891.49042   -8715.9021    4366.7043   -13082.606    127.70135   -972.13421    -806.6127   -889.87391   -230.95427   -290.88791   -123.20848      46.7237      46.7237      46.7237           90           90           90     102002.7   -889.54028 
  974000       973500   -7795.6852    892.12262   -8687.8078    4378.3957   -13066.204    127.79191   -1014.1604   -324.65166   -1000.5083    15.630983    -67.84829     121.4447      46.7237      46.7237      46.7237           90           90           90     102002.7   -779.77345 
  975000       974500   -7797.5807    914.37303   -8711.9537    4371.0511   -13083.005    130.97916   -627.68371   -439.16259   -1546.8303   -80.596626    375.53588   -154.79669      46.7237      46.7237      46.7237           90           90           90     102002.7   -871.22554 
  976000       975500   -7753.7512     922.6194   -8676.3706    4404.7974   -13081.168    132.16041   -976.14914   -799.12568   -1064.7456   -1.8435431    128.45201   -459.07678      46.7237      46.7237      46.7237           90           90           90     102002.7   -946.67348 
  977000       976500   -7790.5103    918.32663    -8708.837    4369.2593   -13078.096     131.5455   -1049.1558   -732.51681   -1077.2982    49.774827   -53.097688   -216.54545      46.7237      46.7237      46.7237           90           90           90     102002.7   -952.99027 
  978000       977500   -7783.5963    908.13641   -8691.7327    4390.6872    -13082.42     130.0858   -1075.7089   -845.75068    -691.2168    54.817861   -205.56202    172.87341      46.7237      46.7237      46.7237           90           90           90     102002.7   -870.89211 
  979000       978500   -7769.4516    908.60373   -8678.0553    4376.8639   -13054.919    130.15274   -1060.6481   -780.64411   -1106.7806    52.385327   -159.81228   -66.237118      46.7237      46.7237      46.7237           90           90           90     102002.7   -982.69095 
  980000       979500   -7777.6823    901.30362   -8678.9859    4378.2943    -13057.28    129.10704   -721.51117    -761.9766   -738.47691    -16.22579    280.58704    119.14941      46.7237      46.7237      46.7237           90           90           90     102002.7   -740.65489 
  981000       980500   -7802.8314    904.07885   -8706.9103    4389.5004   -13096.411    129.50458   -792.73994    -1073.633   -1144.9211    148.78519   -103.76299   -43.401011      46.7237      46.7237      46.7237           90           90           90     102002.7   -1003.7647 
  982000       981500    -7780.268     912.9054   -8693.1734    4375.6457   -13068.819    130.76893   -1059.9387   -843.35102   -730.73176    51.411649   -157.20827    311.38066      46.7237      46.7237      46.7237           90           90           90     102002.7   -878.00717 
  983000       982500   -7765.3363    911.05841   -8676.3947    4403.9123   -13080.307    130.50436   -795.47214   -985.13953   -335.81258    158.87021   -87.189673   -217.71226      46.7237      46.7237      46.7237           90           90           90     102002.7   -705.47475 
  984000       983500   -7775.3326    903.88441    -8679.217    4406.4721   -13085.689    129.47672   -803.24449   -745.71533   -791.15688   -85.453697   -22.160564   -231.78878      46.7237      46.7237      46.7237           90           90           90     102002.7    -780.0389 
  985000       984500   -7786.3692    894.98596   -8681.3552    4396.5656   -13077.921    128.20207   -849.28527   -537.52927   -983.90487    18.185134    21.159365    159.49942      46.7237      46.7237      46.7237           90           90           90     102002.7    -790.2398 
  986000       985500   -7740.7809    924.62222   -8665.4031    4411.8209   -13077.224    132.44731   -772.51942   -1406.4601   -566.60131    55.386524   -216.06282    11.393482      46.7237      46.7237      46.7237           90           90           90     102002.7   -915.19362 
  987000       986500   -7813.2385    901.18474   -8714.4232    4346.4763     -13060.9    129.09001   -439.46161   -705.47337   -637.30059     29.26599    58.870371    1.2415803      46.7237      46.7237      46.7237           90           90           90     102002.7   -594.07852 
  988000       987500   -7813.8839    875.14357   -8689.0274    4391.4862   -13080.514    125.35975   -583.57846   -726.38441   -689.56014    -39.44861    33.056617    13.537579      46.7237      46.7237      46.7237           90           90           90     102002.7   -666.50767 
  989000       988500      -7765.8    909.14789   -8674.9479    4417.8969   -13092.845    130.23069   -619.46685   -301.58249   -1123.8924   -142.16691    108.61636      32.5925      46.7237      46.7237      46.7237           90           90           90     102002.7   -681.64723 
  990000       989500   -7794.0732    888.00244   -8682.0756    4382.1287   -13064.204    127.20171   -294.57166   -1147.5832   -1136.7394    -51.89711    219.62256    65.052986      46.7237      46.7237      46.7237           90           90           90     102002.7    -859.6314 
  991000       990500   -7775.7805    893.94448    -8669.725    4415.8913   -13085.616    128.05288    -928.5946   -772.98005   -885.15381    28.471817    156.63185   -8.4497435      46.7237      46.7237      46.7237           90           90           90     102002.7   -862.24282 
  992000       991500   -7785.5577    907.38646   -8692.9441    4371.7261    -13064.67    129.97838   -566.04936   -1641.2772    -1076.971    114.40405    140.71334   -45.073176      46.7237      46.7237      46.7237           90           90           90     102002.7   -1094.7659 
  993000       992500   -7787.7355    880.60685   -8668.3423    4399.8523   -13068.195    126.14233   -1051.7713    -841.5114   -858.67162     -132.431    35.183562    -57.91917      46.7237      46.7237      46.7237           90           90           90     102002.7   -917.31811 
  994000       993500   -7761.8775    915.90052    -8677.778    4400.8518    -13078.63    131.19797   -598.56719   -779.30552   -574.07926   -202.30854    -113.1296    210.09844      46.7237      46.7237      46.7237           90           90           90     102002.7   -650.65066 
  995000       994500   -7737.9313    935.05751   -8672.9888    4408.0096   -13080.998    133.94211    -514.1859   -536.38183   -839.12201    241.76075   -105.12541   -269.54889      46.7237      46.7237      46.7237           90           90           90     102002.7   -629.89658 
  996000       995500   -7796.3157     896.7814   -8693.0971    4394.1023   -13087.199    128.45926   -507.06165   -205.65425     -404.315   -134.60669   -79.910254   -223.81811      46.7237      46.7237      46.7237           90           90           90     102002.7   -372.34363 
  997000       996500   -7781.5543    918.20353   -8699.7579    4396.0559   -13095.814    131.52786    -1102.141    -885.9941   -1155.9014    70.508489    149.52456   -235.30384      46.7237      46.7237      46.7237           90           90           90     102002.7   -1048.0122 
  998000       997500   -7768.7253     893.4869   -8662.2122    4399.0422   -13061.254    127.98734   -711.42538   -737.02323   -758.66895    143.07576    234.08338    59.175412      46.7237      46.7237      46.7237           90           90           90     102002.7   -735.70585 
  999000       998500   -7768.3008     929.3493   -8697.6501    4385.7305   -13083.381    133.12444   -563.77868   -463.36911     -717.887     208.4578   -143.19453   -7.8834114      46.7237      46.7237      46.7237           90           90           90     102002.7   -581.67826 
 1000000       999500   -7769.0708    927.46162   -8696.5325    4372.4044   -13068.937    132.85404   -1053.4426   -1106.4731   -750.72331    98.077892     169.8527    16.911902      46.7237      46.7237      46.7237           90           90           90     102002.7   -970.21302 
 1000500      1000000      -7782.2    926.92976   -8709.1298    4371.3208   -13080.451    132.77785   -966.02909   -1362.3242   -857.60677    187.29752   -318.33983   -213.43573      46.7237      46.7237      46.7237           90           90           90     102002.7   -1061.9867 
Loop time of 1570.68 on 16 procs for 500000 steps with 2343 atoms

Performance: 27.504 ns/day, 0.873 hours/ns, 318.333 timesteps/s
99.8% CPU use with 16 MPI tasks x no OpenMP threads

MPI task timing breakdown:
Section |  min time  |  avg time  |  max time  |%varavg| %total
---------------------------------------------------------------
Pair    | 840.19     | 1014.9     | 1182.5     | 337.6 | 64.61
Bond    | 115.39     | 182.85     | 250.57     | 431.2 | 11.64
Neigh   | 10.338     | 10.388     | 10.461     |   1.4 |  0.66
Comm    | 115.96     | 332.01     | 554.91     | 873.9 | 21.14
Output  | 0.11331    | 0.11783    | 0.11825    |   0.3 |  0.01
Modify  | 22.646     | 24.524     | 26.957     |  33.9 |  1.56
Other   |            | 5.929      |            |       |  0.38

Nlocal:    146.438 ave 185 max 110 min
Histogram: 3 3 1 1 0 1 0 1 5 1
Nghost:    3003.56 ave 3058 max 2952 min
Histogram: 3 2 2 1 0 0 0 5 2 1
Neighs:    11462.4 ave 13988 max 8832 min
Histogram: 1 2 1 3 1 2 1 1 2 2

Total # of neighbors = 183399
Ave neighs/atom = 78.2753
Ave special neighs/atom = 4.91677
Neighbor list builds = 5057
Dangerous builds = 0
Total wall time: 0:50:15
