LAMMPS (30 Mar 2018)
Reading data file ...
  orthogonal box = (0 0 0) to (46.7237 46.7237 46.7237)
  2 by 2 by 4 MPI processor grid
  reading atoms ...
  3187 atoms
  scanning bonds ...
  5 = max bonds/atom
  scanning angles ...
  10 = max angles/atom
  scanning dihedrals ...
  32 = max dihedrals/atom
  scanning impropers ...
  3 = max impropers/atom
  reading bonds ...
  2064 bonds
  reading angles ...
  3696 angles
  reading dihedrals ...
  6240 dihedrals
  reading impropers ...
  1008 impropers
Finding 1-2 1-3 1-4 neighbors ...
  special bond factors lj:   0          0          0         
  special bond factors coul: 0          0          0         
  5 = max # of 1-2 neighbors
  8 = max # of 1-3 neighbors
  20 = max # of 1-4 neighbors
  19 = max # of special neighbors
Finding 1-2 1-3 1-4 neighbors ...
  special bond factors lj:   0          0          1         
  special bond factors coul: 1          1          1         
  5 = max # of 1-2 neighbors
  8 = max # of 1-3 neighbors
  19 = max # of special neighbors
WARNING: Using 'neigh_modify every 1 delay 0 check yes' setting during minimization (../min.cpp:168)
Neighbor list info ...
  update every 1 steps, delay 0 steps, check yes
  max neighbors/atom: 2000, page size: 100000
  master list distance cutoff = 16
  ghost atom cutoff = 16
  binsize = 8, bins = 6 6 6
  3 neighbor lists, perpetual/occasional/extra = 3 0 0
  (1) pair buck6d/coul/gauss/dsf, perpetual, skip from (3)
      attributes: half, newton on
      pair build: skip
      stencil: none
      bin: none
  (2) pair lj/cut, perpetual, skip from (3)
      attributes: half, newton on
      pair build: skip
      stencil: none
      bin: none
  (3) neighbor class addition, perpetual
      attributes: half, newton on
      pair build: half/bin/newton
      stencil: half/bin/3d/newton
      bin: standard
Setting up cg style minimization ...
  Unit style    : real
  Current step  : 0
WARNING: Inconsistent image flags (../domain.cpp:786)
Per MPI rank memory allocation (min/avg/max) = 23.01 | 23.47 | 23.91 Mbytes
Step Temp E_pair E_mol TotEng Press 
       0            0   -15533.764    6482.8914   -9050.8724    5793.1072 
     500            0   -15874.188    3768.7208   -12105.467   -2018.2844 
Loop time of 5.35371 on 16 procs for 500 steps with 3187 atoms

99.9% CPU use with 16 MPI tasks x no OpenMP threads

Minimization stats:
  Stopping criterion = max force evaluations
  Energy initial, next-to-last, final = 
        -9050.87243043     -12105.4046395     -12105.4670846
  Force two-norm initial, final = 2574.98 12.5051
  Force max component initial, final = 152.041 1.88328
  Final line search alpha, max atom move = 0.00704182 0.0132617
  Iterations, force evaluations = 500 1000

MPI task timing breakdown:
Section |  min time  |  avg time  |  max time  |%varavg| %total
---------------------------------------------------------------
Pair    | 2.4581     | 3.0796     | 3.7519     |  19.6 | 57.52
Bond    | 0.27775    | 0.36675    | 0.50163    |   9.4 |  6.85
Neigh   | 0.042475   | 0.042684   | 0.042858   |   0.1 |  0.80
Comm    | 1.0041     | 1.8149     | 2.4688     |  27.4 | 33.90
Output  | 0          | 0          | 0          |   0.0 |  0.00
Modify  | 0          | 0          | 0          |   0.0 |  0.00
Other   |            | 0.04971    |            |       |  0.93

Nlocal:    199.188 ave 229 max 162 min
Histogram: 1 0 0 1 4 3 3 3 0 1
Nghost:    3980.44 ave 4014 max 3938 min
Histogram: 1 0 0 2 2 4 5 0 1 1
Neighs:    11473.9 ave 18824 max 7943 min
Histogram: 3 3 2 2 3 2 0 0 0 1

Total # of neighbors = 183582
Ave neighs/atom = 57.6034
Ave special neighs/atom = 3.61468
Neighbor list builds = 10
Dangerous builds = 0
Neighbor list info ...
  update every 1 steps, delay 10 steps, check yes
  max neighbors/atom: 2000, page size: 100000
  master list distance cutoff = 16
  ghost atom cutoff = 16
  binsize = 8, bins = 6 6 6
  3 neighbor lists, perpetual/occasional/extra = 3 0 0
  (1) pair buck6d/coul/gauss/dsf, perpetual, skip from (3)
      attributes: half, newton on
      pair build: skip
      stencil: none
      bin: none
  (2) pair lj/cut, perpetual, skip from (3)
      attributes: half, newton on
      pair build: skip
      stencil: none
      bin: none
  (3) neighbor class addition, perpetual
      attributes: half, newton on
      pair build: half/bin/newton
      stencil: half/bin/3d/newton
      bin: standard
Setting up Verlet run ...
  Unit style    : real
  Current step  : 500
  Time step     : 1
WARNING: Inconsistent image flags (../domain.cpp:786)
Per MPI rank memory allocation (min/avg/max) = 22.66 | 22.76 | 22.98 Mbytes
Step Temp PotEng TotEng Press Volume Lx Ly Lz 
     500           91   -12105.467   -11241.253   -1630.9888     102002.7      46.7237      46.7237      46.7237 
    1000    76.599845   -11387.664   -10660.206   -654.15108     102002.7      46.7237      46.7237      46.7237 
    2000    91.864647   -11257.795   -10385.369   -533.44617     102002.7      46.7237      46.7237      46.7237 
    3000     92.80015   -11292.619   -10411.309   -315.05293     102002.7      46.7237      46.7237      46.7237 
    4000    91.011108   -11282.625   -10418.305   -278.92306     102002.7      46.7237      46.7237      46.7237 
    5000     90.62613   -11280.452   -10419.788   -687.59888     102002.7      46.7237      46.7237      46.7237 
    6000    89.302155   -11290.849   -10442.759   -369.30632     102002.7      46.7237      46.7237      46.7237 
    7000    90.271472    -11283.42   -10426.125   -738.00224     102002.7      46.7237      46.7237      46.7237 
    8000    92.016465   -11284.933   -10411.066   -545.45906     102002.7      46.7237      46.7237      46.7237 
    9000    91.460622   -11272.934   -10404.345   -610.12824     102002.7      46.7237      46.7237      46.7237 
   10000    91.731604    -11291.19   -10420.028   -585.79048     102002.7      46.7237      46.7237      46.7237 
   11000    91.134437    -11272.84   -10407.349    -143.1503     102002.7      46.7237      46.7237      46.7237 
   12000    90.661759   -11286.621   -10425.618   -330.02619     102002.7      46.7237      46.7237      46.7237 
   13000    92.387947   -11278.981   -10401.586   -504.90957     102002.7      46.7237      46.7237      46.7237 
   14000     93.00424   -11304.248       -10421   -332.11973     102002.7      46.7237      46.7237      46.7237 
   15000    90.570757   -11299.916   -10439.778   -705.23199     102002.7      46.7237      46.7237      46.7237 
   16000     89.96169   -11317.951   -10463.597   -412.59045     102002.7      46.7237      46.7237      46.7237 
   17000    91.274505   -11293.765   -10426.944   -653.84391     102002.7      46.7237      46.7237      46.7237 
   18000    92.002309   -11284.055   -10410.322   -434.28822     102002.7      46.7237      46.7237      46.7237 
   19000    88.705446   -11297.422   -10454.999   -448.45527     102002.7      46.7237      46.7237      46.7237 
   20000    91.870318   -11299.327   -10426.847   -459.78895     102002.7      46.7237      46.7237      46.7237 
   21000    91.452573   -11281.396   -10412.884   -282.82793     102002.7      46.7237      46.7237      46.7237 
   22000    91.273871   -11289.778   -10422.963   -455.47332     102002.7      46.7237      46.7237      46.7237 
   23000    92.890375   -11308.532   -10426.365   -803.17504     102002.7      46.7237      46.7237      46.7237 
   24000    89.751857   -11308.089   -10455.728   -720.04884     102002.7      46.7237      46.7237      46.7237 
   25000    91.939089   -11294.362    -10421.23   -693.30981     102002.7      46.7237      46.7237      46.7237 
   26000    91.672648    -11328.76   -10458.157   -788.43554     102002.7      46.7237      46.7237      46.7237 
   27000    92.085568   -11292.739   -10418.215   -397.88052     102002.7      46.7237      46.7237      46.7237 
   28000    88.929416   -11294.881   -10450.331   -603.74146     102002.7      46.7237      46.7237      46.7237 
   29000    91.187513     -11306.8   -10440.805   -428.06924     102002.7      46.7237      46.7237      46.7237 
   30000    91.827392   -11286.445   -10414.373   -681.12831     102002.7      46.7237      46.7237      46.7237 
   31000    90.674983   -11320.667   -10459.539    -852.1888     102002.7      46.7237      46.7237      46.7237 
   32000     90.37931   -11278.607   -10420.287   -669.85395     102002.7      46.7237      46.7237      46.7237 
   33000    91.166369   -11301.797   -10436.003   -357.29284     102002.7      46.7237      46.7237      46.7237 
   34000    90.805157    -11298.85   -10436.486   -688.90403     102002.7      46.7237      46.7237      46.7237 
   35000    91.364715    -11292.99   -10425.312    -476.4004     102002.7      46.7237      46.7237      46.7237 
   36000    90.317137   -11310.753   -10453.023   -484.04455     102002.7      46.7237      46.7237      46.7237 
   37000    92.407707   -11318.022   -10440.439   -511.78431     102002.7      46.7237      46.7237      46.7237 
   38000    93.421797   -11299.054    -10411.84   -502.55242     102002.7      46.7237      46.7237      46.7237 
   39000    88.657701   -11304.142   -10462.172   -510.68249     102002.7      46.7237      46.7237      46.7237 
   40000    90.217629   -11311.414   -10454.629    -457.1716     102002.7      46.7237      46.7237      46.7237 
   41000    91.886737   -11296.837   -10424.201   -567.16645     102002.7      46.7237      46.7237      46.7237 
   42000    90.266363   -11292.497    -10435.25   -555.12645     102002.7      46.7237      46.7237      46.7237 
   43000    90.306979   -11295.949   -10438.316   -777.59759     102002.7      46.7237      46.7237      46.7237 
   44000    90.525261   -11308.098   -10448.392   -575.60991     102002.7      46.7237      46.7237      46.7237 
   45000    90.560218   -11311.787   -10451.749   -676.83181     102002.7      46.7237      46.7237      46.7237 
   46000    90.883566   -11321.919    -10458.81    -531.5509     102002.7      46.7237      46.7237      46.7237 
   47000    90.414463   -11301.579   -10442.925   -406.96239     102002.7      46.7237      46.7237      46.7237 
   48000    91.537789   -11297.583   -10428.262   -549.93263     102002.7      46.7237      46.7237      46.7237 
   49000    90.721573   -11304.266   -10442.696   -527.41703     102002.7      46.7237      46.7237      46.7237 
   50000    92.733318   -11312.366    -10431.69   -514.94453     102002.7      46.7237      46.7237      46.7237 
   51000     91.34434   -11325.972   -10458.488   -640.11638     102002.7      46.7237      46.7237      46.7237 
   52000    90.138002   -11304.523   -10448.495   -502.22968     102002.7      46.7237      46.7237      46.7237 
   53000     88.80837   -11313.507   -10470.106   -705.87361     102002.7      46.7237      46.7237      46.7237 
   54000    89.881856   -11298.894   -10445.299   -357.20846     102002.7      46.7237      46.7237      46.7237 
   55000    92.591856   -11321.659   -10442.327    -497.2982     102002.7      46.7237      46.7237      46.7237 
   56000    91.043052   -11323.884   -10459.261   -644.16528     102002.7      46.7237      46.7237      46.7237 
   57000    90.502223   -11316.597    -10457.11   -514.16847     102002.7      46.7237      46.7237      46.7237 
   58000    89.428949   -11290.782   -10441.488   -631.80766     102002.7      46.7237      46.7237      46.7237 
   59000    90.206446   -11304.261   -10447.583   -785.07605     102002.7      46.7237      46.7237      46.7237 
   60000     87.97827   -11317.976   -10482.459   -340.65875     102002.7      46.7237      46.7237      46.7237 
   61000     91.12246   -11315.939   -10450.562   -734.34167     102002.7      46.7237      46.7237      46.7237 
   62000     92.66698   -11293.841   -10413.796   -305.79931     102002.7      46.7237      46.7237      46.7237 
   63000    89.015815    -11306.11   -10460.739   -935.31976     102002.7      46.7237      46.7237      46.7237 
   64000    90.448882   -11298.361   -10439.381   -813.83031     102002.7      46.7237      46.7237      46.7237 
   65000    90.091687   -11275.767   -10420.178   -602.54909     102002.7      46.7237      46.7237      46.7237 
   66000    91.236999   -11287.836    -10421.37   -835.72624     102002.7      46.7237      46.7237      46.7237 
   67000     93.00274   -11315.112   -10431.878   -652.02678     102002.7      46.7237      46.7237      46.7237 
   68000    91.777978    -11323.22   -10451.617   -588.33595     102002.7      46.7237      46.7237      46.7237 
   69000    90.569443   -11312.085   -10451.959   -448.37786     102002.7      46.7237      46.7237      46.7237 
   70000    93.190443   -11298.281   -10413.264   -530.87867     102002.7      46.7237      46.7237      46.7237 
   71000    91.064001   -11306.808   -10441.986   -720.60928     102002.7      46.7237      46.7237      46.7237 
   72000    91.282252   -11307.115    -10440.22    -600.6353     102002.7      46.7237      46.7237      46.7237 
   73000    92.451575   -11296.008   -10418.008   -755.09974     102002.7      46.7237      46.7237      46.7237 
   74000    90.515775   -11277.346   -10417.731   -560.25457     102002.7      46.7237      46.7237      46.7237 
   75000    91.588567   -11316.687   -10446.884   -610.65962     102002.7      46.7237      46.7237      46.7237 
   76000     89.66795   -11297.679   -10446.115   -808.52568     102002.7      46.7237      46.7237      46.7237 
   77000    90.035482   -11308.482   -10453.428   -426.62412     102002.7      46.7237      46.7237      46.7237 
   78000    90.954861   -11286.491   -10422.706   -462.02824     102002.7      46.7237      46.7237      46.7237 
   79000    92.000837   -11299.467   -10425.748   -804.79551     102002.7      46.7237      46.7237      46.7237 
   80000    90.812193   -11309.589   -10447.158   -404.95744     102002.7      46.7237      46.7237      46.7237 
   81000    91.673366   -11303.165   -10432.556   -478.32803     102002.7      46.7237      46.7237      46.7237 
   82000    91.711664   -11314.928   -10443.955   -363.04753     102002.7      46.7237      46.7237      46.7237 
   83000    93.082772   -11307.932   -10423.938   -514.37162     102002.7      46.7237      46.7237      46.7237 
   84000     93.31618   -11313.817   -10427.607   -742.43244     102002.7      46.7237      46.7237      46.7237 
   85000    90.617773   -11318.513   -10457.929   -824.21199     102002.7      46.7237      46.7237      46.7237 
   86000    93.015907   -11297.387   -10414.028   -691.59824     102002.7      46.7237      46.7237      46.7237 
   87000    92.175205   -11327.422   -10452.047   -789.72009     102002.7      46.7237      46.7237      46.7237 
   88000    91.446042   -11325.475   -10457.025   -671.15068     102002.7      46.7237      46.7237      46.7237 
   89000    91.436934   -11297.293    -10428.93   -610.23914     102002.7      46.7237      46.7237      46.7237 
   90000    87.836766    -11289.49   -10455.317   -794.02453     102002.7      46.7237      46.7237      46.7237 
   91000    88.615978   -11311.538   -10469.964   -537.50361     102002.7      46.7237      46.7237      46.7237 
   92000    91.377045   -11317.191   -10449.396   -395.45848     102002.7      46.7237      46.7237      46.7237 
   93000    91.622814   -11324.305   -10454.175   -772.27875     102002.7      46.7237      46.7237      46.7237 
   94000    89.399692   -11316.399   -10467.383   -449.36987     102002.7      46.7237      46.7237      46.7237 
   95000    91.291359   -11309.052   -10442.071   -787.46303     102002.7      46.7237      46.7237      46.7237 
   96000    91.420679   -11295.054   -10426.845   -683.01368     102002.7      46.7237      46.7237      46.7237 
   97000    89.906603   -11302.783   -10448.953   -637.65529     102002.7      46.7237      46.7237      46.7237 
   98000    90.409394   -11310.389   -10451.784   -630.02418     102002.7      46.7237      46.7237      46.7237 
   99000    92.227564   -11298.315   -10422.443   -675.96645     102002.7      46.7237      46.7237      46.7237 
  100000    91.723125   -11315.031    -10443.95   -706.41694     102002.7      46.7237      46.7237      46.7237 
  101000    88.576555   -11301.653   -10460.454   -725.97868     102002.7      46.7237      46.7237      46.7237 
  102000    91.259661   -11300.324   -10433.644   -528.08186     102002.7      46.7237      46.7237      46.7237 
  103000    87.848672   -11306.345   -10472.058   -542.85597     102002.7      46.7237      46.7237      46.7237 
  104000    90.006773   -11292.482     -10437.7   -572.64519     102002.7      46.7237      46.7237      46.7237 
  105000    90.051922   -11303.084   -10447.874   -658.79785     102002.7      46.7237      46.7237      46.7237 
  106000    90.123387   -11301.868   -10445.979   -507.10003     102002.7      46.7237      46.7237      46.7237 
  107000    89.710281   -11317.073   -10465.107   -513.95133     102002.7      46.7237      46.7237      46.7237 
  108000    92.742081   -11293.138   -10412.379   -472.44662     102002.7      46.7237      46.7237      46.7237 
  109000    91.198706   -11321.253   -10455.152   -610.43143     102002.7      46.7237      46.7237      46.7237 
  110000    91.669315   -11290.604   -10420.033    -470.9826     102002.7      46.7237      46.7237      46.7237 
  111000     93.30252   -11310.704   -10424.623   -522.72709     102002.7      46.7237      46.7237      46.7237 
  112000    90.952291   -11287.409   -10423.648   -499.21091     102002.7      46.7237      46.7237      46.7237 
  113000    92.601201   -11325.614   -10446.194   -664.99919     102002.7      46.7237      46.7237      46.7237 
  114000     91.97185   -11305.951   -10432.507   -729.48504     102002.7      46.7237      46.7237      46.7237 
  115000    91.440922   -11289.448   -10421.047   -548.85476     102002.7      46.7237      46.7237      46.7237 
  116000    90.527068   -11320.091   -10460.368   -613.50841     102002.7      46.7237      46.7237      46.7237 
  117000    92.723304   -11316.639   -10436.059   -697.33388     102002.7      46.7237      46.7237      46.7237 
  118000    90.059033   -11306.578   -10451.299   -479.30392     102002.7      46.7237      46.7237      46.7237 
  119000    90.823837   -11307.048   -10444.507   -688.82805     102002.7      46.7237      46.7237      46.7237 
  120000    89.458199   -11297.738   -10448.166    -753.7643     102002.7      46.7237      46.7237      46.7237 
  121000    92.683053   -11309.762   -10429.564   -572.48574     102002.7      46.7237      46.7237      46.7237 
  122000    88.878697   -11313.933   -10469.864   -671.75523     102002.7      46.7237      46.7237      46.7237 
  123000    92.308014   -11304.889   -10428.253    -450.0212     102002.7      46.7237      46.7237      46.7237 
  124000     88.02712    -11295.81   -10459.829   -414.97196     102002.7      46.7237      46.7237      46.7237 
  125000     89.92192   -11301.323   -10447.347   -485.46484     102002.7      46.7237      46.7237      46.7237 
  126000    90.356163   -11298.511   -10440.411   -663.39938     102002.7      46.7237      46.7237      46.7237 
  127000    91.588566   -11299.351   -10429.547   -732.36693     102002.7      46.7237      46.7237      46.7237 
  128000    90.530598    -11292.33   -10432.574   -637.06349     102002.7      46.7237      46.7237      46.7237 
  129000    91.570448   -11295.753   -10426.121   -504.57291     102002.7      46.7237      46.7237      46.7237 
  130000    89.987353   -11296.372   -10441.774   -722.20915     102002.7      46.7237      46.7237      46.7237 
  131000    89.648706   -11299.579   -10448.198   -780.31463     102002.7      46.7237      46.7237      46.7237 
  132000    91.834392   -11301.598    -10429.46   -551.82501     102002.7      46.7237      46.7237      46.7237 
  133000    89.469262   -11310.392   -10460.715   -512.13733     102002.7      46.7237      46.7237      46.7237 
  134000    90.193398   -11305.413   -10448.859   -498.53034     102002.7      46.7237      46.7237      46.7237 
  135000    92.398935   -11324.867   -10447.368   -455.10088     102002.7      46.7237      46.7237      46.7237 
  136000    90.317022   -11307.044   -10449.315   -649.42701     102002.7      46.7237      46.7237      46.7237 
  137000    91.154663   -11314.268   -10448.585   -598.43543     102002.7      46.7237      46.7237      46.7237 
  138000    92.936602   -11314.101   -10431.495   -765.12838     102002.7      46.7237      46.7237      46.7237 
  139000    88.823199   -11317.045   -10473.503   -879.36223     102002.7      46.7237      46.7237      46.7237 
  140000    89.877584   -11313.687   -10460.133   -387.95681     102002.7      46.7237      46.7237      46.7237 
  141000    90.178389   -11293.165   -10436.753   -382.58742     102002.7      46.7237      46.7237      46.7237 
  142000    89.374245   -11314.246   -10465.471   -434.24495     102002.7      46.7237      46.7237      46.7237 
  143000    91.891007   -11321.087   -10448.411   -560.19451     102002.7      46.7237      46.7237      46.7237 
  144000    91.900882   -11311.642   -10438.872   -663.97138     102002.7      46.7237      46.7237      46.7237 
  145000    91.506895   -11302.741   -10433.713   -291.81349     102002.7      46.7237      46.7237      46.7237 
  146000    90.050952   -11316.385   -10461.184    -966.9814     102002.7      46.7237      46.7237      46.7237 
  147000    91.395332   -11309.197   -10441.228   -580.72972     102002.7      46.7237      46.7237      46.7237 
  148000    91.396193   -11310.941   -10442.964   -604.07869     102002.7      46.7237      46.7237      46.7237 
  149000    90.521186   -11317.841   -10458.174    -729.5167     102002.7      46.7237      46.7237      46.7237 
  150000    89.080044   -11317.199   -10471.218   -530.50403     102002.7      46.7237      46.7237      46.7237 
  151000    89.254821   -11310.439   -10462.799    -704.6403     102002.7      46.7237      46.7237      46.7237 
  152000    92.295353   -11317.579   -10441.063   -654.50719     102002.7      46.7237      46.7237      46.7237 
  153000    89.466689   -11323.803    -10474.15   -798.29047     102002.7      46.7237      46.7237      46.7237 
  154000    91.472536   -11313.373   -10444.671   -747.51158     102002.7      46.7237      46.7237      46.7237 
  155000    92.581039   -11285.069    -10405.84   -868.77105     102002.7      46.7237      46.7237      46.7237 
  156000    91.091505    -11304.54   -10439.457   -348.17671     102002.7      46.7237      46.7237      46.7237 
  157000    90.214839   -11314.648    -10457.89   -791.29208     102002.7      46.7237      46.7237      46.7237 
  158000    89.983418   -11319.111   -10464.551   -810.87166     102002.7      46.7237      46.7237      46.7237 
  159000    90.517172   -11309.372   -10449.743   -578.44119     102002.7      46.7237      46.7237      46.7237 
  160000    90.556989   -11295.977    -10435.97   -820.40811     102002.7      46.7237      46.7237      46.7237 
  161000    92.048282   -11308.598   -10434.428   -369.51961     102002.7      46.7237      46.7237      46.7237 
  162000    89.843686   -11327.272   -10474.039   -889.73207     102002.7      46.7237      46.7237      46.7237 
  163000    92.827938   -11318.949   -10437.375   -619.34492     102002.7      46.7237      46.7237      46.7237 
  164000     89.01212   -11315.767   -10470.431   -580.02366     102002.7      46.7237      46.7237      46.7237 
  165000    89.564952   -11324.921   -10474.335   -835.16028     102002.7      46.7237      46.7237      46.7237 
  166000    89.761401   -11303.483   -10451.032   -582.96198     102002.7      46.7237      46.7237      46.7237 
  167000    91.884641   -11324.915     -10452.3   -374.77333     102002.7      46.7237      46.7237      46.7237 
  168000    90.497085   -11303.117   -10443.678   -568.82567     102002.7      46.7237      46.7237      46.7237 
  169000    92.296207   -11321.675   -10445.151   -425.68175     102002.7      46.7237      46.7237      46.7237 
  170000    87.186541   -11320.712   -10492.714   -595.91995     102002.7      46.7237      46.7237      46.7237 
  171000    89.601224   -11314.251   -10463.321   -732.22923     102002.7      46.7237      46.7237      46.7237 
  172000    91.410637   -11289.618   -10421.504   -339.12945     102002.7      46.7237      46.7237      46.7237 
  173000    89.846136   -11292.735   -10439.479    -405.3016     102002.7      46.7237      46.7237      46.7237 
  174000    89.740691   -11309.271   -10457.016   -589.22854     102002.7      46.7237      46.7237      46.7237 
  175000    90.216154   -11322.786   -10466.016   -556.42025     102002.7      46.7237      46.7237      46.7237 
  176000    90.178312   -11320.446   -10464.035   -545.00408     102002.7      46.7237      46.7237      46.7237 
  177000    92.257462   -11304.242   -10428.086   -25.142038     102002.7      46.7237      46.7237      46.7237 
  178000    90.311596   -11296.646    -10438.97   -321.02415     102002.7      46.7237      46.7237      46.7237 
  179000    89.392024   -11316.651   -10467.708   -756.57359     102002.7      46.7237      46.7237      46.7237 
  180000    92.410294   -11292.403   -10414.796   -524.38729     102002.7      46.7237      46.7237      46.7237 
  181000    92.715103   -11308.441   -10427.939    -691.2858     102002.7      46.7237      46.7237      46.7237 
  182000    90.090061   -11295.332   -10439.759   -659.94456     102002.7      46.7237      46.7237      46.7237 
  183000    90.692562   -11324.338   -10463.044   -653.50159     102002.7      46.7237      46.7237      46.7237 
  184000    88.764961   -11295.947   -10452.958   -663.24064     102002.7      46.7237      46.7237      46.7237 
  185000    91.835245   -11308.524   -10436.377   -842.27251     102002.7      46.7237      46.7237      46.7237 
  186000     89.82203   -11309.823   -10456.796   -788.64361     102002.7      46.7237      46.7237      46.7237 
  187000    90.758691   -11321.906   -10459.984   -703.34815     102002.7      46.7237      46.7237      46.7237 
  188000    87.355185   -11317.187   -10487.587   -594.54164     102002.7      46.7237      46.7237      46.7237 
  189000    92.100862   -11311.638   -10436.969   -766.61509     102002.7      46.7237      46.7237      46.7237 
  190000     90.32507   -11310.682   -10452.877   -959.20995     102002.7      46.7237      46.7237      46.7237 
  191000    89.132989   -11309.465   -10462.981   -490.82906     102002.7      46.7237      46.7237      46.7237 
  192000    89.343921   -11311.619   -10463.132   -600.44037     102002.7      46.7237      46.7237      46.7237 
  193000     91.39147   -11318.003   -10450.071   -415.88126     102002.7      46.7237      46.7237      46.7237 
  194000     88.75439   -11304.294   -10461.406   -359.51507     102002.7      46.7237      46.7237      46.7237 
  195000    90.964175   -11302.683   -10438.809   -614.28515     102002.7      46.7237      46.7237      46.7237 
  196000    91.823026   -11290.529   -10418.499   -650.92358     102002.7      46.7237      46.7237      46.7237 
  197000    92.276499   -11303.444   -10427.106   -920.15181     102002.7      46.7237      46.7237      46.7237 
  198000    91.442963   -11312.116   -10443.695    -843.8516     102002.7      46.7237      46.7237      46.7237 
  199000    91.529516   -11295.484   -10426.241   -757.85113     102002.7      46.7237      46.7237      46.7237 
  200000    91.864412   -11301.789   -10429.365   -689.59588     102002.7      46.7237      46.7237      46.7237 
  201000    91.152576   -11323.691   -10458.028   -835.50364     102002.7      46.7237      46.7237      46.7237 
  202000    90.729032   -11302.167   -10440.526   -741.76086     102002.7      46.7237      46.7237      46.7237 
  203000    90.115973   -11303.171   -10447.352   -877.14322     102002.7      46.7237      46.7237      46.7237 
  204000    93.682337   -11313.523   -10423.834   -717.85539     102002.7      46.7237      46.7237      46.7237 
  205000    92.808246    -11288.97   -10407.583   -415.65835     102002.7      46.7237      46.7237      46.7237 
  206000    90.760819    -11293.88   -10431.937   -787.91805     102002.7      46.7237      46.7237      46.7237 
  207000     90.76258   -11299.723   -10437.764   -509.11239     102002.7      46.7237      46.7237      46.7237 
  208000    91.525717   -11336.439   -10467.232   -638.42819     102002.7      46.7237      46.7237      46.7237 
  209000    92.097467   -11302.931   -10428.294   -584.92442     102002.7      46.7237      46.7237      46.7237 
  210000    91.197634    -11333.16   -10467.068   -721.26403     102002.7      46.7237      46.7237      46.7237 
  211000    92.465915   -11304.027   -10425.891   -768.99096     102002.7      46.7237      46.7237      46.7237 
  212000    87.755419   -11334.763   -10501.362   -919.28425     102002.7      46.7237      46.7237      46.7237 
  213000    91.806565   -11316.359   -10444.485   -716.79912     102002.7      46.7237      46.7237      46.7237 
  214000    91.887285   -11303.073   -10430.432   -1077.8552     102002.7      46.7237      46.7237      46.7237 
  215000     91.10325   -11336.645    -10471.45   -843.10944     102002.7      46.7237      46.7237      46.7237 
  216000    92.746701   -11312.431   -10431.628   -423.08682     102002.7      46.7237      46.7237      46.7237 
  217000     90.63793   -11320.223   -10459.447    -745.1661     102002.7      46.7237      46.7237      46.7237 
  218000     92.59045   -11306.714   -10427.396   -669.59081     102002.7      46.7237      46.7237      46.7237 
  219000    91.078552   -11329.416   -10464.456   -586.53092     102002.7      46.7237      46.7237      46.7237 
  220000    91.986464   -11306.106   -10432.523   -741.55516     102002.7      46.7237      46.7237      46.7237 
  221000    89.838727   -11308.641   -10455.455    -560.3578     102002.7      46.7237      46.7237      46.7237 
  222000    92.916723   -11317.999   -10435.582   -691.50119     102002.7      46.7237      46.7237      46.7237 
  223000    92.352402    -11297.26   -10420.202   -300.63559     102002.7      46.7237      46.7237      46.7237 
  224000    91.795925   -11313.861   -10442.088   -603.99011     102002.7      46.7237      46.7237      46.7237 
  225000    90.752297   -11296.564   -10434.702    -808.8062     102002.7      46.7237      46.7237      46.7237 
  226000    92.365237   -11275.962   -10398.782   -534.21132     102002.7      46.7237      46.7237      46.7237 
  227000    90.736311   -11302.759   -10441.049   -647.44247     102002.7      46.7237      46.7237      46.7237 
  228000    89.317382   -11292.575    -10444.34   -812.88971     102002.7      46.7237      46.7237      46.7237 
  229000    91.604733   -11308.063   -10438.105   -533.83466     102002.7      46.7237      46.7237      46.7237 
  230000    89.972643    -11284.77   -10430.312   -737.50687     102002.7      46.7237      46.7237      46.7237 
  231000    89.524931   -11318.218   -10468.012   -580.89203     102002.7      46.7237      46.7237      46.7237 
  232000    91.164749   -11305.307   -10439.528    -637.4605     102002.7      46.7237      46.7237      46.7237 
  233000    91.414717   -11315.676   -10447.523   -676.15474     102002.7      46.7237      46.7237      46.7237 
  234000    88.016459   -11302.524   -10466.644   -655.20244     102002.7      46.7237      46.7237      46.7237 
  235000    90.063414   -11317.715   -10462.395   -625.03773     102002.7      46.7237      46.7237      46.7237 
  236000    90.554621   -11297.729   -10437.744   -671.44712     102002.7      46.7237      46.7237      46.7237 
  237000    90.670207   -11315.068   -10453.986   -576.20946     102002.7      46.7237      46.7237      46.7237 
  238000    89.600142   -11319.174   -10468.254   -576.92638     102002.7      46.7237      46.7237      46.7237 
  239000     90.48159   -11286.199   -10426.908   -660.98058     102002.7      46.7237      46.7237      46.7237 
  240000    92.190665   -11315.014   -10439.492   -619.68263     102002.7      46.7237      46.7237      46.7237 
  241000    90.550112   -11303.201    -10443.26    -686.2298     102002.7      46.7237      46.7237      46.7237 
  242000    91.063147   -11308.425   -10443.611   -586.94571     102002.7      46.7237      46.7237      46.7237 
  243000    88.990014   -11317.788   -10472.662   -707.06035     102002.7      46.7237      46.7237      46.7237 
  244000    92.269064   -11326.695   -10450.428   -862.45871     102002.7      46.7237      46.7237      46.7237 
  245000     90.21517   -11304.151    -10447.39   -514.94821     102002.7      46.7237      46.7237      46.7237 
  246000    91.049547   -11320.878   -10456.193    -829.5129     102002.7      46.7237      46.7237      46.7237 
  247000    91.622045   -11297.838   -10427.716   -685.07396     102002.7      46.7237      46.7237      46.7237 
  248000    91.078908   -11304.869   -10439.906   -554.08842     102002.7      46.7237      46.7237      46.7237 
  249000    91.687532   -11319.333   -10448.589   -734.30467     102002.7      46.7237      46.7237      46.7237 
  250000    90.384519   -11304.467   -10446.098   -738.55551     102002.7      46.7237      46.7237      46.7237 
  251000    89.466011   -11314.619   -10464.973   -834.86544     102002.7      46.7237      46.7237      46.7237 
  252000    92.004425    -11306.87   -10433.117   -412.67597     102002.7      46.7237      46.7237      46.7237 
  253000    90.639567   -11297.644   -10436.853   -721.33773     102002.7      46.7237      46.7237      46.7237 
  254000    92.287417   -11314.953   -10438.512   -367.83197     102002.7      46.7237      46.7237      46.7237 
  255000    90.934107   -11295.165   -10431.576   -545.90621     102002.7      46.7237      46.7237      46.7237 
  256000    93.049404     -11315.5   -10431.822   -571.62183     102002.7      46.7237      46.7237      46.7237 
  257000     89.59479   -11305.217   -10454.347   -873.20959     102002.7      46.7237      46.7237      46.7237 
  258000    89.304313   -11329.943   -10481.833   -638.62766     102002.7      46.7237      46.7237      46.7237 
  259000    91.634441   -11313.767   -10443.527   -770.29451     102002.7      46.7237      46.7237      46.7237 
  260000    92.112546    -11309.95    -10435.17   -922.15761     102002.7      46.7237      46.7237      46.7237 
  261000    91.737474   -11311.266   -10440.048   -662.15713     102002.7      46.7237      46.7237      46.7237 
  262000    93.181506   -11317.133   -10432.202   -741.50214     102002.7      46.7237      46.7237      46.7237 
  263000    92.211103   -11302.742   -10427.026   -699.68051     102002.7      46.7237      46.7237      46.7237 
  264000    90.266079   -11298.238   -10440.993   -337.30243     102002.7      46.7237      46.7237      46.7237 
  265000    90.714213   -11318.081    -10456.58   -614.22338     102002.7      46.7237      46.7237      46.7237 
  266000    91.664114   -11332.914   -10462.393   -754.10254     102002.7      46.7237      46.7237      46.7237 
  267000    92.503703    -11306.45   -10427.955   -662.65593     102002.7      46.7237      46.7237      46.7237 
  268000    92.730577   -11313.606   -10432.957    -758.3004     102002.7      46.7237      46.7237      46.7237 
  269000    89.170074   -11309.371   -10462.535   -641.30438     102002.7      46.7237      46.7237      46.7237 
  270000    92.097601   -11298.019   -10423.381   -530.57815     102002.7      46.7237      46.7237      46.7237 
  271000    91.597752   -11340.273   -10470.382   -733.22469     102002.7      46.7237      46.7237      46.7237 
  272000    92.072094   -11315.028   -10440.632   -548.89039     102002.7      46.7237      46.7237      46.7237 
  273000    91.343155   -11299.847   -10432.374    -421.9668     102002.7      46.7237      46.7237      46.7237 
  274000    92.585393   -11327.375   -10448.104   -679.71759     102002.7      46.7237      46.7237      46.7237 
  275000    91.743581   -11295.556    -10424.28   -841.96719     102002.7      46.7237      46.7237      46.7237 
  276000    90.019674    -11306.83   -10451.926   -866.40337     102002.7      46.7237      46.7237      46.7237 
  277000    91.422259   -11322.674   -10454.449   -669.00164     102002.7      46.7237      46.7237      46.7237 
  278000    90.524746   -11318.391    -10458.69   -542.43979     102002.7      46.7237      46.7237      46.7237 
  279000    92.983736   -11303.426   -10420.372   -589.86519     102002.7      46.7237      46.7237      46.7237 
  280000    90.135447   -11310.392   -10454.389   -159.12989     102002.7      46.7237      46.7237      46.7237 
  281000    90.191856   -11314.801   -10458.261   -755.78568     102002.7      46.7237      46.7237      46.7237 
  282000    92.356214   -11321.064    -10443.97   -804.53279     102002.7      46.7237      46.7237      46.7237 
  283000    92.496294    -11306.22   -10427.796   -645.65942     102002.7      46.7237      46.7237      46.7237 
  284000     89.02543   -11284.536   -10439.074   -671.49496     102002.7      46.7237      46.7237      46.7237 
  285000    91.271999   -11308.205   -10441.407    -382.7488     102002.7      46.7237      46.7237      46.7237 
  286000    91.839599   -11307.272   -10435.084   -788.70265     102002.7      46.7237      46.7237      46.7237 
  287000    91.544732   -11287.513   -10418.126   -659.02892     102002.7      46.7237      46.7237      46.7237 
  288000    89.818544    -11326.98   -10473.986   -727.37233     102002.7      46.7237      46.7237      46.7237 
  289000    90.809773   -11304.298   -10441.891   -600.70951     102002.7      46.7237      46.7237      46.7237 
  290000    87.589486   -11302.253   -10470.428   -591.43123     102002.7      46.7237      46.7237      46.7237 
  291000    90.490679   -11291.244   -10431.867   -712.54724     102002.7      46.7237      46.7237      46.7237 
  292000    88.683617   -11314.394   -10472.178   -522.44512     102002.7      46.7237      46.7237      46.7237 
  293000    93.185467   -11331.311   -10446.342   -381.46868     102002.7      46.7237      46.7237      46.7237 
  294000    90.373549   -11310.724   -10452.459   -519.81149     102002.7      46.7237      46.7237      46.7237 
  295000    91.160819   -11301.972    -10436.23   -577.61149     102002.7      46.7237      46.7237      46.7237 
  296000    90.582311   -11321.393   -10461.145    -472.3422     102002.7      46.7237      46.7237      46.7237 
  297000    90.529974   -11298.428   -10438.677   -486.46606     102002.7      46.7237      46.7237      46.7237 
  298000    92.856228   -11313.354   -10431.512   -594.67616     102002.7      46.7237      46.7237      46.7237 
  299000    92.771729   -11295.002   -10413.962   -436.77278     102002.7      46.7237      46.7237      46.7237 
  300000    89.445945   -11305.173   -10455.717   -428.05008     102002.7      46.7237      46.7237      46.7237 
  301000    92.242114   -11290.303   -10414.293   -525.19669     102002.7      46.7237      46.7237      46.7237 
  302000    91.345755   -11326.496   -10458.998   -528.92195     102002.7      46.7237      46.7237      46.7237 
  303000    90.393237   -11299.189   -10440.737    -576.5205     102002.7      46.7237      46.7237      46.7237 
  304000    89.455939   -11284.732   -10435.181    -507.0251     102002.7      46.7237      46.7237      46.7237 
  305000     91.70836   -11305.267   -10434.326   -441.49222     102002.7      46.7237      46.7237      46.7237 
  306000    91.914426   -11316.378   -10443.479   -553.44267     102002.7      46.7237      46.7237      46.7237 
  307000    91.781066   -11310.201   -10438.569   -414.81786     102002.7      46.7237      46.7237      46.7237 
  308000    89.677162   -11310.958   -10459.307   -500.02141     102002.7      46.7237      46.7237      46.7237 
  309000     90.16227   -11315.275   -10459.017   -584.66793     102002.7      46.7237      46.7237      46.7237 
  310000    91.408023   -11306.493   -10438.404   -369.31757     102002.7      46.7237      46.7237      46.7237 
  311000    90.292529   -11308.223   -10450.728   -595.28853     102002.7      46.7237      46.7237      46.7237 
  312000    90.176571   -11291.033   -10434.639   -495.67237     102002.7      46.7237      46.7237      46.7237 
  313000    93.411387    -11312.36   -10425.245   -429.39515     102002.7      46.7237      46.7237      46.7237 
  314000    88.693296   -11323.555   -10481.247   -776.30315     102002.7      46.7237      46.7237      46.7237 
  315000    91.000024    -11304.98   -10440.765   -592.11873     102002.7      46.7237      46.7237      46.7237 
  316000    92.298953   -11318.869   -10442.318   -570.97323     102002.7      46.7237      46.7237      46.7237 
  317000    90.769305   -11291.956   -10429.933   -551.27046     102002.7      46.7237      46.7237      46.7237 
  318000    93.094852   -11304.138   -10420.029   -543.28097     102002.7      46.7237      46.7237      46.7237 
  319000    90.069447   -11302.355   -10446.978   -863.11895     102002.7      46.7237      46.7237      46.7237 
  320000    91.038227   -11303.393   -10438.816   -510.66275     102002.7      46.7237      46.7237      46.7237 
  321000    91.483945   -11293.383   -10424.573   -743.35678     102002.7      46.7237      46.7237      46.7237 
  322000    91.689622   -11307.629   -10436.866   -680.79454     102002.7      46.7237      46.7237      46.7237 
  323000    89.796925   -11313.172   -10460.383   -742.46608     102002.7      46.7237      46.7237      46.7237 
  324000    90.967657   -11315.989   -10452.082   -638.46519     102002.7      46.7237      46.7237      46.7237 
  325000    91.240897   -11298.342    -10431.84   -470.87699     102002.7      46.7237      46.7237      46.7237 
  326000    90.624977   -11316.792   -10456.139   -664.08833     102002.7      46.7237      46.7237      46.7237 
  327000    92.540391   -11290.333    -10411.49   -548.00676     102002.7      46.7237      46.7237      46.7237 
  328000    91.358241   -11300.158   -10432.541   -425.73633     102002.7      46.7237      46.7237      46.7237 
  329000    91.394269   -11310.623   -10442.664   -791.34885     102002.7      46.7237      46.7237      46.7237 
  330000     92.73987   -11308.723   -10427.985   -798.13985     102002.7      46.7237      46.7237      46.7237 
  331000    93.685056   -11322.489   -10432.776   -676.55376     102002.7      46.7237      46.7237      46.7237 
  332000    91.068185   -11333.173   -10468.311   -1078.6214     102002.7      46.7237      46.7237      46.7237 
  333000    93.053721    -11303.22   -10419.502   -650.74471     102002.7      46.7237      46.7237      46.7237 
  334000    89.997441   -11319.433    -10464.74   -762.66151     102002.7      46.7237      46.7237      46.7237 
  335000    90.926342   -11299.373   -10435.858    -700.8918     102002.7      46.7237      46.7237      46.7237 
  336000    89.645917   -11317.776   -10466.421   -476.91974     102002.7      46.7237      46.7237      46.7237 
  337000    92.667886   -11311.494    -10431.44   -528.32602     102002.7      46.7237      46.7237      46.7237 
  338000    91.518779   -11303.594   -10434.453   -482.27815     102002.7      46.7237      46.7237      46.7237 
  339000    90.399524   -11315.782    -10457.27   -710.20818     102002.7      46.7237      46.7237      46.7237 
  340000     93.33007   -11309.322   -10422.979   -716.85904     102002.7      46.7237      46.7237      46.7237 
  341000    91.108136   -11306.132    -10440.89   -431.53722     102002.7      46.7237      46.7237      46.7237 
  342000     92.80589   -11310.109   -10428.745   -343.29048     102002.7      46.7237      46.7237      46.7237 
  343000    92.117875   -11317.889   -10443.058   -465.57718     102002.7      46.7237      46.7237      46.7237 
  344000    90.656392   -11326.296   -10465.345   -221.49264     102002.7      46.7237      46.7237      46.7237 
  345000    91.946577   -11315.868   -10442.664   -793.40957     102002.7      46.7237      46.7237      46.7237 
  346000    92.901978   -11318.802   -10436.524   -628.60637     102002.7      46.7237      46.7237      46.7237 
  347000    89.442236   -11327.347   -10477.926   -725.67694     102002.7      46.7237      46.7237      46.7237 
  348000     89.64836   -11311.062   -10459.684   -646.56631     102002.7      46.7237      46.7237      46.7237 
  349000    91.908747    -11292.18   -10419.336   -503.69937     102002.7      46.7237      46.7237      46.7237 
  350000    90.904463   -11295.746   -10432.439   -350.16661     102002.7      46.7237      46.7237      46.7237 
  351000    92.328713   -11303.264   -10426.431   -492.56868     102002.7      46.7237      46.7237      46.7237 
  352000    90.069105   -11325.443   -10470.069    -659.7462     102002.7      46.7237      46.7237      46.7237 
  353000    92.586889   -11297.616   -10418.331   -520.46605     102002.7      46.7237      46.7237      46.7237 
  354000    90.389406   -11323.056    -10464.64    -770.3152     102002.7      46.7237      46.7237      46.7237 
  355000    93.414575   -11305.328   -10418.183   -443.81738     102002.7      46.7237      46.7237      46.7237 
  356000    91.285068   -11298.276   -10431.354   -220.77947     102002.7      46.7237      46.7237      46.7237 
  357000     90.33427   -11326.806   -10468.914   -584.84661     102002.7      46.7237      46.7237      46.7237 
  358000    91.951496   -11306.899   -10433.648   -670.70568     102002.7      46.7237      46.7237      46.7237 
  359000     90.41439   -11320.158   -10461.505   -452.20284     102002.7      46.7237      46.7237      46.7237 
  360000    93.847649   -11299.834   -10408.576   -680.54072     102002.7      46.7237      46.7237      46.7237 
  361000    89.881122     -11323.6   -10470.011   -816.49689     102002.7      46.7237      46.7237      46.7237 
  362000    91.675548   -11304.626   -10433.996   -521.49117     102002.7      46.7237      46.7237      46.7237 
  363000    93.561163   -11350.787   -10462.249   -734.52889     102002.7      46.7237      46.7237      46.7237 
  364000    92.715882   -11318.343   -10437.833   -663.69203     102002.7      46.7237      46.7237      46.7237 
  365000    90.148693   -11303.013   -10446.884   -652.96531     102002.7      46.7237      46.7237      46.7237 
  366000    91.984756   -11311.718   -10438.152   -860.25937     102002.7      46.7237      46.7237      46.7237 
  367000    89.382887   -11311.733   -10462.876   -811.42608     102002.7      46.7237      46.7237      46.7237 
  368000    90.035343   -11286.285   -10431.232   -689.95283     102002.7      46.7237      46.7237      46.7237 
  369000    90.970818   -11306.955   -10443.018   -519.26878     102002.7      46.7237      46.7237      46.7237 
  370000    88.370138   -11313.293   -10474.055   -685.05852     102002.7      46.7237      46.7237      46.7237 
  371000    91.656262   -11327.028   -10456.582   -554.58732     102002.7      46.7237      46.7237      46.7237 
  372000    93.533429   -11331.003   -10442.729   -753.73543     102002.7      46.7237      46.7237      46.7237 
  373000    92.270618   -11283.232   -10406.951   -611.13269     102002.7      46.7237      46.7237      46.7237 
  374000    90.301361   -11315.147   -10457.568    -587.7475     102002.7      46.7237      46.7237      46.7237 
  375000    91.712721   -11306.999   -10436.016    -819.5602     102002.7      46.7237      46.7237      46.7237 
  376000    92.628544   -11289.247   -10409.567   -653.93398     102002.7      46.7237      46.7237      46.7237 
  377000    89.806259   -11304.966   -10452.088   -590.51824     102002.7      46.7237      46.7237      46.7237 
  378000    90.242285   -11319.957   -10462.938     -629.172     102002.7      46.7237      46.7237      46.7237 
  379000    93.861643   -11293.758   -10402.367   -694.65403     102002.7      46.7237      46.7237      46.7237 
  380000    91.242313   -11309.279   -10442.763     -659.683     102002.7      46.7237      46.7237      46.7237 
  381000    93.276165   -11291.363   -10405.532   -427.22233     102002.7      46.7237      46.7237      46.7237 
  382000    91.511698   -11316.826   -10447.752   -706.63523     102002.7      46.7237      46.7237      46.7237 
  383000    89.581953    -11308.02   -10457.273   -554.51492     102002.7      46.7237      46.7237      46.7237 
  384000    91.448033   -11317.461   -10448.992   -604.36013     102002.7      46.7237      46.7237      46.7237 
  385000    90.792557   -11305.347   -10443.103   -574.54536     102002.7      46.7237      46.7237      46.7237 
  386000    90.408497   -11312.642   -10454.045   -446.48884     102002.7      46.7237      46.7237      46.7237 
  387000     91.22906   -11321.121   -10454.731   -531.09814     102002.7      46.7237      46.7237      46.7237 
  388000    89.632235   -11331.532   -10480.307   -587.17758     102002.7      46.7237      46.7237      46.7237 
  389000    91.577094   -11306.781   -10437.086   -858.62174     102002.7      46.7237      46.7237      46.7237 
  390000    90.762583   -11311.567   -10449.608   -639.90418     102002.7      46.7237      46.7237      46.7237 
  391000    92.316235    -11320.24   -10443.525   -622.31358     102002.7      46.7237      46.7237      46.7237 
  392000    90.153442   -11329.893   -10473.718   -517.95689     102002.7      46.7237      46.7237      46.7237 
  393000    92.004178   -11318.147   -10444.396   -740.50384     102002.7      46.7237      46.7237      46.7237 
  394000    88.812223   -11331.103   -10487.666   -602.57586     102002.7      46.7237      46.7237      46.7237 
  395000    91.865756   -11305.768   -10433.331   -852.66044     102002.7      46.7237      46.7237      46.7237 
  396000    90.485403     -11285.5   -10426.172   -548.23375     102002.7      46.7237      46.7237      46.7237 
  397000    91.429185   -11320.203   -10451.913   -579.36698     102002.7      46.7237      46.7237      46.7237 
  398000    92.654893   -11297.806   -10417.875   -601.59604     102002.7      46.7237      46.7237      46.7237 
  399000    92.665218   -11312.667   -10432.639   -486.94572     102002.7      46.7237      46.7237      46.7237 
  400000    90.044551    -11306.05    -10450.91   -700.97767     102002.7      46.7237      46.7237      46.7237 
  401000     91.24955   -11304.682   -10438.098   -425.16125     102002.7      46.7237      46.7237      46.7237 
  402000    89.045735   -11318.073   -10472.418   -257.91582     102002.7      46.7237      46.7237      46.7237 
  403000     90.16157   -11334.712    -10478.46   -649.04669     102002.7      46.7237      46.7237      46.7237 
  404000    91.224376   -11272.827   -10406.482   -483.26449     102002.7      46.7237      46.7237      46.7237 
  405000    91.069098   -11338.687   -10473.817   -722.21904     102002.7      46.7237      46.7237      46.7237 
  406000    91.630203   -11311.831   -10441.632   -441.71851     102002.7      46.7237      46.7237      46.7237 
  407000    88.281637       -11298   -10459.602   -560.94378     102002.7      46.7237      46.7237      46.7237 
  408000    91.787982   -11305.504   -10433.806   -687.90532     102002.7      46.7237      46.7237      46.7237 
  409000    92.220455   -11317.759   -10441.954   -490.08436     102002.7      46.7237      46.7237      46.7237 
  410000    89.033359   -11291.744   -10446.206   -570.85344     102002.7      46.7237      46.7237      46.7237 
  411000    90.159146   -11299.855   -10443.627   -824.35798     102002.7      46.7237      46.7237      46.7237 
  412000    93.485018    -11287.76   -10399.946   -542.37578     102002.7      46.7237      46.7237      46.7237 
  413000    90.707367    -11307.33   -10445.895   -934.24061     102002.7      46.7237      46.7237      46.7237 
  414000    90.604996   -11314.944   -10454.481   -601.12469     102002.7      46.7237      46.7237      46.7237 
  415000    91.153334   -11304.427   -10438.756   -666.72437     102002.7      46.7237      46.7237      46.7237 
  416000    90.854063   -11324.251   -10461.422   -762.29616     102002.7      46.7237      46.7237      46.7237 
  417000      89.9448   -11312.466   -10458.273   -727.70515     102002.7      46.7237      46.7237      46.7237 
  418000    90.640035   -11322.649   -10461.853   -506.77964     102002.7      46.7237      46.7237      46.7237 
  419000    90.460014   -11294.032   -10434.946   -691.39686     102002.7      46.7237      46.7237      46.7237 
  420000    92.432111   -11335.936   -10458.121   -910.06569     102002.7      46.7237      46.7237      46.7237 
  421000    93.165295   -11305.303   -10420.525   -567.10567     102002.7      46.7237      46.7237      46.7237 
  422000    91.880346   -11272.208   -10399.633   -799.50872     102002.7      46.7237      46.7237      46.7237 
  423000    91.426392   -11316.015   -10447.752   -613.12643     102002.7      46.7237      46.7237      46.7237 
  424000    90.920386   -11288.408    -10424.95    -650.8334     102002.7      46.7237      46.7237      46.7237 
  425000    91.022498   -11311.761   -10447.333    -628.9707     102002.7      46.7237      46.7237      46.7237 
  426000     90.64921    -11325.99   -10465.107   -502.83491     102002.7      46.7237      46.7237      46.7237 
  427000    92.075096   -11294.777   -10420.353   -626.11861     102002.7      46.7237      46.7237      46.7237 
  428000    92.543559   -11324.736   -10445.863   -793.34163     102002.7      46.7237      46.7237      46.7237 
  429000     91.95467   -11322.574   -10449.293   -640.62002     102002.7      46.7237      46.7237      46.7237 
  430000    90.952833   -11302.425   -10438.658    -761.7353     102002.7      46.7237      46.7237      46.7237 
  431000    90.755021   -11311.156   -10449.269   -801.48594     102002.7      46.7237      46.7237      46.7237 
  432000    89.265682   -11313.751   -10466.007   -791.53959     102002.7      46.7237      46.7237      46.7237 
  433000    90.284395   -11325.742   -10468.323   -417.77561     102002.7      46.7237      46.7237      46.7237 
  434000    89.739691   -11285.444   -10433.199   -310.92432     102002.7      46.7237      46.7237      46.7237 
  435000    89.853574   -11310.043   -10456.716   -614.64256     102002.7      46.7237      46.7237      46.7237 
  436000    89.998986   -11286.032   -10431.325   -757.72694     102002.7      46.7237      46.7237      46.7237 
  437000    90.499711    -11281.24   -10421.777   -434.99538     102002.7      46.7237      46.7237      46.7237 
  438000    89.681327   -11301.369   -10449.678   -629.04051     102002.7      46.7237      46.7237      46.7237 
  439000    94.798083   -11298.729   -10398.445   -485.52992     102002.7      46.7237      46.7237      46.7237 
  440000    90.034335   -11305.591   -10450.547   -524.89161     102002.7      46.7237      46.7237      46.7237 
  441000    89.791596   -11293.049   -10440.311   -806.65233     102002.7      46.7237      46.7237      46.7237 
  442000    91.427217   -11297.405   -10429.134   -593.26818     102002.7      46.7237      46.7237      46.7237 
  443000    91.044277   -11316.462   -10451.827   -724.83922     102002.7      46.7237      46.7237      46.7237 
  444000    90.036257    -11318.04   -10462.978   -459.94598     102002.7      46.7237      46.7237      46.7237 
  445000    89.571709   -11282.726   -10432.075    -430.3882     102002.7      46.7237      46.7237      46.7237 
  446000    90.197062   -11297.633   -10441.044   -626.57975     102002.7      46.7237      46.7237      46.7237 
  447000    91.457597   -11281.853   -10413.293   -575.16254     102002.7      46.7237      46.7237      46.7237 
  448000    89.884438    -11296.01    -10442.39   -572.19966     102002.7      46.7237      46.7237      46.7237 
  449000    90.245174   -11316.357   -10459.311   -687.71067     102002.7      46.7237      46.7237      46.7237 
  450000    89.836233    -11336.81   -10483.647   -855.50137     102002.7      46.7237      46.7237      46.7237 
  451000    92.414695   -11326.659   -10449.009   -560.67139     102002.7      46.7237      46.7237      46.7237 
  452000    90.584326   -11295.535   -10435.268   -399.52161     102002.7      46.7237      46.7237      46.7237 
  453000     90.75447   -11309.928   -10448.045   -617.86611     102002.7      46.7237      46.7237      46.7237 
  454000     90.86067   -11292.182   -10429.291   -709.37099     102002.7      46.7237      46.7237      46.7237 
  455000      90.8097   -11289.201   -10426.794   -697.89662     102002.7      46.7237      46.7237      46.7237 
  456000    92.256677   -11315.862   -10439.714   -624.22097     102002.7      46.7237      46.7237      46.7237 
  457000    89.571369   -11306.791   -10456.144   -504.59371     102002.7      46.7237      46.7237      46.7237 
  458000     91.02309   -11318.027   -10453.594   -477.52387     102002.7      46.7237      46.7237      46.7237 
  459000    90.904062   -11303.124   -10439.821   -582.13017     102002.7      46.7237      46.7237      46.7237 
  460000    91.902284   -11298.167   -10425.384   -611.44598     102002.7      46.7237      46.7237      46.7237 
  461000    92.020343   -11311.387   -10437.483   -535.21265     102002.7      46.7237      46.7237      46.7237 
  462000     91.87623   -11301.375    -10428.84   -691.10045     102002.7      46.7237      46.7237      46.7237 
  463000     89.43015   -11302.435    -10453.13   -639.92032     102002.7      46.7237      46.7237      46.7237 
  464000    91.319044   -11309.656   -10442.411   -526.76069     102002.7      46.7237      46.7237      46.7237 
  465000    91.206249   -11291.417   -10425.243   -735.20628     102002.7      46.7237      46.7237      46.7237 
  466000    89.945739   -11312.941   -10458.739   -613.60497     102002.7      46.7237      46.7237      46.7237 
  467000    90.474763    -11306.29   -10447.063   -660.74528     102002.7      46.7237      46.7237      46.7237 
  468000    91.995515   -11292.882   -10419.214    -335.2897     102002.7      46.7237      46.7237      46.7237 
  469000     90.43844   -11327.987   -10469.106   -477.78807     102002.7      46.7237      46.7237      46.7237 
  470000    92.730186   -11315.811   -10435.165   -605.32762     102002.7      46.7237      46.7237      46.7237 
  471000    88.322288   -11324.927   -10486.142    -599.1701     102002.7      46.7237      46.7237      46.7237 
  472000     91.01567   -11321.892   -10457.529   -870.65408     102002.7      46.7237      46.7237      46.7237 
  473000    91.987693   -11325.267   -10451.672    -758.4598     102002.7      46.7237      46.7237      46.7237 
  474000     91.23532   -11317.617   -10451.168    -848.4757     102002.7      46.7237      46.7237      46.7237 
  475000    91.952396    -11322.95   -10449.691   -979.62059     102002.7      46.7237      46.7237      46.7237 
  476000    92.820065    -11317.23   -10435.731    -685.9723     102002.7      46.7237      46.7237      46.7237 
  477000    88.233481   -11324.816   -10486.875    -701.3228     102002.7      46.7237      46.7237      46.7237 
  478000    92.697882   -11301.964   -10421.625   -718.87663     102002.7      46.7237      46.7237      46.7237 
  479000    90.367954   -11304.843   -10446.631   -621.20102     102002.7      46.7237      46.7237      46.7237 
  480000    89.230386   -11297.138   -10449.729   -922.15916     102002.7      46.7237      46.7237      46.7237 
  481000    91.225493   -11314.407   -10448.052   -587.99686     102002.7      46.7237      46.7237      46.7237 
  482000    89.992744   -11294.572   -10439.924   -587.38447     102002.7      46.7237      46.7237      46.7237 
  483000    91.055944   -11328.746   -10464.001   -701.97939     102002.7      46.7237      46.7237      46.7237 
  484000    91.771259   -11296.844   -10425.305   -766.85765     102002.7      46.7237      46.7237      46.7237 
  485000    90.780795   -11332.293   -10470.161   -802.63739     102002.7      46.7237      46.7237      46.7237 
  486000    90.622707   -11332.067   -10471.436   -794.74289     102002.7      46.7237      46.7237      46.7237 
  487000    91.732296   -11308.901   -10437.733   -652.02928     102002.7      46.7237      46.7237      46.7237 
  488000    90.054177   -11304.382    -10449.15   -624.22407     102002.7      46.7237      46.7237      46.7237 
  489000    92.479554    -11340.17   -10461.905   -707.42131     102002.7      46.7237      46.7237      46.7237 
  490000    92.212051   -11288.716   -10412.991   -799.97525     102002.7      46.7237      46.7237      46.7237 
  491000    91.836667   -11318.143   -10445.983    -525.2014     102002.7      46.7237      46.7237      46.7237 
  492000    89.509583   -11318.377   -10468.317   -603.79979     102002.7      46.7237      46.7237      46.7237 
  493000    88.193319   -11301.254   -10463.694   -536.75994     102002.7      46.7237      46.7237      46.7237 
  494000     90.94145   -11299.417   -10435.758   -581.35831     102002.7      46.7237      46.7237      46.7237 
  495000    91.400137   -11306.175    -10438.16   -717.49248     102002.7      46.7237      46.7237      46.7237 
  496000     90.06025   -11309.624   -10454.334   -677.13459     102002.7      46.7237      46.7237      46.7237 
  497000    90.318933   -11328.033   -10470.287   -771.88005     102002.7      46.7237      46.7237      46.7237 
  498000    91.885391   -11321.976   -10449.353   -514.78973     102002.7      46.7237      46.7237      46.7237 
  499000    91.853019   -11308.872   -10436.557   -509.95572     102002.7      46.7237      46.7237      46.7237 
  500000    91.023711   -11328.308   -10463.869   -819.79234     102002.7      46.7237      46.7237      46.7237 
  500500    89.683946    -11315.12   -10463.404   -608.17172     102002.7      46.7237      46.7237      46.7237 
Loop time of 1950.41 on 16 procs for 500000 steps with 3187 atoms

Performance: 22.149 ns/day, 1.084 hours/ns, 256.356 timesteps/s
99.9% CPU use with 16 MPI tasks x no OpenMP threads

MPI task timing breakdown:
Section |  min time  |  avg time  |  max time  |%varavg| %total
---------------------------------------------------------------
Pair    | 731.07     | 1162.9     | 1539.8     | 603.0 | 59.62
Bond    | 115.17     | 175.01     | 215.06     | 197.8 |  8.97
Neigh   | 15.013     | 15.049     | 15.099     |   0.8 |  0.77
Comm    | 175.98     | 579.65     | 1072.5     | 938.9 | 29.72
Output  | 0.021898   | 0.022434   | 0.026302   |   0.7 |  0.00
Modify  | 8.1853     | 10.851     | 13.21      |  56.6 |  0.56
Other   |            | 6.916      |            |       |  0.35

Nlocal:    199.188 ave 238 max 153 min
Histogram: 1 0 3 2 2 0 2 3 2 1
Nghost:    4041.38 ave 4084 max 4006 min
Histogram: 3 0 2 1 3 2 2 0 2 1
Neighs:    11456.8 ave 17175 max 5839 min
Histogram: 1 1 2 0 5 3 0 2 1 1

Total # of neighbors = 183309
Ave neighs/atom = 57.5177
Ave special neighs/atom = 3.61468
Neighbor list builds = 4206
Dangerous builds = 0
Neighbor list info ...
  update every 1 steps, delay 10 steps, check yes
  max neighbors/atom: 2000, page size: 100000
  master list distance cutoff = 16
  ghost atom cutoff = 16
  binsize = 8, bins = 6 6 6
  3 neighbor lists, perpetual/occasional/extra = 3 0 0
  (1) pair buck6d/coul/gauss/dsf, perpetual, skip from (3)
      attributes: half, newton on
      pair build: skip
      stencil: none
      bin: none
  (2) pair lj/cut, perpetual, skip from (3)
      attributes: half, newton on
      pair build: skip
      stencil: none
      bin: none
  (3) neighbor class addition, perpetual
      attributes: half, newton on
      pair build: half/bin/newton
      stencil: half/bin/3d/newton
      bin: standard
Setting up Verlet run ...
  Unit style    : real
  Current step  : 500500
  Time step     : 1
WARNING: Inconsistent image flags (../domain.cpp:786)
Per MPI rank memory allocation (min/avg/max) = 22.66 | 23.19 | 23.44 Mbytes
Step Time TotEng KinEng PotEng E_mol E_pair Temp Pxx Pyy Pzz Pxy Pxz Pyz Cella Cellb Cellc CellAlpha CellBeta CellGamma Volume Press 
  500500       500000   -10463.404    851.71595    -11315.12    4179.7416   -15494.861    89.683946   -345.49209   -800.37001   -678.65307    75.763588    166.10417   -48.707453      46.7237      46.7237      46.7237           90           90           90     102002.7   -608.17172 
  501000       500500   -10448.212    866.14058   -11314.353    4185.2637   -15499.617    91.202829   -815.03349   -735.76017   -700.77616    214.63878    57.826304   -276.66142      46.7237      46.7237      46.7237           90           90           90     102002.7   -750.52327 
  502000       501500   -10449.274    862.87802   -11312.152    4181.7892   -15493.942    90.859289   -596.48796   -812.60285   -555.74845    48.102745   -55.206637    217.26659      46.7237      46.7237      46.7237           90           90           90     102002.7   -654.94642 
  503000       502500   -10454.545    856.10873   -11310.654    4169.9794   -15480.634    90.146497   -628.18637   -684.93865    -595.7412    164.54774   -238.09353    123.97004      46.7237      46.7237      46.7237           90           90           90     102002.7   -636.28874 
  504000       503500   -10432.704    863.96741   -11296.672     4184.287   -15480.959    90.973999    -366.8498   -298.96611    -650.6869    30.211243   -252.75472    183.69901      46.7237      46.7237      46.7237           90           90           90     102002.7   -438.83427 
  505000       504500   -10430.629    882.99438   -11313.623     4187.685   -15501.308    92.977501   -664.43365   -613.63994   -467.10254    148.50686    247.06507   -57.993336      46.7237      46.7237      46.7237           90           90           90     102002.7   -581.72538 
  506000       505500   -10437.252    864.13034   -11301.383    4191.5749   -15492.958    90.991155   -847.57082   -490.23096   -488.29828      184.009   -60.194335    199.40538      46.7237      46.7237      46.7237           90           90           90     102002.7   -608.70002 
  507000       506500   -10416.262    885.68808    -11301.95    4188.5606    -15490.51    93.261141   -665.14778    -824.5769   -654.78966     63.62965   -40.483483   -188.90552      46.7237      46.7237      46.7237           90           90           90     102002.7   -714.83812 
  508000       507500   -10451.121    843.40931    -11294.53    4188.5134   -15483.044    88.809274    -203.3745   -476.48997   -701.49058    63.094396    -2.755495   -186.99345      46.7237      46.7237      46.7237           90           90           90     102002.7   -460.45168 
  509000       508500    -10453.89     855.1577   -11309.048    4178.6492   -15487.697    90.046355   -517.35019   -793.70486   -524.51623   -100.74548    -24.40361   -477.65104      46.7237      46.7237      46.7237           90           90           90     102002.7   -611.85709 
  510000       509500   -10451.876    869.48398    -11321.36    4184.9946   -15506.355    91.554883   -478.51023   -919.88193   -675.31247    197.92952    19.719905   -110.87472      46.7237      46.7237      46.7237           90           90           90     102002.7   -691.23488 
  511000       510500   -10456.266    867.51602   -11323.782     4192.517   -15516.299    91.347661   -341.01775   -1013.0052   -876.36207    10.221395    -70.29385   -37.844778      46.7237      46.7237      46.7237           90           90           90     102002.7   -743.46167 
  512000       511500   -10443.175    870.31498    -11313.49    4175.5158   -15489.006    91.642386   -550.43004   -1050.7352   -676.95139    215.70315    96.062668   -140.08868      46.7237      46.7237      46.7237           90           90           90     102002.7   -759.37221 
  513000       512500   -10456.378    864.27148   -11320.649     4192.143   -15512.792    91.006017   -662.08401   -984.03464   -646.13946    119.63967   -20.952927    5.9070494      46.7237      46.7237      46.7237           90           90           90     102002.7   -764.08604 
  514000       513500   -10441.082    867.05979   -11308.142    4171.3898   -15479.531     91.29962   -888.72618   -256.55546    96.122254     89.45962   -203.50923    55.012131      46.7237      46.7237      46.7237           90           90           90     102002.7   -349.71979 
  515000       514500   -10439.804    877.09593     -11316.9    4183.3057   -15500.205    92.356406   -777.39958   -1256.2549   -566.28463    73.475023    112.02574    11.800074      46.7237      46.7237      46.7237           90           90           90     102002.7   -866.64637 
  516000       515500   -10455.871    860.38263   -11316.253    4187.6805   -15503.934    90.596529   -568.01641   -828.70056   -251.41688   -189.78625    242.49777   -145.53284      46.7237      46.7237      46.7237           90           90           90     102002.7   -549.37795 
  517000       516500   -10449.497    853.17931   -11302.676     4177.714    -15480.39    89.838035   -719.99981   -642.56292   -758.85695   -162.07918    25.110758    182.40533      46.7237      46.7237      46.7237           90           90           90     102002.7   -707.13989 
  518000       517500   -10415.531    875.00444   -11290.535     4197.686   -15488.221    92.136176   -727.16758   -1252.1751   -1007.7571    139.63267    61.164713   -179.17536      46.7237      46.7237      46.7237           90           90           90     102002.7   -995.69993 
  519000       518500   -10427.634    876.42128   -11304.055    4190.0268   -15494.082    92.285366   -9.3617316   -598.45474   -663.90131    188.99324   -190.59517     46.36301      46.7237      46.7237      46.7237           90           90           90     102002.7   -423.90593 
  520000       519500     -10404.4    881.19103   -11285.591    4199.7027   -15485.294    92.787611   -524.36931   -878.16261   -285.26179    56.870462   -2.4293862   -160.86244      46.7237      46.7237      46.7237           90           90           90     102002.7   -562.59791 
  521000       520500   -10440.388    856.00012   -11296.388    4190.7056   -15487.093     90.13506   -631.82862   -628.03186   -831.23565    54.868407    98.704654   -66.302067      46.7237      46.7237      46.7237           90           90           90     102002.7   -697.03205 
  522000       521500   -10434.758    866.40138   -11301.159    4207.5118   -15508.671    91.230292   -534.94186   -613.80617   -577.69172   -61.306841    43.481252    201.85437      46.7237      46.7237      46.7237           90           90           90     102002.7   -575.47992 
  523000       522500   -10441.334    842.55404   -11283.888    4204.8687   -15488.757    88.719215   -890.74089   -755.18444   -579.64043   -108.31145    68.236663   -53.586348      46.7237      46.7237      46.7237           90           90           90     102002.7   -741.85525 
  524000       523500    -10461.49    860.47858   -11321.968    4191.4706   -15513.439    90.606633   -587.38469   -178.28699   -750.40352    109.87921   -60.156604   -123.48711      46.7237      46.7237      46.7237           90           90           90     102002.7    -505.3584 
  525000       524500   -10467.556     863.1567   -11330.713    4178.1176    -15508.83    90.888634   -535.82594   -529.51748      -930.34    194.53393   -193.85308    -159.3084      46.7237      46.7237      46.7237           90           90           90     102002.7   -665.22781 
  526000       525500   -10448.144    866.65754   -11314.802    4167.6653   -15482.467    91.257264   -121.86685   -248.80796   -534.16763    118.33176   -204.93415   -16.344191      46.7237      46.7237      46.7237           90           90           90     102002.7   -301.61415 
  527000       526500   -10424.741    867.99041   -11292.731    4202.7787    -15495.51    91.397613   -797.66027   -625.71237   -364.17223    101.73073   -248.28485     58.66121      46.7237      46.7237      46.7237           90           90           90     102002.7   -595.84829 
  528000       527500   -10467.286    863.46517   -11330.751     4176.825   -15507.576    90.921115   -885.52207   -644.62528   -830.51989     18.76623   -228.41007   -39.055426      46.7237      46.7237      46.7237           90           90           90     102002.7   -786.88908 
  529000       528500   -10405.739    881.34766   -11287.087    4199.5404   -15486.627    92.804104   -860.18912   -314.34119   -585.45898   -9.3302447   -22.497006    22.524631      46.7237      46.7237      46.7237           90           90           90     102002.7   -586.66309 
  530000       529500   -10451.041     858.4202   -11309.461    4189.5172   -15498.979     90.38989   -371.94877     -526.792   -700.50275    36.057519   -88.034592    56.464765      46.7237      46.7237      46.7237           90           90           90     102002.7   -533.08117 
  531000       530500    -10460.06    878.06186   -11338.122    4170.0443   -15508.166    92.458116   -723.22646   -483.19153   -877.99135    -109.4706   -114.86143    41.702639      46.7237      46.7237      46.7237           90           90           90     102002.7   -694.80311 
  532000       531500   -10445.774    865.53654    -11311.31    4195.6611   -15506.972    91.139225   -882.07915   -265.35282   -791.86827   -145.55169    79.354062    -302.1253      46.7237      46.7237      46.7237           90           90           90     102002.7   -646.43341 
  533000       532500    -10432.71    873.39441   -11306.105    4185.3009   -15491.405    91.966643   -549.80261   -588.69503   -623.17171    49.937526   -31.258901    81.560608      46.7237      46.7237      46.7237           90           90           90     102002.7   -587.22312 
  534000       533500   -10450.293    867.01585   -11317.309    4182.9587   -15500.268    91.294994   -811.62575   -746.59467   -484.31226    244.34711   -73.973512    -14.53702      46.7237      46.7237      46.7237           90           90           90     102002.7   -680.84423 
  535000       534500   -10417.714    871.06342   -11288.778    4173.8108   -15462.588    91.721195   -287.71879   -573.41828   -151.66906   -138.30709   -6.3876812    51.895569      46.7237      46.7237      46.7237           90           90           90     102002.7   -337.60204 
  536000       535500    -10464.43    848.38367   -11312.814    4178.4407   -15491.254    89.333064   -825.85591   -559.95387   -308.16791    112.28963    72.429839   -97.145822      46.7237      46.7237      46.7237           90           90           90     102002.7   -564.65923 
  537000       536500   -10452.947    871.54089   -11324.488    4181.5399   -15506.028    91.771471   -402.97247   -1330.2928   -498.31044   -65.238027    256.38631   -191.00098      46.7237      46.7237      46.7237           90           90           90     102002.7   -743.85858 
  538000       537500   -10460.209    845.82228   -11306.031    4189.7754   -15495.807    89.063354   -549.94959   -806.58979   -571.24813    167.75866    17.109435   -91.459093      46.7237      46.7237      46.7237           90           90           90     102002.7   -642.59584 
  539000       538500   -10428.696    876.40887   -11305.105    4170.8954   -15476.001    92.284059   -563.74737   -521.07972   -814.48472    -76.82985    146.79706    180.05912      46.7237      46.7237      46.7237           90           90           90     102002.7   -633.10394 
  540000       539500   -10414.972    864.49615   -11279.468    4183.2573   -15462.726    91.029675   -656.28365   -761.66718   -849.80993    147.40735    230.92537   -41.592381      46.7237      46.7237      46.7237           90           90           90     102002.7   -755.92026 
  541000       540500   -10476.391    859.94673   -11336.338    4156.2068   -15492.544     90.55063   -607.73526    -411.4641   -660.69638    60.034749   -296.93499   -8.6303382      46.7237      46.7237      46.7237           90           90           90     102002.7   -559.96525 
  542000       541500   -10437.488    856.18931   -11293.677    4197.2886   -15490.966    90.154981   -656.47763   -917.02327   -197.77469   -159.29452      35.4572    -112.8226      46.7237      46.7237      46.7237           90           90           90     102002.7   -590.42519 
  543000       542500   -10449.948    865.44842   -11315.396     4180.871   -15496.267    91.129946   -697.19124   -555.55968    -748.0007   -141.26495     86.18288   -48.835421      46.7237      46.7237      46.7237           90           90           90     102002.7   -666.91721 
  544000       543500    -10437.06    865.28209   -11302.342    4201.0683    -15503.41    91.112432   -737.90629   -983.87302   -630.53136    129.99856    31.189986    168.10263      46.7237      46.7237      46.7237           90           90           90     102002.7   -784.10356 
  545000       544500   -10418.828    889.78244   -11308.611    4181.2694    -15489.88    93.692269   -613.58769    -815.1614   -1042.9124    34.406819   -178.13701    176.96284      46.7237      46.7237      46.7237           90           90           90     102002.7   -823.88717 
  546000       545500   -10438.066    861.84481    -11299.91     4187.947   -15487.857    90.750494   -705.68663   -1005.5191   -886.68874    24.609854   -18.027736    238.04067      46.7237      46.7237      46.7237           90           90           90     102002.7   -865.96481 
  547000       546500   -10466.148    840.84519   -11306.993    4176.7675    -15483.76    88.539277   -652.04087   -483.23397   -610.06132    179.38381    15.216942   -147.28261      46.7237      46.7237      46.7237           90           90           90     102002.7   -581.77872 
  548000       547500   -10447.063    866.82187   -11313.884    4180.0313   -15493.916    91.274568   -545.14581   -574.04347   -280.93838   -78.161983    385.42685   -47.572933      46.7237      46.7237      46.7237           90           90           90     102002.7   -466.70922 
  549000       548500   -10453.364    850.78051   -11304.144     4176.682   -15480.826    89.585446   -718.68429   -413.79437   -843.99537    100.99534   -55.578719    167.56863      46.7237      46.7237      46.7237           90           90           90     102002.7   -658.82468 
  550000       549500   -10445.432    879.70407   -11325.136    4181.3176   -15506.453    92.631037   -512.71803   -791.21434   -676.73873    65.826523   -151.82601    60.910171      46.7237      46.7237      46.7237           90           90           90     102002.7    -660.2237 
  551000       550500   -10464.189    855.23237   -11319.421     4170.166   -15489.587    90.054217   -712.10173   -602.18434   -423.22177    34.346207    44.166331    21.639349      46.7237      46.7237      46.7237           90           90           90     102002.7   -579.16928 
  552000       551500   -10431.585    865.49654   -11297.081    4184.7052   -15481.786    91.135014   -643.96897   -867.33631   -696.70721   -291.65042   -55.466772    257.11609      46.7237      46.7237      46.7237           90           90           90     102002.7   -736.00416 
  553000       552500   -10461.498    852.94384   -11314.442    4180.5307   -15494.972     89.81324   -536.19729   -661.44675   -812.92277    3.5882086   -221.05961    85.310911      46.7237      46.7237      46.7237           90           90           90     102002.7   -670.18894 
  554000       553500   -10436.363    860.75877   -11297.122    4186.5757   -15483.698    90.636136   -434.31187   -506.83579   -282.59221     94.18699   -135.24236   -39.674249      46.7237      46.7237      46.7237           90           90           90     102002.7   -407.91329 
  555000       554500   -10436.633    869.19183   -11305.825    4176.5908   -15482.415     91.52412   -526.31329   -532.65923   -634.97249    149.05981   -239.82915   -82.961056      46.7237      46.7237      46.7237           90           90           90     102002.7   -564.64834 
[...]
  936000       935500   -10463.606    867.12912   -11330.735    4189.4253    -15520.16    91.306921   -765.49842   -1233.8647   -222.39015   -17.464555     122.8834   -72.789506      46.7237      46.7237      46.7237           90           90           90     102002.7   -740.58442 
  937000       936500   -10440.388    854.93799   -11295.326    4192.2172   -15487.543     90.02322   -736.33027   -623.12607   -558.58828    104.16807    88.271358   -9.0472752      46.7237      46.7237      46.7237           90           90           90     102002.7   -639.34821 
  938000       937500   -10439.814     883.6327   -11323.447    4183.6685   -15507.116    93.044715   -698.40688   -530.75983   -318.53177   -242.21129    300.07674    -68.79094      46.7237      46.7237      46.7237           90           90           90     102002.7   -515.89949 
  939000       938500   -10465.221    850.14119   -11315.362    4167.0464   -15482.408    89.518127   -519.97894    -704.9739   -1004.9988   -89.118099    39.643845    55.490476      46.7237      46.7237      46.7237           90           90           90     102002.7   -743.31722 
  940000       939500    -10436.64    858.70881   -11295.349    4200.2091   -15495.558    90.420279    -829.3932   -1028.7226   -663.18477   -65.006405   -237.55341    55.915959      46.7237      46.7237      46.7237           90           90           90     102002.7   -840.43354 
  941000       940500   -10480.649    858.57766   -11339.226    4158.0851   -15497.312     90.40647   -317.17956   -725.19836   -345.73062     72.78373    106.00396   -38.121397      46.7237      46.7237      46.7237           90           90           90     102002.7   -462.70285 
  942000       941500       -10465     850.2952   -11315.296     4176.486   -15491.782    89.534344   -633.71249   -1025.0403   -237.12361   -105.76743   -127.00593    21.948303      46.7237      46.7237      46.7237           90           90           90     102002.7   -631.95881 
  943000       942500    -10464.53    850.29726   -11314.827    4197.3024    -15512.13    89.534561   -790.86533   -878.33993   -881.58241    247.69529   -123.38705   -210.19164      46.7237      46.7237      46.7237           90           90           90     102002.7   -850.26256 
  944000       943500   -10430.489    862.15856   -11292.648     4184.122    -15476.77    90.783532   -452.40121   -850.80214   -496.98691   -15.437875   -162.88061    3.6227028      46.7237      46.7237      46.7237           90           90           90     102002.7   -600.06342 
  945000       944500   -10468.573    862.21889   -11330.792     4159.485   -15490.277    90.789883    -750.6136    -636.8912   -633.77716    25.674183    131.30876    86.916711      46.7237      46.7237      46.7237           90           90           90     102002.7   -673.76065 
  946000       945500   -10454.651    843.80622   -11298.458    4168.8318   -15467.289    88.851067   -208.00296   -302.41415   -1145.9045   -46.961432    11.902676    87.246862      46.7237      46.7237      46.7237           90           90           90     102002.7   -552.10721 
  947000       946500   -10447.593    851.52668    -11299.12    4192.2832   -15491.403    89.664016   -320.05608   -1051.5493   -517.46928    6.7174018    -35.62257   -10.486429      46.7237      46.7237      46.7237           90           90           90     102002.7   -629.69156 
  948000       947500   -10444.848    872.30886   -11317.157     4204.357   -15521.513    91.852337   -669.40426    -547.5687   -900.84218   -121.23463   -150.46722     184.8395      46.7237      46.7237      46.7237           90           90           90     102002.7   -705.93838 
  949000       948500   -10427.062     877.2973    -11304.36    4203.1037   -15507.463     92.37761   -833.55312   -821.99833   -815.60597    75.019963   -134.22933   -9.8427549      46.7237      46.7237      46.7237           90           90           90     102002.7   -823.71914 
  950000       949500   -10433.348    859.13472   -11292.482    4204.8893   -15497.372    90.465127   -503.49773   -919.90176   -160.54156    29.856572   -80.752606   -214.88644      46.7237      46.7237      46.7237           90           90           90     102002.7   -527.98035 
  951000       950500   -10457.827    855.46519   -11313.293    4191.5157   -15504.808    90.078733   -270.19109   -568.35747   -337.29681    -145.6483   -264.67466   -61.740622      46.7237      46.7237      46.7237           90           90           90     102002.7   -391.94846 
  952000       951500    -10444.96    883.04907   -11328.009     4166.067   -15494.076    92.983259   -660.77284   -718.51781   -735.01988    181.04222    47.049715    256.90991      46.7237      46.7237      46.7237           90           90           90     102002.7   -704.77018 
  953000       952500   -10454.329     863.0995   -11317.428    4163.1998   -15480.628     90.88261   -625.14488   -759.42379   -582.98619    138.23905    -149.5124    233.95289      46.7237      46.7237      46.7237           90           90           90     102002.7   -655.85162 
  954000       953500   -10400.283    873.97481   -11274.258    4218.3126    -15492.57    92.027759   -883.72518   -869.13439    -395.9025    20.673732   -169.27671    54.581402      46.7237      46.7237      46.7237           90           90           90     102002.7   -716.25402 
  955000       954500   -10439.129    868.02059    -11307.15    4193.2474   -15500.397    91.400791   -564.72274   -921.16107   -929.80528    180.16644   -17.595816   -104.12568      46.7237      46.7237      46.7237           90           90           90     102002.7    -805.2297 
  956000       955500   -10432.843    892.55656   -11325.399    4176.1155   -15501.515    93.984378   -507.10362   -891.77431   -516.55139    136.41735   -81.859624   -13.255686      46.7237      46.7237      46.7237           90           90           90     102002.7   -638.47644 
  957000       956500   -10438.233    879.25275   -11317.486    4171.7282   -15489.214    92.583514   -157.98374   -633.94185   -464.20689    235.98784    152.36143    30.137951      46.7237      46.7237      46.7237           90           90           90     102002.7   -418.71083 
  958000       957500   -10452.697    864.93362    -11317.63    4169.5267   -15487.157    91.075739   -410.98164   -284.91994   -623.20453    13.451166   -137.21656   -40.912135      46.7237      46.7237      46.7237           90           90           90     102002.7   -439.70204 
  959000       958500   -10458.678    853.83865   -11312.516    4191.4063   -15503.923    89.907461   -872.21516   -121.34731    -586.1803   -11.482528    102.89339   -138.22709      46.7237      46.7237      46.7237           90           90           90     102002.7   -526.58092 
  960000       959500   -10450.996     863.3022   -11314.298    4204.2186   -15518.517    90.903954   -840.88818   -1029.4977    -130.6543    211.24549   -18.783955     245.8945      46.7237      46.7237      46.7237           90           90           90     102002.7   -667.01341 
  961000       960500    -10424.74    867.94318   -11292.684    4206.5272   -15499.211     91.39264   -195.47172   -1131.6565   -1001.6375    94.940795    32.503854   -233.20688      46.7237      46.7237      46.7237           90           90           90     102002.7   -776.25523 
  962000       961500   -10447.333     838.3804   -11285.713    4174.1878   -15459.901    88.279739   -792.70696   -438.51077   -590.74844    108.55291   -256.30742    50.479864      46.7237      46.7237      46.7237           90           90           90     102002.7   -607.32206 
  963000       962500   -10453.769    856.65836   -11310.427    4200.7606   -15511.188    90.204372   -365.32309   -232.64626   -900.05574   -43.106298   -145.08389   -203.74621      46.7237      46.7237      46.7237           90           90           90     102002.7    -499.3417 
  964000       963500   -10426.773    864.36534   -11291.138    4200.6155   -15491.754      91.0159   -697.74568   -547.64637   -687.28923    84.037913   -259.74637   -172.04014      46.7237      46.7237      46.7237           90           90           90     102002.7   -644.22709 
  965000       964500   -10457.027    847.79297    -11304.82    4174.0407    -15478.86    89.270864   -491.98466   -562.83575   -549.19676    88.212558    68.660064    352.07414      46.7237      46.7237      46.7237           90           90           90     102002.7   -534.67239 
  966000       965500   -10420.485    875.90184   -11296.387    4186.5503   -15482.937    92.230671   -358.22581   -889.00031   -628.35996   -136.36822    61.023149    68.436064      46.7237      46.7237      46.7237           90           90           90     102002.7   -625.19536 
  967000       966500   -10431.144    865.71648    -11296.86    4204.5774   -15501.438    91.158172   -348.24929   -255.58096   -581.14665    165.45661   -64.235009    125.89319      46.7237      46.7237      46.7237           90           90           90     102002.7    -394.9923 
  968000       967500   -10430.019    862.70204   -11292.721    4191.2411   -15483.963    90.840758   -288.93898   -602.19997   -277.10729     107.9303   -180.56079    14.264552      46.7237      46.7237      46.7237           90           90           90     102002.7   -389.41542 
  969000       968500   -10436.199    861.88199   -11298.081    4185.7286   -15483.809    90.754408   -349.31344   -881.11257    -300.4164   -9.8644909   -340.31355    181.89118      46.7237      46.7237      46.7237           90           90           90     102002.7    -510.2808 
  970000       969500   -10448.545    862.68193   -11311.226    4183.1129   -15494.339    90.838641   -725.84259   -499.23296   -737.20171    60.042823    35.990019   -118.59197      46.7237      46.7237      46.7237           90           90           90     102002.7   -654.09242 
  971000       970500   -10433.493    867.28159   -11300.775    4189.8105   -15490.585    91.322976   -547.42799   -1070.9403   -414.90321   -14.786953    133.18466   -121.08652      46.7237      46.7237      46.7237           90           90           90     102002.7   -677.75715 
  972000       971500   -10472.949    843.10435   -11316.053    4179.8532   -15495.907    88.777162   -1048.5398   -894.36008   -464.38598   -111.17298   -44.393737   -27.703367      46.7237      46.7237      46.7237           90           90           90     102002.7   -802.42862 
  973000       972500   -10425.311    861.56299   -11286.874    4197.6074   -15484.482    90.720819   -710.86671   -777.48767   -681.53089   -63.845456   -235.11769    194.00003      46.7237      46.7237      46.7237           90           90           90     102002.7   -723.29509 
  974000       973500   -10443.375    855.81473    -11299.19    4199.7943   -15498.984    90.115539   -282.91123   -949.89307   -1159.6327    261.24322   -109.97141   -107.25134      46.7237      46.7237      46.7237           90           90           90     102002.7     -797.479 
  975000       974500   -10410.185    878.24394   -11288.429    4198.1798   -15486.609    92.477289   -318.85034   -1130.8923   -1103.7059   -227.46558   -84.625369   -111.33819      46.7237      46.7237      46.7237           90           90           90     102002.7   -851.14952 
  976000       975500   -10445.766    860.51482   -11306.281    4180.6459   -15486.927    90.610448    -467.7042   -745.12742    -573.2236    -171.9335    25.170211   -208.04965      46.7237      46.7237      46.7237           90           90           90     102002.7   -595.35174 
  977000       976500   -10426.886    879.93861   -11306.825    4185.7502   -15492.575    92.655734   -832.49569    -1009.418    -930.2897    45.525349   -67.533231    235.22934      46.7237      46.7237      46.7237           90           90           90     102002.7   -924.06778 
  978000       977500   -10412.667    870.07317    -11282.74    4189.9638   -15472.704    91.616923   -285.10397   -992.13201   -752.93014    99.499739   -40.261407    -145.8062      46.7237      46.7237      46.7237           90           90           90     102002.7   -676.72204 
  979000       978500   -10460.817    845.57922   -11306.396    4177.7229   -15484.119     89.03776   -542.36496   -505.62962   -1254.2399   -32.121723    -106.3542   -35.498841      46.7237      46.7237      46.7237           90           90           90     102002.7   -767.41148 
  980000       979500   -10450.423    863.03183   -11313.455    4180.0619   -15493.517    90.875485   -484.24793   -570.69011   -687.90204   -16.104017   -250.22067    175.86959      46.7237      46.7237      46.7237           90           90           90     102002.7   -580.94669 
  981000       980500   -10466.052    843.76598   -11309.818    4191.1093   -15500.927     88.84683   -944.61068   -603.87983   -629.21354    78.968166    301.77554    94.801796      46.7237      46.7237      46.7237           90           90           90     102002.7   -725.90135 
  982000       981500   -10445.729    876.86799   -11322.597    4193.5372   -15516.135    92.332404   -527.07008   -571.28493   -886.01795    250.53077     119.7419   -44.847178      46.7237      46.7237      46.7237           90           90           90     102002.7   -661.45765 
  983000       982500   -10451.945    873.16763   -11325.113    4177.3607   -15502.474    91.942763   -111.79549   -565.05708   -571.55365    186.10384   -349.19321   -119.81915      46.7237      46.7237      46.7237           90           90           90     102002.7   -416.13541 
  984000       983500   -10441.375    872.69823   -11314.073    4192.6015   -15506.675    91.893336   -519.28025   -273.87118   -431.38303    19.720348    -30.70848   -152.00638      46.7237      46.7237      46.7237           90           90           90     102002.7   -408.17815 
  985000       984500   -10437.772    875.48469   -11313.257    4190.3949   -15503.652    92.186746   -394.66653   -715.64086   -608.57366   -47.161071    182.74341   -9.9479243      46.7237      46.7237      46.7237           90           90           90     102002.7   -572.96035 
  986000       985500    -10450.31    837.59377   -11287.904    4196.9811   -15484.885    88.196909   -480.34741   -930.09144   -681.86413   -41.284298   -198.68214    -109.7563      46.7237      46.7237      46.7237           90           90           90     102002.7   -697.43433 
  987000       986500   -10462.126    856.21183   -11318.338    4190.0174   -15508.355    90.157353    -382.3769   -641.95924   -1010.3557   -93.932834   -110.92685    94.023208      46.7237      46.7237      46.7237           90           90           90     102002.7   -678.23063 
  988000       987500   -10437.616    890.92015   -11328.536    4168.7266   -15497.262    93.812068   -806.72371   -367.84764   -647.22889   -55.798213   -72.079534    67.528345      46.7237      46.7237      46.7237           90           90           90     102002.7   -607.26674 
  989000       988500   -10431.633    868.76329   -11300.396    4197.1235    -15497.52    91.478996   -414.67917   -333.37905   -704.36352   -14.323934    204.24372   -30.040562      46.7237      46.7237      46.7237           90           90           90     102002.7   -484.14058 
  990000       989500    -10423.18    870.28109   -11293.461     4215.246   -15508.707    91.638817   -559.24317   -545.08531   -610.54492   -18.226399    74.416708    61.352636      46.7237      46.7237      46.7237           90           90           90     102002.7   -571.62447 
  991000       990500   -10440.148    860.61436   -11300.762    4205.8279    -15506.59     90.62093   -682.89801   -732.23739   -853.25034   -97.162396     128.4239   -87.149715      46.7237      46.7237      46.7237           90           90           90     102002.7   -756.12858 
  992000       991500   -10430.198    872.60324   -11302.801    4204.5131   -15507.314    91.883335   -521.77454   -543.36063   -615.33683   -63.794772   -77.114949    15.912162      46.7237      46.7237      46.7237           90           90           90     102002.7   -560.15733 
  993000       992500   -10467.089    855.95878   -11323.047    4197.7385   -15520.786    90.130707   -640.00508    -723.9153   -919.92878   -52.370895    112.76849    4.4752371      46.7237      46.7237      46.7237           90           90           90     102002.7   -761.28305 
  994000       993500   -10436.547    859.72008   -11296.267    4196.1065   -15492.373    90.526764   -625.38877   -749.06521   -601.18614     76.39198    4.7911085    118.26266      46.7237      46.7237      46.7237           90           90           90     102002.7   -658.54671 
  995000       994500   -10439.302    870.77983   -11310.082    4167.7737   -15477.855    91.691333    -84.99511   -764.39759    -652.3464    287.32987    135.19315   -53.268628      46.7237      46.7237      46.7237           90           90           90     102002.7    -500.5797 
  996000       995500   -10469.697    845.03303    -11314.73     4191.036   -15505.766    88.980248   -777.68757   -879.33734   -721.55725   -168.57518   -116.45611   -22.507977      46.7237      46.7237      46.7237           90           90           90     102002.7   -792.86072 
  997000       996500    -10450.62    855.80212   -11306.422    4180.0607   -15486.483    90.114211   -785.85091   -873.63446   -1015.6525   -209.85867    296.40774    292.85751      46.7237      46.7237      46.7237           90           90           90     102002.7   -891.71264 
  998000       997500   -10444.366    866.23729   -11310.603    4190.8373   -15501.441    91.213013   -672.70473   -264.33167   -1000.1063    26.699767   -82.622884    103.16506      46.7237      46.7237      46.7237           90           90           90     102002.7   -645.71425 
  999000       998500   -10450.748    860.87188   -11311.619    4181.9918   -15493.611    90.648046   -586.89751   -592.55972   -721.33512   -134.07424   -83.514349   -33.724264      46.7237      46.7237      46.7237           90           90           90     102002.7   -633.59745 
 1000000       999500   -10441.598    867.22157    -11308.82    4183.7029   -15492.523    91.316656     -424.771   -675.56644   -570.32955    160.24559    25.565404    224.84864      46.7237      46.7237      46.7237           90           90           90     102002.7     -556.889 
 1000500      1000000   -10444.988    867.56438   -11312.553    4180.7478     -15493.3    91.352753   -237.61766   -753.10809   -303.71514    169.73363   -119.88502   -93.810909      46.7237      46.7237      46.7237           90           90           90     102002.7    -431.4803 
Loop time of 2353.42 on 16 procs for 500000 steps with 3187 atoms

Performance: 18.356 ns/day, 1.307 hours/ns, 212.457 timesteps/s
99.9% CPU use with 16 MPI tasks x no OpenMP threads

MPI task timing breakdown:
Section |  min time  |  avg time  |  max time  |%varavg| %total
---------------------------------------------------------------
Pair    | 986.97     | 1463.9     | 1856.4     | 650.7 | 62.20
Bond    | 128.67     | 184.2      | 237.37     | 205.6 |  7.83
Neigh   | 15.117     | 15.141     | 15.178     |   0.4 |  0.64
Comm    | 222.27     | 657.09     | 1191.6     |1063.1 | 27.92
Output  | 0.13365    | 0.14146    | 0.14224    |   0.5 |  0.01
Modify  | 23.534     | 25.995     | 28.305     |  39.8 |  1.10
Other   |            | 6.923      |            |       |  0.29

Nlocal:    199.188 ave 242 max 165 min
Histogram: 2 2 1 2 3 0 4 1 0 1
Nghost:    4034 ave 4067 max 3993 min
Histogram: 1 1 3 0 2 2 2 1 0 4
Neighs:    11459.9 ave 18335 max 5822 min
Histogram: 2 3 2 1 0 1 2 3 1 1

Total # of neighbors = 183358
Ave neighs/atom = 57.5331
Ave special neighs/atom = 3.61468
Neighbor list builds = 4202
Dangerous builds = 0
Total wall time: 1:11:49
