LAMMPS (30 Mar 2018)
Reading data file ...
  orthogonal box = (0 0 0) to (46.7237 46.7237 46.7237)
  2 by 2 by 4 MPI processor grid
  reading atoms ...
  3332 atoms
  scanning bonds ...
  5 = max bonds/atom
  scanning angles ...
  10 = max angles/atom
  scanning dihedrals ...
  32 = max dihedrals/atom
  scanning impropers ...
  3 = max impropers/atom
  reading bonds ...
  2064 bonds
  reading angles ...
  3696 angles
  reading dihedrals ...
  6240 dihedrals
  reading impropers ...
  1008 impropers
Finding 1-2 1-3 1-4 neighbors ...
  special bond factors lj:   0          0          0         
  special bond factors coul: 0          0          0         
  5 = max # of 1-2 neighbors
  8 = max # of 1-3 neighbors
  20 = max # of 1-4 neighbors
  19 = max # of special neighbors
Finding 1-2 1-3 1-4 neighbors ...
  special bond factors lj:   0          0          1         
  special bond factors coul: 1          1          1         
  5 = max # of 1-2 neighbors
  8 = max # of 1-3 neighbors
  19 = max # of special neighbors
WARNING: Using 'neigh_modify every 1 delay 0 check yes' setting during minimization (../min.cpp:168)
Neighbor list info ...
  update every 1 steps, delay 0 steps, check yes
  max neighbors/atom: 2000, page size: 100000
  master list distance cutoff = 16
  ghost atom cutoff = 16
  binsize = 8, bins = 6 6 6
  3 neighbor lists, perpetual/occasional/extra = 3 0 0
  (1) pair buck6d/coul/gauss/dsf, perpetual, skip from (3)
      attributes: half, newton on
      pair build: skip
      stencil: none
      bin: none
  (2) pair lj/cut, perpetual, skip from (3)
      attributes: half, newton on
      pair build: skip
      stencil: none
      bin: none
  (3) neighbor class addition, perpetual
      attributes: half, newton on
      pair build: half/bin/newton
      stencil: half/bin/3d/newton
      bin: standard
Setting up cg style minimization ...
  Unit style    : real
  Current step  : 0
WARNING: Inconsistent image flags (../domain.cpp:786)
Per MPI rank memory allocation (min/avg/max) = 23.03 | 23.48 | 23.93 Mbytes
Step Temp E_pair E_mol TotEng Press 
       0            0    -16013.65    6482.8914   -9530.7584    6800.5554 
     500            0    -16402.33    3797.2989   -12605.031   -1123.5528 
Loop time of 4.81761 on 16 procs for 500 steps with 3332 atoms

99.5% CPU use with 16 MPI tasks x no OpenMP threads

Minimization stats:
  Stopping criterion = max force evaluations
  Energy initial, next-to-last, final = 
        -9530.75836447     -12605.0002114     -12605.0314326
  Force two-norm initial, final = 2575.03 8.38879
  Force max component initial, final = 152.051 1.28645
  Final line search alpha, max atom move = 0.0126784 0.01631
  Iterations, force evaluations = 500 1000

MPI task timing breakdown:
Section |  min time  |  avg time  |  max time  |%varavg| %total
---------------------------------------------------------------
Pair    | 2.6129     | 3.1541     | 3.7734     |  18.2 | 65.47
Bond    | 0.27169    | 0.36       | 0.43188    |   7.0 |  7.47
Neigh   | 0.024683   | 0.024772   | 0.024868   |   0.0 |  0.51
Comm    | 0.53346    | 1.1674     | 1.7233     |  30.9 | 24.23
Output  | 0          | 0          | 0          |   0.0 |  0.00
Modify  | 0          | 0          | 0          |   0.0 |  0.00
Other   |            | 0.1113     |            |       |  2.31

Nlocal:    208.25 ave 226 max 185 min
Histogram: 2 1 0 0 3 1 4 1 3 1
Nghost:    4160.62 ave 4183 max 4140 min
Histogram: 2 0 2 3 1 3 1 1 2 1
Neighs:    11499.4 ave 16055 max 7773 min
Histogram: 2 1 3 3 0 2 2 0 2 1

Total # of neighbors = 183991
Ave neighs/atom = 55.2194
Ave special neighs/atom = 3.45738
Neighbor list builds = 7
Dangerous builds = 0
Neighbor list info ...
  update every 1 steps, delay 10 steps, check yes
  max neighbors/atom: 2000, page size: 100000
  master list distance cutoff = 16
  ghost atom cutoff = 16
  binsize = 8, bins = 6 6 6
  3 neighbor lists, perpetual/occasional/extra = 3 0 0
  (1) pair buck6d/coul/gauss/dsf, perpetual, skip from (3)
      attributes: half, newton on
      pair build: skip
      stencil: none
      bin: none
  (2) pair lj/cut, perpetual, skip from (3)
      attributes: half, newton on
      pair build: skip
      stencil: none
      bin: none
  (3) neighbor class addition, perpetual
      attributes: half, newton on
      pair build: half/bin/newton
      stencil: half/bin/3d/newton
      bin: standard
Setting up Verlet run ...
  Unit style    : real
  Current step  : 500
  Time step     : 1
WARNING: Inconsistent image flags (../domain.cpp:786)
Per MPI rank memory allocation (min/avg/max) = 22.67 | 22.74 | 22.8 Mbytes
Step Temp PotEng TotEng Press Volume Lx Ly Lz 
     500           91   -12605.031   -11701.485   -718.63071     102002.7      46.7237      46.7237      46.7237 
    1000     76.15839   -11852.069   -11095.886    355.48367     102002.7      46.7237      46.7237      46.7237 
    2000    89.660737   -11692.261   -10802.012    370.53098     102002.7      46.7237      46.7237      46.7237 
    3000    90.410636   -11769.192   -10871.498    605.45823     102002.7      46.7237      46.7237      46.7237 
    4000    91.364397   -11722.087   -10814.923    1009.8786     102002.7      46.7237      46.7237      46.7237 
    5000    91.687651   -11728.571   -10818.197    710.88323     102002.7      46.7237      46.7237      46.7237 
    6000    89.960036   -11732.345   -10839.125    766.78947     102002.7      46.7237      46.7237      46.7237 
    7000    90.329861   -11749.038   -10852.146    577.84626     102002.7      46.7237      46.7237      46.7237 
    8000    91.356715   -11733.544   -10826.456    594.79691     102002.7      46.7237      46.7237      46.7237 
    9000    88.915769   -11734.388   -10851.537    468.50888     102002.7      46.7237      46.7237      46.7237 
   10000    90.332708   -11765.883   -10868.962    605.18908     102002.7      46.7237      46.7237      46.7237 
   11000    91.932552   -11760.678   -10847.872     610.8291     102002.7      46.7237      46.7237      46.7237 
   12000    91.786374   -11726.451   -10815.097    623.04298     102002.7      46.7237      46.7237      46.7237 
   13000    89.622139   -11728.875    -10839.01    800.18147     102002.7      46.7237      46.7237      46.7237 
   14000    92.453507   -11743.061   -10825.083    610.25664     102002.7      46.7237      46.7237      46.7237 
   15000    93.664675   -11750.322   -10820.318    755.92424     102002.7      46.7237      46.7237      46.7237 
   16000    90.472662       -11753    -10854.69    675.65105     102002.7      46.7237      46.7237      46.7237 
   17000    90.298316   -11751.132   -10854.553    456.57008     102002.7      46.7237      46.7237      46.7237 
   18000    90.697553   -11751.532   -10850.988    523.57888     102002.7      46.7237      46.7237      46.7237 
   19000    90.029733   -11754.852    -10860.94     473.0447     102002.7      46.7237      46.7237      46.7237 
   20000     89.58404   -11753.176   -10863.689    476.74677     102002.7      46.7237      46.7237      46.7237 
   21000    91.537977   -11731.696   -10822.809    1039.3739     102002.7      46.7237      46.7237      46.7237 
   22000    92.527476   -11755.751   -10837.038    453.11986     102002.7      46.7237      46.7237      46.7237 
   23000     94.23243   -11748.385   -10812.744    849.40362     102002.7      46.7237      46.7237      46.7237 
   24000    91.301353   -11757.767   -10851.229    905.29829     102002.7      46.7237      46.7237      46.7237 
   25000    91.022641   -11754.109   -10850.338    657.98834     102002.7      46.7237      46.7237      46.7237 
   26000    90.367919   -11783.194   -10885.924     754.4208     102002.7      46.7237      46.7237      46.7237 
   27000    89.792246   -11756.929   -10865.375    578.14044     102002.7      46.7237      46.7237      46.7237 
   28000    91.557151   -11758.342   -10849.264    683.97555     102002.7      46.7237      46.7237      46.7237 
   29000    91.487842   -11759.224   -10850.834    670.26961     102002.7      46.7237      46.7237      46.7237 
   30000    90.780073   -11756.882   -10855.519    841.31591     102002.7      46.7237      46.7237      46.7237 
   31000     91.21655   -11741.777    -10836.08    1220.3933     102002.7      46.7237      46.7237      46.7237 
   32000    91.873575   -11753.622   -10841.402    753.39691     102002.7      46.7237      46.7237      46.7237 
   33000    90.569395   -11775.882   -10876.611    765.36748     102002.7      46.7237      46.7237      46.7237 
   34000    90.588194   -11764.522   -10865.065     694.2377     102002.7      46.7237      46.7237      46.7237 
   35000     92.61474   -11780.492   -10860.913    402.07439     102002.7      46.7237      46.7237      46.7237 
   36000    91.511318   -11761.498   -10852.875    388.83761     102002.7      46.7237      46.7237      46.7237 
   37000    91.743313   -11753.374   -10842.447    730.42462     102002.7      46.7237      46.7237      46.7237 
   38000    91.653945   -11775.885   -10865.846    1054.7988     102002.7      46.7237      46.7237      46.7237 
   39000    91.403073   -11746.039   -10838.491    630.73896     102002.7      46.7237      46.7237      46.7237 
   40000    90.990986   -11766.034   -10862.578    626.79086     102002.7      46.7237      46.7237      46.7237 
   41000     91.47429   -11746.313   -10838.058    655.11425     102002.7      46.7237      46.7237      46.7237 
   42000    90.239754   -11761.115   -10865.117    438.46166     102002.7      46.7237      46.7237      46.7237 
   43000    90.376626   -11765.266   -10867.909    651.34426     102002.7      46.7237      46.7237      46.7237 
   44000    90.909924   -11791.034   -10888.382     614.1778     102002.7      46.7237      46.7237      46.7237 
   45000    89.404257   -11761.884   -10874.182    696.62776     102002.7      46.7237      46.7237      46.7237 
   46000    93.238069   -11776.622   -10850.854    545.89909     102002.7      46.7237      46.7237      46.7237 
   47000    89.925503   -11771.728    -10878.85    371.12513     102002.7      46.7237      46.7237      46.7237 
   48000     91.33256   -11759.572   -10852.724     477.3824     102002.7      46.7237      46.7237      46.7237 
   49000    93.034198   -11783.003   -10859.259     658.2368     102002.7      46.7237      46.7237      46.7237 
   50000    92.802065   -11789.477   -10868.038    686.64797     102002.7      46.7237      46.7237      46.7237 
   51000    87.630095   -11748.674   -10878.588    1094.0371     102002.7      46.7237      46.7237      46.7237 
   52000     92.07216   -11773.948   -10859.757    779.41633     102002.7      46.7237      46.7237      46.7237 
   53000    89.906693   -11756.127   -10863.437    869.58712     102002.7      46.7237      46.7237      46.7237 
   54000     90.01894   -11778.501   -10884.696    829.56843     102002.7      46.7237      46.7237      46.7237 
   55000    91.686181   -11767.967   -10857.607    847.85191     102002.7      46.7237      46.7237      46.7237 
   56000    90.824329   -11760.418   -10858.616    845.59411     102002.7      46.7237      46.7237      46.7237 
   57000    88.763859   -11774.012   -10892.669    768.60959     102002.7      46.7237      46.7237      46.7237 
   58000    89.669787    -11744.53   -10854.192    779.89202     102002.7      46.7237      46.7237      46.7237 
   59000    92.959612   -11775.711   -10852.708      735.667     102002.7      46.7237      46.7237      46.7237 
   60000    92.675345   -11783.723   -10863.542     700.0221     102002.7      46.7237      46.7237      46.7237 
   61000    92.880883   -11779.799   -10857.578    731.72772     102002.7      46.7237      46.7237      46.7237 
   62000    91.826457    -11751.53   -10839.778    612.54918     102002.7      46.7237      46.7237      46.7237 
   63000    90.042129    -11762.13   -10868.094    550.02004     102002.7      46.7237      46.7237      46.7237 
   64000    93.268105   -11761.476    -10835.41    717.70887     102002.7      46.7237      46.7237      46.7237 
   65000    92.379529   -11755.421   -10838.177    810.80661     102002.7      46.7237      46.7237      46.7237 
   66000    92.283365   -11763.165   -10846.876     628.5434     102002.7      46.7237      46.7237      46.7237 
   67000    91.339801    -11759.34    -10852.42    693.61214     102002.7      46.7237      46.7237      46.7237 
   68000    90.057764   -11757.049   -10862.858    652.52579     102002.7      46.7237      46.7237      46.7237 
   69000    88.507033   -11770.671   -10891.878    823.33927     102002.7      46.7237      46.7237      46.7237 
   70000     92.00359   -11798.184   -10884.673    563.07207     102002.7      46.7237      46.7237      46.7237 
   71000    92.393348   -11785.358   -10867.977    681.72678     102002.7      46.7237      46.7237      46.7237 
   72000     92.22134   -11776.464   -10860.791    736.13138     102002.7      46.7237      46.7237      46.7237 
   73000    92.088534   -11774.093   -10859.739    515.75924     102002.7      46.7237      46.7237      46.7237 
   74000    90.975154   -11776.857   -10873.557    582.37274     102002.7      46.7237      46.7237      46.7237 
   75000    90.442429   -11791.836   -10893.826    710.83767     102002.7      46.7237      46.7237      46.7237 
   76000    93.329044   -11789.801    -10863.13    738.46407     102002.7      46.7237      46.7237      46.7237 
   77000    90.081438   -11799.812   -10905.386    640.23116     102002.7      46.7237      46.7237      46.7237 
   78000    91.383725   -11770.955   -10863.598    792.14581     102002.7      46.7237      46.7237      46.7237 
   79000    93.177882   -11764.972   -10839.801    515.39758     102002.7      46.7237      46.7237      46.7237 
   80000    90.995826   -11794.586   -10891.081    706.19532     102002.7      46.7237      46.7237      46.7237 
   81000    90.487356   -11763.146    -10864.69    830.96416     102002.7      46.7237      46.7237      46.7237 
   82000    89.916611   -11770.107   -10877.318    628.90997     102002.7      46.7237      46.7237      46.7237 
   83000    90.329163   -11784.035    -10887.15    720.83735     102002.7      46.7237      46.7237      46.7237 
   84000    89.863379   -11789.056   -10896.795    786.12965     102002.7      46.7237      46.7237      46.7237 
   85000    91.404788   -11799.102   -10891.536    662.86473     102002.7      46.7237      46.7237      46.7237 
   86000     90.21358   -11793.037     -10897.3    757.78935     102002.7      46.7237      46.7237      46.7237 
   87000    88.802165    -11789.94   -10908.217    580.95945     102002.7      46.7237      46.7237      46.7237 
   88000    91.152548   -11776.405   -10871.344    889.85312     102002.7      46.7237      46.7237      46.7237 
   89000    90.504736   -11792.011   -10893.383    693.65788     102002.7      46.7237      46.7237      46.7237 
   90000    93.696154   -11780.918   -10850.601    712.40189     102002.7      46.7237      46.7237      46.7237 
   91000    91.027594   -11777.286   -10873.466    686.33626     102002.7      46.7237      46.7237      46.7237 
   92000     89.09913   -11776.289   -10891.617    561.95482     102002.7      46.7237      46.7237      46.7237 
   93000    93.045219   -11755.994   -10832.141    887.41344     102002.7      46.7237      46.7237      46.7237 
   94000    89.924116   -11789.847   -10896.983    789.39606     102002.7      46.7237      46.7237      46.7237 
   95000    90.232724   -11773.096   -10877.168     498.8013     102002.7      46.7237      46.7237      46.7237 
   96000    90.015384   -11798.533   -10904.763    625.56299     102002.7      46.7237      46.7237      46.7237 
   97000    92.523248   -11791.992   -10873.321    520.81426     102002.7      46.7237      46.7237      46.7237 
   98000    91.398249   -11753.092   -10845.592    646.63908     102002.7      46.7237      46.7237      46.7237 
   99000     90.68185    -11789.76   -10889.373    510.58194     102002.7      46.7237      46.7237      46.7237 
  100000    89.205433   -11784.929   -10899.202    655.59719     102002.7      46.7237      46.7237      46.7237 
  101000    87.654496   -11783.382   -10913.054    490.92163     102002.7      46.7237      46.7237      46.7237 
  102000    90.386293   -11815.866   -10918.413     380.4718     102002.7      46.7237      46.7237      46.7237 
  103000    90.382806    -11781.64   -10884.222     652.6183     102002.7      46.7237      46.7237      46.7237 
  104000    92.135149   -11779.735   -10864.917    496.18274     102002.7      46.7237      46.7237      46.7237 
  105000    92.546417   -11793.164   -10874.263     545.2811     102002.7      46.7237      46.7237      46.7237 
  106000    93.320643   -11815.534   -10888.946     753.0494     102002.7      46.7237      46.7237      46.7237 
  107000    90.144493   -11777.347   -10882.296    776.58866     102002.7      46.7237      46.7237      46.7237 
  108000    92.862203   -11790.375   -10868.339    736.81766     102002.7      46.7237      46.7237      46.7237 
  109000     92.74803   -11767.884   -10846.981    529.72957     102002.7      46.7237      46.7237      46.7237 
  110000    91.742429    -11772.57   -10861.653    604.75671     102002.7      46.7237      46.7237      46.7237 
  111000    88.332226   -11784.376   -10907.319    454.40991     102002.7      46.7237      46.7237      46.7237 
  112000    91.219464   -11782.368   -10876.643     810.8356     102002.7      46.7237      46.7237      46.7237 
  113000    90.349976   -11790.093   -10893.001    800.88056     102002.7      46.7237      46.7237      46.7237 
  114000    89.206202   -11779.841   -10894.106    739.54502     102002.7      46.7237      46.7237      46.7237 
  115000    89.725918   -11807.115   -10916.219    783.27112     102002.7      46.7237      46.7237      46.7237 
  116000    90.206754   -11770.317   -10874.647    660.12575     102002.7      46.7237      46.7237      46.7237 
  117000    91.385305   -11788.297   -10880.925    628.60884     102002.7      46.7237      46.7237      46.7237 
  118000    89.345108   -11800.504    -10913.39    770.34316     102002.7      46.7237      46.7237      46.7237 
  119000    92.860082   -11797.224   -10875.209     945.3184     102002.7      46.7237      46.7237      46.7237 
  120000    90.099361   -11818.944   -10924.341    426.79387     102002.7      46.7237      46.7237      46.7237 
  121000    90.089453   -11766.154   -10871.649    735.94718     102002.7      46.7237      46.7237      46.7237 
  122000     89.92077   -11795.796   -10902.965    947.54338     102002.7      46.7237      46.7237      46.7237 
  123000    92.946097   -11796.608   -10873.739      578.108     102002.7      46.7237      46.7237      46.7237 
  124000    90.518524   -11792.663   -10893.897    861.52913     102002.7      46.7237      46.7237      46.7237 
  125000     91.28835   -11769.089    -10862.68     376.9583     102002.7      46.7237      46.7237      46.7237 
  126000    91.930126   -11807.972   -10895.191    172.12836     102002.7      46.7237      46.7237      46.7237 
  127000    92.474142   -11788.103    -10869.92     797.7324     102002.7      46.7237      46.7237      46.7237 
  128000     92.84608   -11790.682   -10868.806    628.82073     102002.7      46.7237      46.7237      46.7237 
  129000    89.654398   -11779.882   -10889.696    716.79054     102002.7      46.7237      46.7237      46.7237 
  130000    90.828917   -11766.966   -10865.118    767.45148     102002.7      46.7237      46.7237      46.7237 
  131000    92.177499   -11786.326   -10871.089    467.17302     102002.7      46.7237      46.7237      46.7237 
  132000    92.103492   -11756.189   -10841.686    806.05895     102002.7      46.7237      46.7237      46.7237 
  133000    91.083974   -11790.855   -10886.475    814.79669     102002.7      46.7237      46.7237      46.7237 
  134000    90.084075   -11772.457   -10878.006    684.93408     102002.7      46.7237      46.7237      46.7237 
  135000    90.112439   -11793.888   -10899.155    665.76562     102002.7      46.7237      46.7237      46.7237 
  136000    89.693802   -11760.159   -10869.583    530.12229     102002.7      46.7237      46.7237      46.7237 
  137000    90.623496   -11799.631   -10899.823    806.83978     102002.7      46.7237      46.7237      46.7237 
  138000    91.713023   -11791.408   -10880.782    645.82825     102002.7      46.7237      46.7237      46.7237 
  139000    93.960957   -11780.228   -10847.282    771.07976     102002.7      46.7237      46.7237      46.7237 
  140000    89.520588   -11784.169   -10895.312    856.48004     102002.7      46.7237      46.7237      46.7237 
  141000    91.660102    -11775.35    -10865.25    825.63797     102002.7      46.7237      46.7237      46.7237 
  142000    90.716212   -11773.459   -10872.731    706.80944     102002.7      46.7237      46.7237      46.7237 
  143000    91.080638   -11801.419   -10897.072    501.08069     102002.7      46.7237      46.7237      46.7237 
  144000     91.31392   -11784.354   -10877.691    947.94359     102002.7      46.7237      46.7237      46.7237 
  145000    91.488483    -11775.71   -10867.314    834.00795     102002.7      46.7237      46.7237      46.7237 
  146000    89.700004   -11783.373   -10892.734    887.54717     102002.7      46.7237      46.7237      46.7237 
  147000    94.010344   -11815.866    -10882.43    685.11832     102002.7      46.7237      46.7237      46.7237 
  148000    90.438269   -11793.064   -10895.096    614.87342     102002.7      46.7237      46.7237      46.7237 
  149000    89.162421   -11809.467   -10924.166    529.34374     102002.7      46.7237      46.7237      46.7237 
  150000    90.775595   -11786.356   -10885.038    698.39675     102002.7      46.7237      46.7237      46.7237 
  151000    89.588046   -11781.523   -10891.996    686.85625     102002.7      46.7237      46.7237      46.7237 
  152000    90.242624    -11787.56   -10891.534    860.91259     102002.7      46.7237      46.7237      46.7237 
  153000    91.364069   -11811.166   -10904.005    495.59621     102002.7      46.7237      46.7237      46.7237 
  154000    89.421261   -11797.883   -10910.012     743.6923     102002.7      46.7237      46.7237      46.7237 
  155000    90.603376   -11806.208     -10906.6    534.31005     102002.7      46.7237      46.7237      46.7237 
  156000    90.570407   -11821.473   -10922.192    582.66583     102002.7      46.7237      46.7237      46.7237 
  157000    91.702032   -11827.116   -10916.599    525.19314     102002.7      46.7237      46.7237      46.7237 
  158000    90.640588   -11780.679   -10880.702    631.52445     102002.7      46.7237      46.7237      46.7237 
  159000    92.088392   -11769.173    -10854.82    602.06144     102002.7      46.7237      46.7237      46.7237 
  160000    91.244477   -11796.718   -10890.744    523.84621     102002.7      46.7237      46.7237      46.7237 
  161000    91.943922   -11787.794   -10874.875    681.05628     102002.7      46.7237      46.7237      46.7237 
  162000    91.151258   -11798.136   -10893.088    517.18122     102002.7      46.7237      46.7237      46.7237 
  163000    91.757601   -11793.601   -10882.533    686.60241     102002.7      46.7237      46.7237      46.7237 
  164000    88.752963   -11807.115    -10925.88     589.6005     102002.7      46.7237      46.7237      46.7237 
  165000    88.926665   -11780.523   -10897.563    784.19006     102002.7      46.7237      46.7237      46.7237 
  166000    90.772866   -11775.405   -10874.114    646.41058     102002.7      46.7237      46.7237      46.7237 
  167000    91.216889   -11781.173   -10875.473    786.34422     102002.7      46.7237      46.7237      46.7237 
  168000    90.972071   -11798.377   -10895.108    790.69839     102002.7      46.7237      46.7237      46.7237 
  169000    90.778445   -11777.667   -10876.321    718.03313     102002.7      46.7237      46.7237      46.7237 
  170000    89.523106   -11785.677   -10896.795    909.39224     102002.7      46.7237      46.7237      46.7237 
  171000    90.611046   -11813.656   -10913.972    768.54069     102002.7      46.7237      46.7237      46.7237 
  172000    92.946385   -11808.407   -10885.535    705.09268     102002.7      46.7237      46.7237      46.7237 
  173000    88.840851   -11799.509   -10917.402    911.92052     102002.7      46.7237      46.7237      46.7237 
  174000    90.682682   -11794.933   -10894.537    799.82688     102002.7      46.7237      46.7237      46.7237 
  175000    93.337207   -11791.818   -10865.066    726.55447     102002.7      46.7237      46.7237      46.7237 
  176000    90.637751   -11787.185   -10887.236    493.67046     102002.7      46.7237      46.7237      46.7237 
  177000    91.353184   -11821.282   -10914.229    393.95011     102002.7      46.7237      46.7237      46.7237 
  178000    90.862266   -11789.458   -10887.279    594.42518     102002.7      46.7237      46.7237      46.7237 
  179000    91.040192   -11794.314   -10890.369    959.82357     102002.7      46.7237      46.7237      46.7237 
  180000    92.250002   -11803.681   -10887.723    683.68775     102002.7      46.7237      46.7237      46.7237 
  181000    91.638434   -11811.714   -10901.829    510.74496     102002.7      46.7237      46.7237      46.7237 
  182000    90.824768    -11794.74   -10892.934    532.32947     102002.7      46.7237      46.7237      46.7237 
  183000    92.128268   -11833.492   -10918.743    672.12786     102002.7      46.7237      46.7237      46.7237 
  184000    89.510385   -11799.726    -10910.97    563.33584     102002.7      46.7237      46.7237      46.7237 
  185000    89.842093   -11797.506   -10905.457    539.51369     102002.7      46.7237      46.7237      46.7237 
  186000    90.647003   -11811.549   -10911.508    584.65347     102002.7      46.7237      46.7237      46.7237 
  187000    90.271429   -11784.517   -10888.205    884.67511     102002.7      46.7237      46.7237      46.7237 
  188000     90.15254   -11789.871   -10894.739    776.73645     102002.7      46.7237      46.7237      46.7237 
  189000     88.28096   -11778.944   -10902.396    920.79365     102002.7      46.7237      46.7237      46.7237 
  190000    90.116681   -11793.832   -10899.056     673.5171     102002.7      46.7237      46.7237      46.7237 
  191000     91.17907   -11835.018   -10929.694    746.29997     102002.7      46.7237      46.7237      46.7237 
  192000    89.826505    -11786.09   -10894.195    893.82734     102002.7      46.7237      46.7237      46.7237 
  193000    91.287886   -11785.741   -10879.337    739.19304     102002.7      46.7237      46.7237      46.7237 
  194000    91.190356   -11780.424   -10874.988    618.40759     102002.7      46.7237      46.7237      46.7237 
  195000    91.191201   -11775.058   -10869.613    849.11635     102002.7      46.7237      46.7237      46.7237 
  196000    90.521911   -11798.142   -10899.342    632.40149     102002.7      46.7237      46.7237      46.7237 
  197000    92.921744   -11795.822   -10873.194    935.16859     102002.7      46.7237      46.7237      46.7237 
  198000    94.410452   -11795.276   -10857.867    653.22677     102002.7      46.7237      46.7237      46.7237 
  199000    89.458438   -11777.364   -10889.125      666.263     102002.7      46.7237      46.7237      46.7237 
  200000    90.414523   -11802.754   -10905.021    566.57224     102002.7      46.7237      46.7237      46.7237 
  201000    93.091023   -11774.935   -10850.627    584.79842     102002.7      46.7237      46.7237      46.7237 
  202000    90.942036   -11798.772   -10895.801     678.2403     102002.7      46.7237      46.7237      46.7237 
  203000    92.150088   -11781.175    -10866.21    771.35287     102002.7      46.7237      46.7237      46.7237 
  204000    90.993937   -11779.817   -10876.331    596.24772     102002.7      46.7237      46.7237      46.7237 
  205000    90.686676   -11790.011   -10889.576    929.97366     102002.7      46.7237      46.7237      46.7237 
  206000    91.250752   -11780.438   -10874.402    924.95971     102002.7      46.7237      46.7237      46.7237 
  207000    91.977715    -11776.11   -10862.856     819.3244     102002.7      46.7237      46.7237      46.7237 
  208000    90.435674   -11787.302   -10889.359    692.99874     102002.7      46.7237      46.7237      46.7237 
  209000    88.658779   -11798.237   -10917.937    624.47693     102002.7      46.7237      46.7237      46.7237 
  210000    92.607466   -11792.133   -10872.626    841.60146     102002.7      46.7237      46.7237      46.7237 
  211000     93.07093   -11780.373   -10856.264    763.71405     102002.7      46.7237      46.7237      46.7237 
  212000    93.136501   -11789.281   -10864.522    693.08431     102002.7      46.7237      46.7237      46.7237 
  213000    89.564375   -11796.419   -10907.127    840.27166     102002.7      46.7237      46.7237      46.7237 
  214000    90.994423   -11800.859   -10897.368     600.9052     102002.7      46.7237      46.7237      46.7237 
  215000    92.027866   -11804.889   -10891.137    651.55765     102002.7      46.7237      46.7237      46.7237 
  216000     91.34717    -11795.09   -10888.097    463.28603     102002.7      46.7237      46.7237      46.7237 
  217000    90.528975   -11786.739    -10887.87    570.84233     102002.7      46.7237      46.7237      46.7237 
  218000    92.142007    -11772.65   -10857.765    813.58553     102002.7      46.7237      46.7237      46.7237 
  219000    91.033664   -11784.788   -10880.908    715.95478     102002.7      46.7237      46.7237      46.7237 
  220000    89.517195   -11787.507   -10898.684    803.15267     102002.7      46.7237      46.7237      46.7237 
  221000    90.146114   -11806.033   -10910.965    683.06454     102002.7      46.7237      46.7237      46.7237 
  222000    91.927649   -11796.014   -10883.257    641.93408     102002.7      46.7237      46.7237      46.7237 
  223000    91.526511     -11810.4   -10901.626    781.08361     102002.7      46.7237      46.7237      46.7237 
  224000    92.058974   -11799.728   -10885.668    805.83285     102002.7      46.7237      46.7237      46.7237 
  225000    92.065157   -11818.168   -10904.046    741.38635     102002.7      46.7237      46.7237      46.7237 
  226000    91.343339   -11801.606   -10894.651    751.15759     102002.7      46.7237      46.7237      46.7237 
  227000    90.404442   -11792.784   -10895.151    839.79666     102002.7      46.7237      46.7237      46.7237 
  228000    94.038634   -11791.266   -10857.549    743.56132     102002.7      46.7237      46.7237      46.7237 
  229000    91.271381   -11801.408   -10895.167    790.20858     102002.7      46.7237      46.7237      46.7237 
  230000    91.389388   -11828.157   -10920.745    670.26654     102002.7      46.7237      46.7237      46.7237 
  231000     91.00326   -11815.336   -10911.758    880.72796     102002.7      46.7237      46.7237      46.7237 
  232000    90.302438   -11780.582   -10883.962    709.52911     102002.7      46.7237      46.7237      46.7237 
  233000    87.375108   -11781.281   -10913.726    571.71497     102002.7      46.7237      46.7237      46.7237 
  234000    90.531992   -11809.437   -10910.538    603.89077     102002.7      46.7237      46.7237      46.7237 
  235000    91.849783   -11815.098   -10903.114    751.52152     102002.7      46.7237      46.7237      46.7237 
  236000    90.271811   -11800.718   -10904.402    664.82296     102002.7      46.7237      46.7237      46.7237 
  237000    90.726473   -11785.439   -10884.609    867.55436     102002.7      46.7237      46.7237      46.7237 
  238000    89.097626    -11804.83   -10920.173    615.79423     102002.7      46.7237      46.7237      46.7237 
  239000    91.913052    -11792.68   -10880.068    666.46427     102002.7      46.7237      46.7237      46.7237 
  240000    91.911485   -11814.835   -10902.238    713.57442     102002.7      46.7237      46.7237      46.7237 
  241000    90.705594   -11776.906   -10876.283    861.96446     102002.7      46.7237      46.7237      46.7237 
  242000    91.521465   -11802.359   -10893.635    633.75242     102002.7      46.7237      46.7237      46.7237 
  243000    91.532299   -11797.853   -10889.021    804.43493     102002.7      46.7237      46.7237      46.7237 
  244000     90.38476   -11802.732   -10905.294     665.6285     102002.7      46.7237      46.7237      46.7237 
  245000     89.88311   -11780.486    -10888.03    774.95577     102002.7      46.7237      46.7237      46.7237 
  246000    90.599932    -11818.42   -10918.846    423.77017     102002.7      46.7237      46.7237      46.7237 
  247000     91.51155   -11787.751   -10879.125    721.88104     102002.7      46.7237      46.7237      46.7237 
  248000    89.310944   -11783.053   -10896.278    353.91462     102002.7      46.7237      46.7237      46.7237 
  249000    89.746991   -11791.407   -10900.302    663.50553     102002.7      46.7237      46.7237      46.7237 
  250000    91.497289   -11791.497   -10883.013    744.61808     102002.7      46.7237      46.7237      46.7237 
  251000    89.446561   -11783.967   -10895.845     459.4843     102002.7      46.7237      46.7237      46.7237 
  252000    92.148089   -11824.968   -10910.022    528.45679     102002.7      46.7237      46.7237      46.7237 
  253000     94.13168   -11789.042   -10854.401    954.09372     102002.7      46.7237      46.7237      46.7237 
  254000    91.499087   -11807.995   -10899.493    648.25827     102002.7      46.7237      46.7237      46.7237 
  255000    92.692136   -11791.556   -10871.209     928.5458     102002.7      46.7237      46.7237      46.7237 
  256000    90.455693   -11797.603   -10899.462    667.30197     102002.7      46.7237      46.7237      46.7237 
  257000    90.977422   -11784.123   -10880.801    691.88788     102002.7      46.7237      46.7237      46.7237 
  258000    89.560746   -11785.568   -10896.312     615.2229     102002.7      46.7237      46.7237      46.7237 
  259000    91.794892   -11783.464   -10872.025    874.84906     102002.7      46.7237      46.7237      46.7237 
  260000    89.125381   -11801.511   -10916.578    666.69292     102002.7      46.7237      46.7237      46.7237 
  261000    88.079705     -11781.9    -10907.35    809.65914     102002.7      46.7237      46.7237      46.7237 
  262000    91.078094   -11779.549   -10875.228    634.54336     102002.7      46.7237      46.7237      46.7237 
  263000    91.092835   -11801.711   -10897.244    684.91324     102002.7      46.7237      46.7237      46.7237 
  264000    89.872128   -11788.933   -10896.585    481.48826     102002.7      46.7237      46.7237      46.7237 
  265000    90.749425   -11791.596   -10890.538    1127.6278     102002.7      46.7237      46.7237      46.7237 
  266000    93.277023   -11815.237   -10889.082    728.12366     102002.7      46.7237      46.7237      46.7237 
  267000    91.505717   -11796.078   -10887.511    691.07139     102002.7      46.7237      46.7237      46.7237 
  268000     92.64678   -11783.916   -10864.019     841.7873     102002.7      46.7237      46.7237      46.7237 
  269000    90.843273   -11776.616   -10874.626    823.31405     102002.7      46.7237      46.7237      46.7237 
  270000    91.312468   -11808.563   -10901.915    729.34567     102002.7      46.7237      46.7237      46.7237 
  271000    89.931607   -11794.883   -10901.945    651.21916     102002.7      46.7237      46.7237      46.7237 
  272000    90.563519   -11778.294   -10879.081    938.11518     102002.7      46.7237      46.7237      46.7237 
  273000    89.835274   -11782.679   -10890.698    662.09599     102002.7      46.7237      46.7237      46.7237 
  274000    88.906431   -11782.261   -10899.502     407.2165     102002.7      46.7237      46.7237      46.7237 
  275000    91.059572   -11800.831   -10896.694    779.89495     102002.7      46.7237      46.7237      46.7237 
  276000    90.575649    -11788.03   -10888.698    651.74526     102002.7      46.7237      46.7237      46.7237 
  277000    93.434572   -11764.846   -10837.127    699.19039     102002.7      46.7237      46.7237      46.7237 
  278000    91.052272   -11796.981   -10892.916    748.44593     102002.7      46.7237      46.7237      46.7237 
  279000    91.499216    -11775.91   -10867.407    581.98309     102002.7      46.7237      46.7237      46.7237 
  280000    90.139552   -11792.098   -10897.095    843.02545     102002.7      46.7237      46.7237      46.7237 
  281000    91.027251   -11791.378   -10887.561    709.35542     102002.7      46.7237      46.7237      46.7237 
  282000     91.53059   -11811.988   -10903.174    858.86703     102002.7      46.7237      46.7237      46.7237 
  283000    90.632794   -11803.381   -10903.481    947.23025     102002.7      46.7237      46.7237      46.7237 
  284000    89.223822   -11805.025   -10919.115    930.17607     102002.7      46.7237      46.7237      46.7237 
  285000    90.575097   -11806.275   -10906.948    621.94889     102002.7      46.7237      46.7237      46.7237 
  286000    92.381253   -11790.462   -10873.202    779.57561     102002.7      46.7237      46.7237      46.7237 
  287000    90.689963   -11788.765   -10888.297     541.2968     102002.7      46.7237      46.7237      46.7237 
  288000    92.844146    -11795.18   -10873.323    757.56707     102002.7      46.7237      46.7237      46.7237 
  289000    89.330391   -11793.186   -10906.218    792.16285     102002.7      46.7237      46.7237      46.7237 
  290000    89.954877   -11821.541   -10928.372    535.56012     102002.7      46.7237      46.7237      46.7237 
  291000    91.330877   -11781.531     -10874.7    413.57531     102002.7      46.7237      46.7237      46.7237 
  292000    91.005144   -11789.106   -10885.509    719.73055     102002.7      46.7237      46.7237      46.7237 
  293000     93.10446   -11777.057   -10852.616    405.36135     102002.7      46.7237      46.7237      46.7237 
  294000    90.175486   -11804.337   -10908.978    650.62332     102002.7      46.7237      46.7237      46.7237 
  295000    91.217373   -11801.838   -10896.133    640.68287     102002.7      46.7237      46.7237      46.7237 
  296000    89.345712   -11791.267   -10904.147    317.95328     102002.7      46.7237      46.7237      46.7237 
  297000    91.772688   -11810.212   -10898.994    517.45683     102002.7      46.7237      46.7237      46.7237 
  298000    89.426418   -11780.888   -10892.966     638.7735     102002.7      46.7237      46.7237      46.7237 
  299000    90.959315   -11767.672    -10864.53    636.16744     102002.7      46.7237      46.7237      46.7237 
  300000    90.895457   -11771.419   -10868.911    833.92275     102002.7      46.7237      46.7237      46.7237 
  301000    90.402546   -11808.935   -10911.321    591.06996     102002.7      46.7237      46.7237      46.7237 
  302000    91.957406   -11796.748   -10883.696    542.54791     102002.7      46.7237      46.7237      46.7237 
  303000    89.289507   -11805.292   -10918.729    592.83483     102002.7      46.7237      46.7237      46.7237 
  304000    90.202768   -11784.362   -10888.732    643.97651     102002.7      46.7237      46.7237      46.7237 
  305000    93.696753     -11768.4   -10838.078    161.93445     102002.7      46.7237      46.7237      46.7237 
  306000    90.849665   -11800.311   -10898.257    469.61595     102002.7      46.7237      46.7237      46.7237 
  307000    91.455821   -11791.056   -10882.984    733.16448     102002.7      46.7237      46.7237      46.7237 
  308000    91.806624   -11808.244   -10896.689     693.1696     102002.7      46.7237      46.7237      46.7237 
  309000    90.629428   -11788.323   -10888.457    544.17601     102002.7      46.7237      46.7237      46.7237 
  310000    90.172563   -11807.486   -10912.156    634.66545     102002.7      46.7237      46.7237      46.7237 
  311000    93.168977   -11777.099   -10852.017    946.59979     102002.7      46.7237      46.7237      46.7237 
  312000    90.875916   -11788.931   -10886.616    721.60964     102002.7      46.7237      46.7237      46.7237 
  313000    90.809871   -11769.758   -10868.099    745.85474     102002.7      46.7237      46.7237      46.7237 
  314000    93.694094   -11791.853   -10861.557     235.9678     102002.7      46.7237      46.7237      46.7237 
  315000    90.271584   -11794.219   -10897.905     521.8996     102002.7      46.7237      46.7237      46.7237 
  316000    91.016049   -11789.479   -10885.774    397.86903     102002.7      46.7237      46.7237      46.7237 
  317000    92.149236   -11799.541   -10884.584    479.08787     102002.7      46.7237      46.7237      46.7237 
  318000     89.90442   -11775.827   -10883.159    603.66183     102002.7      46.7237      46.7237      46.7237 
  319000     92.45078   -11810.291    -10892.34    586.02961     102002.7      46.7237      46.7237      46.7237 
  320000    90.987119   -11805.111   -10901.692    632.41331     102002.7      46.7237      46.7237      46.7237 
  321000    90.394739   -11778.154   -10880.618    807.12757     102002.7      46.7237      46.7237      46.7237 
  322000    93.077919   -11797.574   -10873.396    615.81018     102002.7      46.7237      46.7237      46.7237 
  323000    90.268532   -11795.578   -10899.295    530.66253     102002.7      46.7237      46.7237      46.7237 
  324000    91.325291   -11789.638   -10882.862    822.84534     102002.7      46.7237      46.7237      46.7237 
  325000    90.190007   -11782.454    -10886.95    870.12667     102002.7      46.7237      46.7237      46.7237 
  326000    91.416047   -11814.925   -10907.248    657.68535     102002.7      46.7237      46.7237      46.7237 
  327000    91.532532   -11813.162   -10904.329    486.52855     102002.7      46.7237      46.7237      46.7237 
  328000    94.056317   -11801.667   -10867.774    466.49641     102002.7      46.7237      46.7237      46.7237 
  329000    91.465937   -11800.125   -10891.952    432.18716     102002.7      46.7237      46.7237      46.7237 
  330000    92.186935   -11806.353   -10891.022    614.03532     102002.7      46.7237      46.7237      46.7237 
  331000    92.026206   -11801.087   -10887.351    603.03607     102002.7      46.7237      46.7237      46.7237 
  332000    89.269064   -11784.337   -10897.977    590.12299     102002.7      46.7237      46.7237      46.7237 
  333000     90.13307   -11800.174   -10905.235    714.94127     102002.7      46.7237      46.7237      46.7237 
  334000    91.158615   -11801.981    -10896.86    550.46877     102002.7      46.7237      46.7237      46.7237 
  335000    92.623412   -11799.122   -10879.457    595.34122     102002.7      46.7237      46.7237      46.7237 
  336000    90.363534   -11794.321   -10897.095    678.52481     102002.7      46.7237      46.7237      46.7237 
  337000    92.334723   -11808.232   -10891.433    731.45469     102002.7      46.7237      46.7237      46.7237 
  338000     91.12352   -11786.707   -10881.934    565.02686     102002.7      46.7237      46.7237      46.7237 
  339000    91.832482   -11794.822    -10883.01    869.77401     102002.7      46.7237      46.7237      46.7237 
  340000    91.282388    -11794.47    -10888.12    876.38821     102002.7      46.7237      46.7237      46.7237 
  341000    93.311618   -11799.109   -10872.611    430.04837     102002.7      46.7237      46.7237      46.7237 
  342000    90.432513   -11799.051   -10901.139    362.51686     102002.7      46.7237      46.7237      46.7237 
  343000    90.965931   -11800.671   -10897.463    451.66006     102002.7      46.7237      46.7237      46.7237 
  344000    90.718499   -11800.277   -10899.526    301.10222     102002.7      46.7237      46.7237      46.7237 
  345000    90.813475   -11775.988   -10874.293    773.56846     102002.7      46.7237      46.7237      46.7237 
  346000    90.544318   -11798.932    -10899.91    466.92359     102002.7      46.7237      46.7237      46.7237 
  347000    90.066422   -11807.791   -10913.514    740.68553     102002.7      46.7237      46.7237      46.7237 
  348000    89.546561   -11797.799   -10908.684     961.4507     102002.7      46.7237      46.7237      46.7237 
  349000    91.252443   -11781.284   -10875.231    780.06059     102002.7      46.7237      46.7237      46.7237 
  350000    92.085684   -11782.435   -10868.109     542.9871     102002.7      46.7237      46.7237      46.7237 
  351000     93.23363   -11777.048   -10851.324    403.22093     102002.7      46.7237      46.7237      46.7237 
  352000    91.238419   -11797.693    -10891.78    861.91102     102002.7      46.7237      46.7237      46.7237 
  353000    92.247308   -11780.079   -10864.148    556.83313     102002.7      46.7237      46.7237      46.7237 
  354000    91.053143   -11817.506   -10913.433    925.94782     102002.7      46.7237      46.7237      46.7237 
  355000     91.42639   -11797.597   -10889.817    596.05691     102002.7      46.7237      46.7237      46.7237 
  356000    91.886721   -11795.994   -10883.643    565.06716     102002.7      46.7237      46.7237      46.7237 
  357000    91.985515   -11810.391    -10897.06    641.59761     102002.7      46.7237      46.7237      46.7237 
  358000    91.966662   -11783.183   -10870.039    711.19959     102002.7      46.7237      46.7237      46.7237 
  359000     93.03511   -11785.639   -10861.886    398.94528     102002.7      46.7237      46.7237      46.7237 
  360000    90.623106   -11791.636   -10891.832    684.75049     102002.7      46.7237      46.7237      46.7237 
  361000    90.554939   -11789.541   -10890.414    671.86061     102002.7      46.7237      46.7237      46.7237 
  362000    89.090249   -11778.571   -10893.987    526.46665     102002.7      46.7237      46.7237      46.7237 
  363000    90.055272   -11793.624   -10899.458    796.38956     102002.7      46.7237      46.7237      46.7237 
  364000     88.49493   -11805.658   -10926.984    437.66475     102002.7      46.7237      46.7237      46.7237 
  365000    92.824189    -11794.02   -10872.361    726.49513     102002.7      46.7237      46.7237      46.7237 
  366000      90.9738   -11789.412   -10886.126    693.33152     102002.7      46.7237      46.7237      46.7237 
  367000    91.605188   -11798.659   -10889.104    809.60152     102002.7      46.7237      46.7237      46.7237 
  368000    90.720974   -11816.206    -10915.43      1018.46     102002.7      46.7237      46.7237      46.7237 
  369000    92.289154   -11802.891   -10886.545    787.76605     102002.7      46.7237      46.7237      46.7237 
  370000    92.401526   -11801.957   -10884.495    847.54075     102002.7      46.7237      46.7237      46.7237 
  371000    90.370451   -11817.721   -10920.426    597.96484     102002.7      46.7237      46.7237      46.7237 
  372000    92.484793   -11797.015   -10878.726     517.2758     102002.7      46.7237      46.7237      46.7237 
  373000    90.307577   -11818.714   -10922.043    668.61257     102002.7      46.7237      46.7237      46.7237 
  374000    91.657272   -11780.839   -10870.766     505.0649     102002.7      46.7237      46.7237      46.7237 
  375000     92.75672   -11820.632   -10899.644    582.02735     102002.7      46.7237      46.7237      46.7237 
  376000    89.114895   -11810.216   -10925.387    536.87373     102002.7      46.7237      46.7237      46.7237 
  377000    90.792461   -11809.049   -10907.564    489.29558     102002.7      46.7237      46.7237      46.7237 
  378000    91.525966   -11801.069     -10892.3    565.53757     102002.7      46.7237      46.7237      46.7237 
  379000    90.418037   -11797.483   -10899.716    690.72475     102002.7      46.7237      46.7237      46.7237 
  380000    89.328195   -11806.618   -10919.671    749.01017     102002.7      46.7237      46.7237      46.7237 
  381000    91.616261    -11799.76   -10890.095    515.17125     102002.7      46.7237      46.7237      46.7237 
  382000    92.101958   -11809.161   -10894.673    571.67202     102002.7      46.7237      46.7237      46.7237 
  383000    91.358676    -11798.51   -10891.403    697.49237     102002.7      46.7237      46.7237      46.7237 
  384000    88.546987   -11784.796   -10905.606    692.49383     102002.7      46.7237      46.7237      46.7237 
  385000    90.938098   -11795.617   -10892.685    686.39724     102002.7      46.7237      46.7237      46.7237 
  386000    90.773943   -11798.044   -10896.743    778.66071     102002.7      46.7237      46.7237      46.7237 
  387000    91.501111   -11788.095   -10879.573    544.98085     102002.7      46.7237      46.7237      46.7237 
  388000    89.244067   -11790.285   -10904.174    806.24101     102002.7      46.7237      46.7237      46.7237 
  389000    89.904917   -11835.596   -10942.923    795.12919     102002.7      46.7237      46.7237      46.7237 
  390000    89.038487   -11809.705   -10925.635     653.8471     102002.7      46.7237      46.7237      46.7237 
  391000    91.348341   -11810.991   -10903.987    632.11001     102002.7      46.7237      46.7237      46.7237 
  392000    89.295101   -11784.168    -10897.55    524.93825     102002.7      46.7237      46.7237      46.7237 
  393000    92.983467    -11808.37    -10885.13    664.44511     102002.7      46.7237      46.7237      46.7237 
  394000    89.951177   -11795.719   -10902.587    534.71401     102002.7      46.7237      46.7237      46.7237 
  395000      92.7734   -11791.172   -10870.017    486.79059     102002.7      46.7237      46.7237      46.7237 
  396000    89.550274   -11792.129   -10902.977    540.77825     102002.7      46.7237      46.7237      46.7237 
  397000    90.732739   -11798.306   -10897.413    734.01643     102002.7      46.7237      46.7237      46.7237 
  398000    91.735999   -11801.067   -10890.213    892.10645     102002.7      46.7237      46.7237      46.7237 
  399000    89.288262   -11795.677   -10909.127    771.23411     102002.7      46.7237      46.7237      46.7237 
  400000    92.474397   -11795.787   -10877.602     837.4699     102002.7      46.7237      46.7237      46.7237 
  401000     91.50691    -11819.37   -10910.791    457.83873     102002.7      46.7237      46.7237      46.7237 
  402000    91.631436   -11808.115   -10898.299     480.5975     102002.7      46.7237      46.7237      46.7237 
  403000    90.992886   -11796.679   -10893.204    523.76549     102002.7      46.7237      46.7237      46.7237 
  404000     91.86693   -11808.263   -10896.109    517.78337     102002.7      46.7237      46.7237      46.7237 
  405000    92.350342   -11803.063   -10886.109    701.11888     102002.7      46.7237      46.7237      46.7237 
  406000    85.438931   -11804.524   -10956.194    779.65158     102002.7      46.7237      46.7237      46.7237 
  407000      89.3443   -11788.336   -10901.229    723.67629     102002.7      46.7237      46.7237      46.7237 
  408000    91.386814   -11789.065   -10881.678    784.91518     102002.7      46.7237      46.7237      46.7237 
  409000    92.630047   -11818.061    -10898.33    753.15093     102002.7      46.7237      46.7237      46.7237 
  410000     92.24877   -11812.247   -10896.302     554.9156     102002.7      46.7237      46.7237      46.7237 
  411000    90.476196   -11823.105    -10924.76    433.88888     102002.7      46.7237      46.7237      46.7237 
  412000    86.273211   -11821.547   -10964.934    505.30668     102002.7      46.7237      46.7237      46.7237 
  413000    89.765966     -11813.1   -10921.806    609.07194     102002.7      46.7237      46.7237      46.7237 
  414000    90.597828   -11796.508   -10896.955    780.09235     102002.7      46.7237      46.7237      46.7237 
  415000    93.544972   -11792.257   -10863.442    678.29115     102002.7      46.7237      46.7237      46.7237 
  416000    90.581122   -11796.174   -10896.787    848.71574     102002.7      46.7237      46.7237      46.7237 
  417000    89.866142    -11808.23   -10915.942    650.91549     102002.7      46.7237      46.7237      46.7237 
  418000    90.466708   -11801.363   -10903.112    871.36839     102002.7      46.7237      46.7237      46.7237 
  419000    91.832501   -11804.555   -10892.743    624.48947     102002.7      46.7237      46.7237      46.7237 
  420000    89.944073   -11793.763   -10900.702    669.71055     102002.7      46.7237      46.7237      46.7237 
  421000    91.357619   -11799.416   -10892.319    666.45846     102002.7      46.7237      46.7237      46.7237 
  422000    91.933966   -11806.496   -10893.677    862.74372     102002.7      46.7237      46.7237      46.7237 
  423000    89.847659   -11824.731   -10932.627     580.2378     102002.7      46.7237      46.7237      46.7237 
  424000    89.261416   -11785.139   -10898.856    565.34733     102002.7      46.7237      46.7237      46.7237 
  425000    92.833187     -11783.1   -10861.352    552.01678     102002.7      46.7237      46.7237      46.7237 
  426000     91.21375   -11801.525   -10895.856    753.03295     102002.7      46.7237      46.7237      46.7237 
  427000    89.223991   -11812.564   -10926.652     737.5432     102002.7      46.7237      46.7237      46.7237 
  428000    90.254303   -11804.209   -10908.067    636.48566     102002.7      46.7237      46.7237      46.7237 
  429000    91.428832   -11807.525   -10899.721    726.93184     102002.7      46.7237      46.7237      46.7237 
  430000    91.749355   -11816.529   -10905.543      615.806     102002.7      46.7237      46.7237      46.7237 
  431000    90.360915   -11822.537   -10925.336    767.97011     102002.7      46.7237      46.7237      46.7237 
  432000    92.026559   -11817.874   -10904.135    566.98265     102002.7      46.7237      46.7237      46.7237 
  433000     91.39852   -11786.053    -10878.55    743.80168     102002.7      46.7237      46.7237      46.7237 
  434000    88.714204   -11812.058   -10931.208    556.25629     102002.7      46.7237      46.7237      46.7237 
  435000    92.179756    -11805.69    -10890.43    668.19458     102002.7      46.7237      46.7237      46.7237 
  436000    91.339015   -11799.165   -10892.253    761.98849     102002.7      46.7237      46.7237      46.7237 
  437000    91.861303   -11811.088    -10898.99    684.81248     102002.7      46.7237      46.7237      46.7237 
  438000     90.23833   -11807.029   -10911.046    428.91681     102002.7      46.7237      46.7237      46.7237 
  439000    89.120718   -11812.761   -10927.874    446.21062     102002.7      46.7237      46.7237      46.7237 
  440000    91.625871   -11800.198   -10890.438    583.01787     102002.7      46.7237      46.7237      46.7237 
  441000    91.609061   -11799.247   -10889.654    479.94088     102002.7      46.7237      46.7237      46.7237 
  442000    90.171862   -11813.859   -10918.536    560.19016     102002.7      46.7237      46.7237      46.7237 
  443000    90.237054   -11810.284   -10914.313    703.90443     102002.7      46.7237      46.7237      46.7237 
  444000    91.344952   -11792.141    -10885.17    656.10962     102002.7      46.7237      46.7237      46.7237 
  445000    88.976063   -11794.359   -10910.909    551.17986     102002.7      46.7237      46.7237      46.7237 
  446000     89.49618   -11818.649   -10930.035    611.05666     102002.7      46.7237      46.7237      46.7237 
  447000    92.804304   -11800.706   -10879.245    629.88679     102002.7      46.7237      46.7237      46.7237 
  448000    92.359825   -11825.689   -10908.641    934.19423     102002.7      46.7237      46.7237      46.7237 
  449000    90.892814   -11809.507   -10907.025    653.97071     102002.7      46.7237      46.7237      46.7237 
  450000    89.060594   -11810.712   -10926.422    709.82129     102002.7      46.7237      46.7237      46.7237 
  451000    90.374719   -11828.903   -10931.565    650.48883     102002.7      46.7237      46.7237      46.7237 
  452000    89.512166   -11807.201   -10918.427    762.45731     102002.7      46.7237      46.7237      46.7237 
  453000    90.124055   -11807.544   -10912.696     673.9992     102002.7      46.7237      46.7237      46.7237 
  454000    92.000845   -11803.244   -10889.761    839.20579     102002.7      46.7237      46.7237      46.7237 
  455000    90.966832   -11813.359   -10910.142    465.15211     102002.7      46.7237      46.7237      46.7237 
  456000    91.776928   -11805.504   -10894.244    427.19213     102002.7      46.7237      46.7237      46.7237 
  457000    90.452213    -11821.44   -10923.333    363.38091     102002.7      46.7237      46.7237      46.7237 
  458000     89.86885   -11804.502   -10912.187    705.39684     102002.7      46.7237      46.7237      46.7237 
  459000    92.604205   -11807.795   -10888.321    564.23067     102002.7      46.7237      46.7237      46.7237 
  460000    91.475305   -11788.238   -10879.972     476.8553     102002.7      46.7237      46.7237      46.7237 
  461000    89.989415   -11782.912   -10889.401    695.29182     102002.7      46.7237      46.7237      46.7237 
  462000    89.927869   -11834.441    -10941.54    749.56799     102002.7      46.7237      46.7237      46.7237 
  463000    88.652318   -11800.061   -10919.825    521.52166     102002.7      46.7237      46.7237      46.7237 
  464000    90.711679   -11790.733    -10890.05    483.07483     102002.7      46.7237      46.7237      46.7237 
  465000    92.238854   -11819.717   -10903.871    545.42684     102002.7      46.7237      46.7237      46.7237 
  466000    92.118798   -11793.121   -10878.466    616.44657     102002.7      46.7237      46.7237      46.7237 
  467000    89.407211   -11820.867   -10933.136    521.28614     102002.7      46.7237      46.7237      46.7237 
  468000    92.168868   -11799.894   -10884.742    325.72871     102002.7      46.7237      46.7237      46.7237 
  469000    91.582032   -11793.841   -10884.516    705.15594     102002.7      46.7237      46.7237      46.7237 
  470000    91.061529    -11818.97   -10914.813    812.00599     102002.7      46.7237      46.7237      46.7237 
  471000    91.680311   -11808.375   -10898.074    438.32139     102002.7      46.7237      46.7237      46.7237 
  472000    90.892476   -11805.416   -10902.937     683.7718     102002.7      46.7237      46.7237      46.7237 
  473000    89.399672   -11815.719   -10928.063    518.66734     102002.7      46.7237      46.7237      46.7237 
  474000    87.436283   -11791.254   -10923.092    733.41457     102002.7      46.7237      46.7237      46.7237 
  475000    92.945615   -11800.199   -10877.335    636.31458     102002.7      46.7237      46.7237      46.7237 
  476000       90.894   -11797.874   -10895.381    657.08044     102002.7      46.7237      46.7237      46.7237 
  477000     89.88715   -11804.273   -10911.777    671.10485     102002.7      46.7237      46.7237      46.7237 
  478000    89.619431   -11813.964   -10924.126    504.97712     102002.7      46.7237      46.7237      46.7237 
  479000     92.75045   -11806.096    -10885.17    433.14641     102002.7      46.7237      46.7237      46.7237 
  480000    92.230318    -11785.84   -10870.078    617.12212     102002.7      46.7237      46.7237      46.7237 
  481000     93.18838   -11792.891   -10867.616    628.77333     102002.7      46.7237      46.7237      46.7237 
  482000    90.128845   -11800.446   -10905.549    737.47872     102002.7      46.7237      46.7237      46.7237 
  483000    89.919238   -11775.525    -10882.71    763.12175     102002.7      46.7237      46.7237      46.7237 
  484000     90.80021    -11780.64   -10879.078    801.53638     102002.7      46.7237      46.7237      46.7237 
  485000    90.496418   -11792.727   -10894.181    530.39957     102002.7      46.7237      46.7237      46.7237 
  486000    92.903148   -11814.629   -10892.187     562.3518     102002.7      46.7237      46.7237      46.7237 
  487000    92.855556   -11803.667   -10881.697    621.84442     102002.7      46.7237      46.7237      46.7237 
  488000    93.159505   -11775.546   -10850.558    510.98953     102002.7      46.7237      46.7237      46.7237 
  489000    91.766816     -11813.9    -10902.74    682.78227     102002.7      46.7237      46.7237      46.7237 
  490000    92.062363   -11806.837   -10892.743    567.33944     102002.7      46.7237      46.7237      46.7237 
  491000    91.798102   -11804.843   -10893.372    569.21499     102002.7      46.7237      46.7237      46.7237 
  492000    91.363092   -11808.789   -10901.637     699.8499     102002.7      46.7237      46.7237      46.7237 
  493000    92.063643   -11799.825   -10885.718    256.18667     102002.7      46.7237      46.7237      46.7237 
  494000    92.198368   -11809.835    -10894.39    766.22947     102002.7      46.7237      46.7237      46.7237 
  495000    91.433147   -11810.015   -10902.168    754.95516     102002.7      46.7237      46.7237      46.7237 
  496000    90.726412   -11820.296   -10919.466    297.28153     102002.7      46.7237      46.7237      46.7237 
  497000    89.838496    -11804.91   -10912.896    701.33929     102002.7      46.7237      46.7237      46.7237 
  498000    92.757271   -11810.844   -10889.849    717.00684     102002.7      46.7237      46.7237      46.7237 
  499000    90.783557   -11802.508   -10901.111    269.22899     102002.7      46.7237      46.7237      46.7237 
  500000     89.79391   -11810.695   -10919.125    430.78308     102002.7      46.7237      46.7237      46.7237 
  500500    89.917856   -11806.582    -10913.78     459.9552     102002.7      46.7237      46.7237      46.7237 
Loop time of 1925.87 on 16 procs for 500000 steps with 3332 atoms

Performance: 22.431 ns/day, 1.070 hours/ns, 259.623 timesteps/s
99.8% CPU use with 16 MPI tasks x no OpenMP threads

MPI task timing breakdown:
Section |  min time  |  avg time  |  max time  |%varavg| %total
---------------------------------------------------------------
Pair    | 918.66     | 1223.8     | 1506.1     | 474.5 | 63.55
Bond    | 126.84     | 174.83     | 216.57     | 203.1 |  9.08
Neigh   | 14.948     | 15.004     | 15.073     |   1.2 |  0.78
Comm    | 201.39     | 494.87     | 842.26     | 820.1 | 25.70
Output  | 0.021931   | 0.022477   | 0.026422   |   0.7 |  0.00
Modify  | 9.3778     | 10.313     | 12.044     |  28.6 |  0.54
Other   |            | 6.995      |            |       |  0.36

Nlocal:    208.25 ave 244 max 174 min
Histogram: 3 0 2 2 0 2 3 1 1 2
Nghost:    4181.5 ave 4227 max 4136 min
Histogram: 1 1 1 4 2 2 2 0 1 2
Neighs:    11463.8 ave 15766 max 6068 min
Histogram: 1 2 1 0 2 3 1 2 2 2

Total # of neighbors = 183421
Ave neighs/atom = 55.0483
Ave special neighs/atom = 3.45738
Neighbor list builds = 4068
Dangerous builds = 0
Neighbor list info ...
  update every 1 steps, delay 10 steps, check yes
  max neighbors/atom: 2000, page size: 100000
  master list distance cutoff = 16
  ghost atom cutoff = 16
  binsize = 8, bins = 6 6 6
  3 neighbor lists, perpetual/occasional/extra = 3 0 0
  (1) pair buck6d/coul/gauss/dsf, perpetual, skip from (3)
      attributes: half, newton on
      pair build: skip
      stencil: none
      bin: none
  (2) pair lj/cut, perpetual, skip from (3)
      attributes: half, newton on
      pair build: skip
      stencil: none
      bin: none
  (3) neighbor class addition, perpetual
      attributes: half, newton on
      pair build: half/bin/newton
      stencil: half/bin/3d/newton
      bin: standard
Setting up Verlet run ...
  Unit style    : real
  Current step  : 500500
  Time step     : 1
WARNING: Inconsistent image flags (../domain.cpp:786)
Per MPI rank memory allocation (min/avg/max) = 22.67 | 23.15 | 23.45 Mbytes
Step Time TotEng KinEng PotEng E_mol E_pair Temp Pxx Pyy Pzz Pxy Pxz Pyz Cella Cellb Cellc CellAlpha CellBeta CellGamma Volume Press 
  500500       500000    -10913.78    892.80144   -11806.582    4155.0181     -15961.6    89.917856    616.63473    472.00056     291.2303    -82.74356    121.34194    148.12765      46.7237      46.7237      46.7237           90           90           90     102002.7     459.9552 
  501000       500500   -10913.259     897.9223   -11811.181    4153.0685    -15964.25    90.433601    493.63977     945.9717    670.57801   -209.14588   -303.61159    11.756967      46.7237      46.7237      46.7237           90           90           90     102002.7    703.39649 
  502000       501500   -10887.284    906.85315   -11794.137    4169.3559   -15963.493    91.333065      980.583    721.44927    488.42087    141.65716    -54.14121   -35.223766      46.7237      46.7237      46.7237           90           90           90     102002.7    730.15105 
  503000       502500    -10906.44    894.67533   -11801.115    4175.1663   -15976.282    90.106584    548.09431     754.3765    1127.5497    80.220507   -237.83438    59.760198      46.7237      46.7237      46.7237           90           90           90     102002.7    810.00685 
  504000       503500   -10898.529     923.6937   -11822.223    4141.6572    -15963.88    93.029149    696.64412    748.26573    912.27054     -230.466    86.903774    157.28238      46.7237      46.7237      46.7237           90           90           90     102002.7    785.72679 
  505000       504500   -10893.812    903.81497   -11797.627     4164.894   -15962.521    91.027077    1038.0508    695.26807    387.29585   -27.134461    16.026272    56.761722      46.7237      46.7237      46.7237           90           90           90     102002.7    706.87158 
  506000       505500   -10911.072    909.28915   -11820.361    4144.5417   -15964.903    91.578405    808.79662    503.92305    250.09274   -67.556736    32.464593   -32.380045      46.7237      46.7237      46.7237           90           90           90     102002.7    520.93747 
  507000       506500   -10906.883    897.09991   -11803.983    4174.6011   -15978.584    90.350774    656.01811    139.52757     37.72146    140.76989    126.20027    176.26995      46.7237      46.7237      46.7237           90           90           90     102002.7    277.75571 
  508000       507500   -10893.459    898.81848   -11792.277    4177.7322   -15970.009    90.523858    150.16811    744.15145    117.89577    174.54565   -10.102692   -129.72771      46.7237      46.7237      46.7237           90           90           90     102002.7    337.40511 
  509000       508500   -10890.396    900.60965   -11791.006     4172.737   -15963.743    90.704255    654.15087    498.82336    164.93341    14.997659    476.46308   -115.20932      46.7237      46.7237      46.7237           90           90           90     102002.7    439.30255 
  510000       509500   -10910.026    888.04655   -11798.072    4160.4428   -15958.515    89.438971    567.48609    255.96691    362.24814   -170.05743    59.289913    66.704928      46.7237      46.7237      46.7237           90           90           90     102002.7    395.23371 
  511000       510500   -10905.204    882.17101   -11787.375    4154.5825   -15941.957    88.847221    799.35318    798.68838    565.80316    18.260924    33.616586     249.4378      46.7237      46.7237      46.7237           90           90           90     102002.7    721.28157 
  512000       511500   -10924.598    895.12746   -11819.725    4137.9461   -15957.671     90.15212    692.89754    500.02411    420.58138     5.185779   -1.9023591    132.99764      46.7237      46.7237      46.7237           90           90           90     102002.7    537.83434 
  513000       512500   -10899.272    913.15329   -11812.425    4153.1819   -15965.607    91.967579    480.24488    877.82114   -23.804354   -20.280135    39.135951   -147.03944      46.7237      46.7237      46.7237           90           90           90     102002.7    444.75389 
  514000       513500   -10846.648    938.06501   -11784.713    4171.5921   -15956.305    94.476545    530.29886    1055.5291    838.21152   -393.84247    19.227999   -35.279661      46.7237      46.7237      46.7237           90           90           90     102002.7    808.01315 
  515000       514500   -10918.877     908.8569   -11827.734    4160.7993   -15988.534    91.534871    680.41322    593.95736    773.03556   -215.65626    -246.8506   -57.632796      46.7237      46.7237      46.7237           90           90           90     102002.7    682.46871 
  516000       515500   -10893.764    920.92926   -11814.693    4150.2749   -15964.968     92.75073    204.04146    852.71887    566.53079    85.425401    38.769751     188.8115      46.7237      46.7237      46.7237           90           90           90     102002.7    541.09704 
  517000       516500   -10893.613    896.73444   -11790.347    4160.9371   -15951.284    90.313966    671.03493    641.98696    391.22527    -23.72315    49.157606    -289.1475      46.7237      46.7237      46.7237           90           90           90     102002.7    568.08239 
  518000       517500   -10929.246    905.17865   -11834.425    4126.4434   -15960.868    91.164418    646.52609    463.79749    310.51338    36.833944    22.734486    -181.5149      46.7237      46.7237      46.7237           90           90           90     102002.7    473.61232 
  519000       518500   -10892.222    908.11087   -11800.333     4166.644   -15966.976    91.459735    768.38176    500.57874    725.26338   -146.86103    -36.93808   -3.3188917      46.7237      46.7237      46.7237           90           90           90     102002.7    664.74129 
  520000       519500    -10897.82    927.12256   -11824.943    4138.5086   -15963.451    93.374484    550.42834    712.78118    242.39973      45.8137   -197.28394     2.098849      46.7237      46.7237      46.7237           90           90           90     102002.7    501.86975 
  521000       520500    -10912.03    892.41855   -11804.448    4180.5775   -15985.026    89.879295    557.96695    159.28271    276.21402    124.48772    88.052213   -38.900822      46.7237      46.7237      46.7237           90           90           90     102002.7    331.15456 
  522000       521500   -10897.738     919.1734   -11816.911    4155.5378   -15972.449     92.57389    1156.8811    633.80417    469.98558    125.25777    76.720077   -75.024365      46.7237      46.7237      46.7237           90           90           90     102002.7    753.55697 
  523000       522500   -10908.681    892.83651   -11801.517    4146.1084   -15947.626    89.921389    835.61901    680.86425    583.67738   -51.496404    311.60468    174.76381      46.7237      46.7237      46.7237           90           90           90     102002.7    700.05355 
  524000       523500   -10899.001    903.22267   -11802.224    4154.0486   -15956.272    90.967424    396.21951    595.21892    287.91921    24.062799   -107.33741   -303.09981      46.7237      46.7237      46.7237           90           90           90     102002.7    426.45255 
  525000       524500   -10919.184    881.96726   -11801.152    4164.1042   -15965.256      88.8267    907.54645    723.05981     340.2823     60.88114   -42.051774   -137.37969      46.7237      46.7237      46.7237           90           90           90     102002.7    656.96285 
  526000       525500   -10897.432    905.07648   -11802.509    4152.9874   -15955.496    91.154128    931.29581    472.09323    725.63421    254.47616    136.05197   -33.226244      46.7237      46.7237      46.7237           90           90           90     102002.7    709.67441 
  527000       526500   -10886.706    923.19788   -11809.904    4155.1884   -15965.092    92.979213    645.61852    497.84458    736.48602    83.634058    221.64034   -223.95109      46.7237      46.7237      46.7237           90           90           90     102002.7    626.64971 
  528000       527500   -10907.935    904.94369   -11812.879    4145.4103   -15958.289    91.140755    798.87392    1181.0157    737.45753    196.24419   -136.46822    167.69485      46.7237      46.7237      46.7237           90           90           90     102002.7    905.78238 
  529000       528500   -10885.817    922.55776   -11808.374    4138.7334   -15947.108    92.914743    934.74561    685.95144    638.44512    64.131968    32.039705   -68.543103      46.7237      46.7237      46.7237           90           90           90     102002.7    753.04739 
  530000       529500   -10881.482    911.71639   -11793.198     4156.827   -15950.025    91.822862     588.9676    554.17432    583.65181   -10.625136   -98.952011   -236.96889      46.7237      46.7237      46.7237           90           90           90     102002.7    575.59791 
  531000       530500   -10878.001    934.95643   -11812.957    4164.0613   -15977.018    94.163466    447.37862    164.15167    409.54556   -21.589948    70.835654   -35.109146      46.7237      46.7237      46.7237           90           90           90     102002.7    340.35862 
  532000       531500   -10913.349    902.01356   -11815.362      4161.97   -15977.332    90.845649     845.2169    174.07876    607.13686    42.845572    111.45659   -77.212856      46.7237      46.7237      46.7237           90           90           90     102002.7    542.14417 
  533000       532500   -10910.603     912.8542   -11823.458    4143.9471   -15967.405    91.937456    986.31018    557.62762   -111.83957   0.34070061   -339.35098   -10.959363      46.7237      46.7237      46.7237           90           90           90     102002.7    477.36608 
  534000       533500    -10878.78     918.4158   -11797.195    4176.2404   -15973.436    92.497589    288.49088    640.36977    471.40374   -115.44644   -170.59463   -55.627316      46.7237      46.7237      46.7237           90           90           90     102002.7     466.7548 
  535000       534500   -10887.732    904.63329   -11792.366    4159.3625   -15951.728    91.109493    642.37369    910.63038    715.35146   -32.583231    -111.5808   -1.2218584      46.7237      46.7237      46.7237           90           90           90     102002.7    756.11851 
  536000       535500   -10909.303    889.25772   -11798.561    4162.4366   -15960.997    89.560954    708.60102    599.28043    801.43487    44.623753      132.215   -71.685567      46.7237      46.7237      46.7237           90           90           90     102002.7    703.10544 
  537000       536500   -10915.219    906.09982   -11821.318    4137.1927   -15958.511    91.257194    456.63846    528.37504     461.5295   -42.102414    268.91192   -95.510893      46.7237      46.7237      46.7237           90           90           90     102002.7      482.181 
  538000       537500   -10886.769    899.44571   -11786.215    4154.0889   -15940.303     90.58703    949.12502     449.2006    750.22955    214.15964   -248.29947    -21.74996      46.7237      46.7237      46.7237           90           90           90     102002.7    716.18506 
  539000       538500   -10899.665     901.2303   -11800.895    4162.0054   -15962.901    90.766764    798.36987    538.40645    505.08215    208.71098   -196.68182    197.89751      46.7237      46.7237      46.7237           90           90           90     102002.7    613.95283 
  540000       539500   -10900.895     908.1502   -11809.046      4132.53   -15941.576    91.463696    355.40725    753.07111    440.92148   -67.201303    79.004613    23.453169      46.7237      46.7237      46.7237           90           90           90     102002.7    516.46661 
  541000       540500   -10882.266    907.66667   -11789.932    4163.4783   -15953.411    91.414997    1218.1378    943.76521    751.23302   -198.21954    99.944643   -147.54748      46.7237      46.7237      46.7237           90           90           90     102002.7    971.04535 
  542000       541500   -10865.336    929.39653   -11794.733     4154.346   -15949.079    93.603505    767.72555    833.52464    760.68023    34.353321      125.995    98.134877      46.7237      46.7237      46.7237           90           90           90     102002.7    787.31014 
  543000       542500   -10914.657    892.46674   -11807.124    4163.7886   -15970.912    89.884148    317.02982    171.62609   -14.330948    -81.35387    183.57956   -236.81076      46.7237      46.7237      46.7237           90           90           90     102002.7    158.10832 
  544000       543500   -10918.173    894.56419   -11812.738     4138.284   -15951.022    90.095391    848.84971    558.45664    830.79893    138.20378    191.82345   -295.35065      46.7237      46.7237      46.7237           90           90           90     102002.7    746.03509 
  545000       544500   -10897.869    892.93141     -11790.8    4148.6118   -15939.412    89.930946    1148.4864    1060.1762    529.05527    14.173858    265.30917    66.413988      46.7237      46.7237      46.7237           90           90           90     102002.7     912.5726 
  546000       545500   -10921.373    876.00106   -11797.374    4185.3951   -15982.769    88.225819    734.66037    431.82165    416.05216   -63.658855     67.50553    52.811673      46.7237      46.7237      46.7237           90           90           90     102002.7    527.51139 
  547000       546500    -10914.43    902.67026     -11817.1     4130.509   -15947.609    90.911788    1100.9949    1147.9465    592.32657   -115.82885   -77.825048   -189.34609      46.7237      46.7237      46.7237           90           90           90     102002.7    947.08934 
  548000       547500   -10920.965    893.11124   -11814.076    4147.5192   -15961.595    89.949058    847.94601    768.80905    462.38173    108.07585   -322.77805   -81.650953      46.7237      46.7237      46.7237           90           90           90     102002.7     693.0456 
  549000       548500   -10892.548    908.83347   -11801.381    4156.4792   -15957.861    91.532511    333.35907     440.9371    249.87537   -23.615424   -171.56396    247.95303      46.7237      46.7237      46.7237           90           90           90     102002.7    341.39051 
  550000       549500   -10905.699    907.90817   -11813.607    4141.1775   -15954.785     91.43932    619.47229     819.7837    592.03072    9.2483757    146.09644   -43.855141      46.7237      46.7237      46.7237           90           90           90     102002.7    677.09557 
  551000       550500   -10904.299    913.10606   -11817.405    4154.7146    -15972.12    91.962822    563.35159    796.93918    664.67341   -137.27009      42.1572   -38.023316      46.7237      46.7237      46.7237           90           90           90     102002.7    674.98806 
  552000       551500   -10910.671    909.45018   -11820.121    4132.4102   -15952.531    91.594623    833.43575    743.94074    876.60716    55.595735    283.47972   -164.94133      46.7237      46.7237      46.7237           90           90           90     102002.7    817.99455 
  553000       552500   -10867.048    920.02235    -11787.07    4150.2069   -15937.277    92.659391    419.19527    843.62854    862.77989   -18.076183   -73.170974   -151.74328      46.7237      46.7237      46.7237           90           90           90     102002.7    708.53456 
  554000       553500   -10895.107    906.24465   -11801.352    4134.9757   -15936.327     91.27178    1183.0836    613.01399    658.55112    21.473203   -51.134771    135.74115      46.7237      46.7237      46.7237           90           90           90     102002.7    818.21622 
  555000       554500   -10881.892    914.24063   -11796.133    4142.5751   -15938.708     92.07709    666.62301    877.20166    671.33962   -86.951244    219.74027    234.35228      46.7237      46.7237      46.7237           90           90           90     102002.7     738.3881 
[...]
  936000       935500   -10883.514    899.33934   -11782.853    4162.2532   -15945.107    90.576317    580.41664    74.716556     437.4735   -83.706605   -52.769789    67.036207      46.7237      46.7237      46.7237           90           90           90     102002.7    364.20223 
  937000       936500    -10903.48    891.87723   -11795.357    4157.1293   -15952.486    89.824776    914.66943    783.19269    585.78199   -133.90428    168.82039   -70.480149      46.7237      46.7237      46.7237           90           90           90     102002.7     761.2147 
  938000       937500   -10900.315     903.0735   -11803.389    4136.3985   -15939.787      90.9524    941.64289    691.34813    691.41684     110.0885    64.892773   -25.708645      46.7237      46.7237      46.7237           90           90           90     102002.7    774.80262 
  939000       938500   -10914.159    895.89881   -11810.057    4140.4986   -15950.556    90.229806    729.02791    631.59464    812.49668     180.4869     153.2903   -213.75835      46.7237      46.7237      46.7237           90           90           90     102002.7    724.37308 
  940000       939500   -10875.026    922.07427     -11797.1    4164.5307   -15961.631    92.866049    472.27071    1107.7212    653.62877    132.28428   -85.105365   -111.47051      46.7237      46.7237      46.7237           90           90           90     102002.7    744.54022 
  941000       940500   -10897.542    899.13188   -11796.674    4144.6386   -15941.313    90.555423    647.07459    449.39467    509.81965    68.939147    46.331923    56.792001      46.7237      46.7237      46.7237           90           90           90     102002.7    535.42963 
  942000       941500   -10900.568    890.38047   -11790.948    4167.7455   -15958.694    89.674031     386.4338    688.20566    533.71596    12.278715    115.89411   -19.416917      46.7237      46.7237      46.7237           90           90           90     102002.7    536.11847 
  943000       942500   -10895.643    910.39082   -11806.034    4149.4616   -15955.496    91.689358    856.62861    940.14226    881.54693   -75.491114    80.638081   -50.327996      46.7237      46.7237      46.7237           90           90           90     102002.7     892.7726 
  944000       943500   -10926.008    886.87983   -11812.888     4144.572    -15957.46    89.321466    567.62387    196.67845    1016.7658   -171.56387    143.45249   -92.061766      46.7237      46.7237      46.7237           90           90           90     102002.7    593.68937 
  945000       944500   -10879.156    900.44894   -11779.605    4156.4361   -15936.041     90.68807    739.25753    539.99167    346.03425    55.996805   -100.67805   -136.34358      46.7237      46.7237      46.7237           90           90           90     102002.7    541.76115 
  946000       945500   -10873.811    929.28225   -11803.094    4160.0295   -15963.123    93.591995    926.10968    672.89538    339.16762    8.6357803   -102.65407   -106.85958      46.7237      46.7237      46.7237           90           90           90     102002.7    646.05756 
  947000       946500   -10903.236    888.42816   -11791.664    4141.8859    -15933.55    89.477406    754.75481    524.94938     1334.817   -55.042707    134.26249   -82.270019      46.7237      46.7237      46.7237           90           90           90     102002.7    871.50708 
  948000       947500   -10891.385    923.52104   -11814.906    4128.6222   -15943.528    93.011759    744.14896    718.71242    787.01896     136.7075    37.760968  -0.97542503      46.7237      46.7237      46.7237           90           90           90     102002.7    749.96011 
  949000       948500   -10893.327    899.56559   -11792.893    4142.2425   -15935.135    90.599103    638.59195    654.79725    691.77589   -42.920171    6.9697167    147.75926      46.7237      46.7237      46.7237           90           90           90     102002.7     661.7217 
  950000       949500   -10928.575    883.50925   -11812.084    4135.3359    -15947.42       88.982    259.37598    801.70616     728.3547    20.589346    1.4156827    67.390322      46.7237      46.7237      46.7237           90           90           90     102002.7    596.47895 
  951000       950500   -10875.449    912.44037   -11787.889    4152.1653   -15940.054    91.895777    412.88381     813.0991    678.34952     91.17185   -29.472393    28.187794      46.7237      46.7237      46.7237           90           90           90     102002.7    634.77748 
  952000       951500   -10914.907    882.52438   -11797.431    4144.5064   -15941.938     88.88281    216.46226    939.86971    235.20209   -52.707442    169.78951   -158.29773      46.7237      46.7237      46.7237           90           90           90     102002.7    463.84469 
  953000       952500   -10884.117    915.16334    -11799.28    4154.1545   -15953.434     92.17002    926.48801    528.98828    639.71521    13.787787   -29.379569    273.05057      46.7237      46.7237      46.7237           90           90           90     102002.7    698.39717 
  954000       953500   -10888.532    923.61938   -11812.151    4144.4154   -15956.567    93.021664    1019.1694    900.08636    760.90508    123.86219   -31.466456   -128.01258      46.7237      46.7237      46.7237           90           90           90     102002.7    893.38694 
  955000       954500   -10906.502    914.91294   -11821.415     4129.019   -15950.434    92.144801    869.58301    628.08211    1018.5637    22.013247   -17.279375    68.665537      46.7237      46.7237      46.7237           90           90           90     102002.7    838.74293 
  956000       955500   -10893.427    904.49646   -11797.924    4159.7332   -15957.657    91.095712    726.21338    904.33689    304.42539   -60.942804    15.568757   -2.5519574      46.7237      46.7237      46.7237           90           90           90     102002.7    644.99188 
  957000       956500   -10866.935    921.48811   -11788.423    4155.3914   -15943.814    92.807014    909.25753    932.45266    797.61012   -201.92617   -38.115549   -69.428846      46.7237      46.7237      46.7237           90           90           90     102002.7    879.77344 
  958000       957500   -10902.404    902.44878   -11804.852    4163.0702   -15967.923    90.889482    494.47793    339.23453    464.38587    30.493275    224.41699    103.82366      46.7237      46.7237      46.7237           90           90           90     102002.7    432.69945 
  959000       958500   -10884.732      911.206   -11795.938    4153.1411   -15949.079    91.771459    861.32592    515.79319    382.05709   -292.71229    34.164176   -90.651759      46.7237      46.7237      46.7237           90           90           90     102002.7    586.39207 
  960000       959500   -10883.596    909.97793   -11793.574     4133.192   -15926.766    91.647774    721.50581    867.90763    442.64158    14.784095   -60.445145    2.6235619      46.7237      46.7237      46.7237           90           90           90     102002.7    677.35168 
  961000       960500   -10911.871    894.80436   -11806.675    4151.4609   -15958.136     90.11958    414.75677    842.27875    266.75835   -15.495856   -194.81762    21.720751      46.7237      46.7237      46.7237           90           90           90     102002.7    507.93129 
  962000       961500   -10870.013    912.21005   -11782.223    4154.4599   -15936.683    91.872581    878.56105    905.94989    869.82829   -3.9288781   -175.82654    244.49726      46.7237      46.7237      46.7237           90           90           90     102002.7    884.77974 
  963000       962500   -10924.275    891.27052   -11815.546    4148.1103   -15963.656    89.763671    598.58411    853.86686     834.8389    53.691786    152.41048    105.09561      46.7237      46.7237      46.7237           90           90           90     102002.7    762.42996 
  964000       963500   -10902.435    883.78781   -11786.223    4165.9309   -15952.154    89.010056    1363.5637      783.005    672.91946   -297.56374    248.47576   -224.27725      46.7237      46.7237      46.7237           90           90           90     102002.7    939.82939 
  965000       964500   -10900.105    910.85096   -11810.956    4133.8325   -15944.788    91.735701     1167.859    675.40619     509.9495   -45.631595    105.92023    235.76686      46.7237      46.7237      46.7237           90           90           90     102002.7    784.40491 
  966000       965500   -10875.118     903.8642   -11778.982    4148.0219   -15927.004    91.032035    1052.9534     537.0267    952.37485    19.345339   -13.644233    2.0909092      46.7237      46.7237      46.7237           90           90           90     102002.7    847.45164 
  967000       966500   -10882.494    909.02936   -11791.523    4140.2977   -15931.821    91.552241    826.27143    857.84966    743.68569    81.760648    22.621844    -170.2336      46.7237      46.7237      46.7237           90           90           90     102002.7    809.26893 
  968000       967500   -10906.516    902.74514   -11809.262    4144.2788    -15953.54    90.919329     1073.816    612.42137    906.35406   -63.891076   -44.935857   -187.37995      46.7237      46.7237      46.7237           90           90           90     102002.7    864.19713 
  969000       968500   -10919.679    894.33739   -11814.017     4141.785   -15955.802    90.072549     854.9316    593.39812    457.50721   -4.6174828    220.12201    87.916714      46.7237      46.7237      46.7237           90           90           90     102002.7    635.27898 
  970000       969500    -10867.46    925.24085   -11792.701    4148.7934   -15941.495    93.184969    549.62776    624.19129    128.43078    205.13672    50.820742    19.029135      46.7237      46.7237      46.7237           90           90           90     102002.7    434.08328 
  971000       970500   -10897.886    911.53002   -11809.416    4145.2205   -15954.636    91.804093    395.07469    644.26861    593.16984    365.85152    -5.499772   -278.12742      46.7237      46.7237      46.7237           90           90           90     102002.7    544.17105 
  972000       971500   -10870.355    928.47837   -11798.833    4153.9928   -15952.826    93.511034    653.33124    447.12654     445.2893   -124.34265    60.288879   -40.287517      46.7237      46.7237      46.7237           90           90           90     102002.7    515.24902 
  973000       972500   -10905.816    907.80252   -11813.618    4152.0436   -15965.662     91.42868    699.32086    626.14917    272.79399    257.39972   -75.363617   -25.342379      46.7237      46.7237      46.7237           90           90           90     102002.7    532.75468 
  974000       973500   -10872.136    910.64165   -11782.778    4156.5391   -15939.317    91.714621    766.61943    686.28076    599.53796   -104.04946   -52.291665   -57.644442      46.7237      46.7237      46.7237           90           90           90     102002.7    684.14605 
  975000       974500   -10898.875    878.81062   -11777.685    4174.7503   -15952.436    88.508782    688.91365    949.36412    634.61313    51.420261   -55.345763   -65.418831      46.7237      46.7237      46.7237           90           90           90     102002.7     757.6303 
  976000       975500    -10893.08    910.43236   -11803.512    4148.3744   -15951.887    91.693543    289.20681    660.72425    406.36262    86.087411    64.487504   -152.51763      46.7237      46.7237      46.7237           90           90           90     102002.7    452.09789 
  977000       976500   -10913.765    903.02636   -11816.791    4145.4848   -15962.276    90.947653    803.49486     780.4304    437.57474    85.088073    177.18551   -235.54139      46.7237      46.7237      46.7237           90           90           90     102002.7    673.83333 
  978000       977500   -10906.692    900.02164   -11806.713     4126.623   -15933.336    90.645034    1076.8881    961.10478    814.74375    137.56079    78.327076   -125.71943      46.7237      46.7237      46.7237           90           90           90     102002.7    950.91221 
  979000       978500   -10894.201    891.32469   -11785.526    4154.7386   -15940.265    89.769127    649.83084    687.74114    491.41597   -59.454868   -137.94626   -86.564474      46.7237      46.7237      46.7237           90           90           90     102002.7    609.66265 
  980000       979500   -10881.987    915.76139   -11797.748    4130.1486   -15927.897    92.230252    883.83494    277.40704     730.7181   -161.67924   -126.26469   -184.86836      46.7237      46.7237      46.7237           90           90           90     102002.7    630.65336 
  981000       980500   -10912.769    902.80073    -11815.57    4136.4259   -15951.996    90.924929    960.74458    594.32451     698.7332    220.51934    41.683053   -45.296118      46.7237      46.7237      46.7237           90           90           90     102002.7    751.26743 
  982000       981500   -10896.737    902.18483   -11798.922    4153.2861   -15952.208    90.862899    835.17649    754.77148    679.02874    76.324064   -55.199569   -89.820074      46.7237      46.7237      46.7237           90           90           90     102002.7    756.32557 
  983000       982500   -10873.322    913.76587   -11787.088     4150.995   -15938.082    92.029275    750.65204    559.41684    1035.8603   -13.201836     -15.7885  -0.14697815      46.7237      46.7237      46.7237           90           90           90     102002.7    781.97641 
  984000       983500   -10898.561    904.08645   -11802.648    4160.0728    -15962.72    91.054418    864.12224    148.44987    388.44354     197.2129    53.060155   -51.214873      46.7237      46.7237      46.7237           90           90           90     102002.7    467.00522 
  985000       984500   -10934.005    885.88994   -11819.895    4138.2782   -15958.173     89.22177    710.50297    404.97286    593.86042   -3.3875822    366.09202    206.17221      46.7237      46.7237      46.7237           90           90           90     102002.7    569.77875 
  986000       985500   -10893.757     899.1127    -11792.87    4156.3543   -15949.224    90.553491    430.64334    913.48186    607.91189   -64.543009    95.208189   -73.859605      46.7237      46.7237      46.7237           90           90           90     102002.7    650.67903 
  987000       986500   -10924.122     892.1254   -11816.247    4149.0799   -15965.327     89.84977    767.22922    585.79238     563.3627   -2.0246117   -93.900986    71.831983      46.7237      46.7237      46.7237           90           90           90     102002.7    638.79477 
  988000       987500   -10885.558    889.57641   -11775.135    4169.6534   -15944.788    89.593051     817.9684     976.2751    278.09329    29.992404   -38.767663    209.95275      46.7237      46.7237      46.7237           90           90           90     102002.7    690.77893 
  989000       988500   -10882.917    923.69389   -11806.611    4152.2444   -15958.855    93.029168    745.51102    614.01254    522.77512   -56.211445   -43.755743   -192.52845      46.7237      46.7237      46.7237           90           90           90     102002.7    627.43289 
  990000       989500   -10923.583     880.4766    -11804.06    4149.0594   -15953.119     88.67657    673.66315    648.33179    401.15825    195.90907    158.16503   -25.399375      46.7237      46.7237      46.7237           90           90           90     102002.7     574.3844 
  991000       990500   -10904.081    901.48293   -11805.564    4135.4776   -15941.041    90.792207    866.04404    539.31068    223.25236   -116.38863    360.55576    42.590912      46.7237      46.7237      46.7237           90           90           90     102002.7    542.86902 
  992000       991500   -10876.986    907.13614   -11784.122    4178.5757   -15962.698    91.361566    296.88603    1106.6921    241.78759   -178.97387   -184.11469    263.55653      46.7237      46.7237      46.7237           90           90           90     102002.7    548.45525 
  993000       992500   -10888.001    901.40099   -11789.402    4139.6511   -15929.053    90.783954    1239.5597    933.38575    615.01718    96.062898   -18.510349    115.51096      46.7237      46.7237      46.7237           90           90           90     102002.7    929.32087 
  994000       993500   -10900.692    907.38105   -11808.073     4143.054   -15951.127    91.386232    439.81753    1040.3272     600.8243   -17.081683    200.93266    155.78881      46.7237      46.7237      46.7237           90           90           90     102002.7    693.65634 
  995000       994500   -10867.949    926.39764   -11794.346    4144.4963   -15938.843    93.301475    760.39168    635.84565    347.68142   -90.575711    87.826592   -88.266967      46.7237      46.7237      46.7237           90           90           90     102002.7    581.30625 
  996000       995500   -10902.895    886.35399   -11789.249    4148.0561   -15937.305    89.268507    877.13154    650.21934    653.72122   -177.41174    114.84381    122.98457      46.7237      46.7237      46.7237           90           90           90     102002.7    727.02403 
  997000       996500    -10869.37     917.2171   -11786.587    4151.9858   -15938.572    92.376862    795.51663    480.14542    543.39163   -39.560854   -32.992714   -124.61129      46.7237      46.7237      46.7237           90           90           90     102002.7    606.35123 
  998000       997500   -10910.736    900.03376    -11810.77    4138.1686   -15948.938    90.646255    1230.3443    366.92688    760.91944   -63.779593     213.8767   -290.85272      46.7237      46.7237      46.7237           90           90           90     102002.7    786.06354 
  999000       998500   -10906.256    879.78234   -11786.039    4158.3232   -15944.362    88.606648    1279.6361    767.53378    1059.8017    186.86875    119.13727    62.821661      46.7237      46.7237      46.7237           90           90           90     102002.7    1035.6572 
 1000000       999500   -10929.801    900.33391   -11830.135    4144.0524   -15974.188    90.676484    859.30659    678.54316    631.47164   -42.463314    -15.23835     177.2807      46.7237      46.7237      46.7237           90           90           90     102002.7    723.10713 
 1000500      1000000   -10909.289    880.58564   -11789.875    4142.9843   -15932.859    88.687551    830.94741    591.18512    300.20901   -59.113285    25.727553   -278.77215      46.7237      46.7237      46.7237           90           90           90     102002.7    574.11385 
Loop time of 2296.14 on 16 procs for 500000 steps with 3332 atoms

Performance: 18.814 ns/day, 1.276 hours/ns, 217.757 timesteps/s
99.8% CPU use with 16 MPI tasks x no OpenMP threads

MPI task timing breakdown:
Section |  min time  |  avg time  |  max time  |%varavg| %total
---------------------------------------------------------------
Pair    | 1157.3     | 1549.3     | 1850.5     | 500.0 | 67.47
Bond    | 114.73     | 184.16     | 244.6      | 288.3 |  8.02
Neigh   | 15.051     | 15.11      | 15.183     |   1.3 |  0.66
Comm    | 202.43     | 514.1      | 963.75     | 988.1 | 22.39
Output  | 0.13425    | 0.14218    | 0.14294    |   0.5 |  0.01
Modify  | 24.9       | 26.089     | 28.066     |  21.2 |  1.14
Other   |            | 7.269      |            |       |  0.32

Nlocal:    208.25 ave 247 max 166 min
Histogram: 2 0 2 0 2 3 2 4 0 1
Nghost:    4190.56 ave 4239 max 4148 min
Histogram: 1 1 3 2 2 2 1 2 0 2
Neighs:    11463.3 ave 15826 max 5797 min
Histogram: 1 0 1 2 1 3 3 2 1 2

Total # of neighbors = 183413
Ave neighs/atom = 55.0459
Ave special neighs/atom = 3.45738
Neighbor list builds = 4056
Dangerous builds = 0
Total wall time: 1:10:27
