LAMMPS (30 Mar 2018)
Reading data file ...
  orthogonal box = (0 0 0) to (46.7237 46.7237 46.7237)
  2 by 3 by 4 MPI processor grid
  reading atoms ...
  3155 atoms
  scanning bonds ...
  5 = max bonds/atom
  scanning angles ...
  10 = max angles/atom
  scanning dihedrals ...
  32 = max dihedrals/atom
  scanning impropers ...
  3 = max impropers/atom
  reading bonds ...
  2064 bonds
  reading angles ...
  3696 angles
  reading dihedrals ...
  6240 dihedrals
  reading impropers ...
  1008 impropers
Finding 1-2 1-3 1-4 neighbors ...
  special bond factors lj:   0          0          0         
  special bond factors coul: 0          0          0         
  5 = max # of 1-2 neighbors
  8 = max # of 1-3 neighbors
  20 = max # of 1-4 neighbors
  19 = max # of special neighbors
Finding 1-2 1-3 1-4 neighbors ...
  special bond factors lj:   0          0          1         
  special bond factors coul: 1          1          1         
  5 = max # of 1-2 neighbors
  8 = max # of 1-3 neighbors
  19 = max # of special neighbors
WARNING: Using 'neigh_modify every 1 delay 0 check yes' setting during minimization (../min.cpp:168)
Neighbor list info ...
  update every 1 steps, delay 0 steps, check yes
  max neighbors/atom: 2000, page size: 100000
  master list distance cutoff = 16
  ghost atom cutoff = 16
  binsize = 8, bins = 6 6 6
  3 neighbor lists, perpetual/occasional/extra = 3 0 0
  (1) pair buck6d/coul/gauss/dsf, perpetual, skip from (3)
      attributes: half, newton on
      pair build: skip
      stencil: none
      bin: none
  (2) pair lj/cut, perpetual, skip from (3)
      attributes: half, newton on
      pair build: skip
      stencil: none
      bin: none
  (3) neighbor class addition, perpetual
      attributes: half, newton on
      pair build: half/bin/newton
      stencil: half/bin/3d/newton
      bin: standard
Setting up cg style minimization ...
  Unit style    : real
  Current step  : 0
WARNING: Inconsistent image flags (../domain.cpp:786)
Per MPI rank memory allocation (min/avg/max) = 22.97 | 23.38 | 24.52 Mbytes
Step Temp E_pair E_mol TotEng Press 
       0            0   -15325.445    6482.8914   -8842.5539    5974.9702 
     500            0   -15722.942    3739.4774   -11983.464   -2020.8649 
Loop time of 1.81824 on 24 procs for 500 steps with 3155 atoms

97.8% CPU use with 24 MPI tasks x no OpenMP threads

Minimization stats:
  Stopping criterion = max force evaluations
  Energy initial, next-to-last, final = 
        -8842.55392011     -11983.3808769     -11983.4643021
  Force two-norm initial, final = 2575.24 12.9986
  Force max component initial, final = 152.073 1.53168
  Final line search alpha, max atom move = 0.00602552 0.00922919
  Iterations, force evaluations = 500 1000

MPI task timing breakdown:
Section |  min time  |  avg time  |  max time  |%varavg| %total
---------------------------------------------------------------
Pair    | 0.8954     | 1.1006     | 1.3002     |   9.6 | 60.53
Bond    | 0.13181    | 0.15817    | 0.20206    |   4.5 |  8.70
Neigh   | 0.01682    | 0.017069   | 0.017481   |   0.2 |  0.94
Comm    | 0.33165    | 0.50461    | 0.68831    |  13.9 | 27.75
Output  | 0          | 0          | 0          |   0.0 |  0.00
Modify  | 0          | 0          | 0          |   0.0 |  0.00
Other   |            | 0.03777    |            |       |  2.08

Nlocal:    131.458 ave 149 max 114 min
Histogram: 2 2 6 0 1 3 3 1 3 3
Nghost:    3504.17 ave 3667 max 3400 min
Histogram: 7 8 1 0 0 0 0 0 1 7
Neighs:    7653.38 ave 11574 max 4730 min
Histogram: 4 2 2 5 3 1 2 1 3 1

Total # of neighbors = 183681
Ave neighs/atom = 58.219
Ave special neighs/atom = 3.65135
Neighbor list builds = 11
Dangerous builds = 0
Neighbor list info ...
  update every 1 steps, delay 10 steps, check yes
  max neighbors/atom: 2000, page size: 100000
  master list distance cutoff = 16
  ghost atom cutoff = 16
  binsize = 8, bins = 6 6 6
  3 neighbor lists, perpetual/occasional/extra = 3 0 0
  (1) pair buck6d/coul/gauss/dsf, perpetual, skip from (3)
      attributes: half, newton on
      pair build: skip
      stencil: none
      bin: none
  (2) pair lj/cut, perpetual, skip from (3)
      attributes: half, newton on
      pair build: skip
      stencil: none
      bin: none
  (3) neighbor class addition, perpetual
      attributes: half, newton on
      pair build: half/bin/newton
      stencil: half/bin/3d/newton
      bin: standard
Setting up Verlet run ...
  Unit style    : real
  Current step  : 500
  Time step     : 1
WARNING: Inconsistent image flags (../domain.cpp:786)
Per MPI rank memory allocation (min/avg/max) = 22.62 | 22.8 | 23.4 Mbytes
Step Temp PotEng TotEng Press Volume Lx Ly Lz 
     500          110   -11983.464   -10949.302   -1557.4074     102002.7      46.7237      46.7237      46.7237 
    1000    94.884843   -11146.285   -10254.227   -485.52624     102002.7      46.7237      46.7237      46.7237 
    2000    109.06573   -10960.207   -9934.8279   -317.41178     102002.7      46.7237      46.7237      46.7237 
    3000    112.64397   -11016.091   -9957.0719    72.510258     102002.7      46.7237      46.7237      46.7237 
    4000    109.24061   -10997.945   -9970.9226    69.800867     102002.7      46.7237      46.7237      46.7237 
    5000     111.5373   -11000.052   -9951.4371   -229.84784     102002.7      46.7237      46.7237      46.7237 
    6000    109.64884   -11000.614   -9969.7529   -173.94574     102002.7      46.7237      46.7237      46.7237 
    7000    109.34486   -10991.542    -9963.539   -334.71355     102002.7      46.7237      46.7237      46.7237 
    8000    110.19593   -10977.094   -9941.0902   -152.22138     102002.7      46.7237      46.7237      46.7237 
    9000     108.2321   -11014.412   -9996.8705   -433.78896     102002.7      46.7237      46.7237      46.7237 
   10000    110.74029   -10994.868   -9953.7455   -565.37075     102002.7      46.7237      46.7237      46.7237 
   11000    109.73635   -10982.435   -9950.7515   -448.67707     102002.7      46.7237      46.7237      46.7237 
   12000    109.93912   -11023.141   -9989.5514   -405.95096     102002.7      46.7237      46.7237      46.7237 
   13000     109.3287    -11010.02   -9982.1687    -192.2184     102002.7      46.7237      46.7237      46.7237 
   14000    108.87022   -11009.111   -9985.5705    -282.3077     102002.7      46.7237      46.7237      46.7237 
   15000    106.60205   -11034.827   -10032.611   -500.62549     102002.7      46.7237      46.7237      46.7237 
   16000    108.81981   -10982.681   -9959.6143   -690.72706     102002.7      46.7237      46.7237      46.7237 
   17000    109.09378   -11021.976   -9996.3334   -343.22015     102002.7      46.7237      46.7237      46.7237 
   18000    109.76914   -11010.188   -9978.1965   -200.77649     102002.7      46.7237      46.7237      46.7237 
   19000     110.5349   -11003.861   -9964.6704   -280.66479     102002.7      46.7237      46.7237      46.7237 
   20000    108.99631   -10978.093   -9953.3672    20.310253     102002.7      46.7237      46.7237      46.7237 
   21000    112.99759   -11014.728   -9952.3836   -408.03223     102002.7      46.7237      46.7237      46.7237 
   22000    107.35091   -11021.776   -10012.519   -436.74028     102002.7      46.7237      46.7237      46.7237 
   23000    112.00413   -11012.159   -9959.1545   -92.727222     102002.7      46.7237      46.7237      46.7237 
   24000    109.36927   -10976.921   -9948.6885   -250.02539     102002.7      46.7237      46.7237      46.7237 
   25000    108.71266   -11027.099   -10005.039   -132.77724     102002.7      46.7237      46.7237      46.7237 
   26000    111.82574    -11005.85   -9954.5232   -342.70224     102002.7      46.7237      46.7237      46.7237 
   27000    111.04214   -11011.943   -9967.9831    -93.14009     102002.7      46.7237      46.7237      46.7237 
   28000    111.06791   -11001.443   -9957.2405    -18.03891     102002.7      46.7237      46.7237      46.7237 
   29000    109.35151   -11018.691   -9990.6252   -329.12676     102002.7      46.7237      46.7237      46.7237 
   30000    109.13984   -10988.084   -9962.0089   -386.10321     102002.7      46.7237      46.7237      46.7237 
   31000    111.88584   -11026.364   -9974.4716   -388.00449     102002.7      46.7237      46.7237      46.7237 
   32000    111.75132   -11026.192   -9975.5647   -522.51429     102002.7      46.7237      46.7237      46.7237 
   33000    110.08125   -11002.691    -9967.765   -448.42693     102002.7      46.7237      46.7237      46.7237 
   34000    108.52952   -11000.756   -9980.4189   -299.17901     102002.7      46.7237      46.7237      46.7237 
   35000    111.49216   -11002.557   -9954.3665   -629.13889     102002.7      46.7237      46.7237      46.7237 
   36000    108.75627   -11007.428   -9984.9591   -520.02402     102002.7      46.7237      46.7237      46.7237 
   37000    109.23322   -11000.719    -9973.766   -308.10949     102002.7      46.7237      46.7237      46.7237 
   38000    107.02802   -11000.632   -9994.4109   -512.65331     102002.7      46.7237      46.7237      46.7237 
   39000     112.3608   -11018.256    -9961.899   -270.75427     102002.7      46.7237      46.7237      46.7237 
   40000    110.30867   -10995.376   -9958.3119   -186.10864     102002.7      46.7237      46.7237      46.7237 
   41000    108.35802   -11016.657   -9997.9319   -307.70473     102002.7      46.7237      46.7237      46.7237 
   42000     108.5321   -10993.794   -9973.4322   -399.74627     102002.7      46.7237      46.7237      46.7237 
   43000    109.68146   -10995.018   -9963.8506   -576.78276     102002.7      46.7237      46.7237      46.7237 
   44000    108.73235   -11010.569   -9988.3247   -204.04658     102002.7      46.7237      46.7237      46.7237 
   45000    108.01365     -10997.1   -9981.6122   -164.37071     102002.7      46.7237      46.7237      46.7237 
   46000    109.85683   -11011.987   -9979.1704    -541.1845     102002.7      46.7237      46.7237      46.7237 
   47000    107.05525   -10978.763   -9972.2862   -218.29561     102002.7      46.7237      46.7237      46.7237 
   48000    110.80811   -11039.684   -9997.9244   -372.83658     102002.7      46.7237      46.7237      46.7237 
   49000    113.39111   -11017.189   -9951.1457   -462.61073     102002.7      46.7237      46.7237      46.7237 
   50000    110.46931   -11005.966   -9967.3915   -162.02023     102002.7      46.7237      46.7237      46.7237 
   51000    108.12701     -11009.8   -9993.2468   -109.33099     102002.7      46.7237      46.7237      46.7237 
   52000    109.05282   -11013.127   -9987.8695   -333.29526     102002.7      46.7237      46.7237      46.7237 
   53000    111.06295   -11013.878   -9969.7222   -372.77514     102002.7      46.7237      46.7237      46.7237 
   54000    110.62092   -10973.302    -9933.302    -134.8671     102002.7      46.7237      46.7237      46.7237 
   55000    109.39697   -11011.733   -9983.2402   -160.87107     102002.7      46.7237      46.7237      46.7237 
   56000    112.07909   -11012.722   -9959.0137   -541.68396     102002.7      46.7237      46.7237      46.7237 
   57000    112.52934   -10999.371   -9941.4293   -476.44003     102002.7      46.7237      46.7237      46.7237 
   58000    108.66068   -11003.429   -9981.8583   -475.04753     102002.7      46.7237      46.7237      46.7237 
   59000     110.9126   -11006.118   -9963.3764   -559.61371     102002.7      46.7237      46.7237      46.7237 
   60000    108.12118   -11007.153   -9990.6544    -186.1361     102002.7      46.7237      46.7237      46.7237 
   61000    107.18447   -11029.355   -10021.663   -325.50436     102002.7      46.7237      46.7237      46.7237 
   62000    111.19602   -11001.175   -9955.7682   -398.32734     102002.7      46.7237      46.7237      46.7237 
   63000    110.25621   -10965.658   -9929.0869   -454.56858     102002.7      46.7237      46.7237      46.7237 
   64000    107.85226   -11011.286   -9997.3154   -319.64777     102002.7      46.7237      46.7237      46.7237 
   65000    110.51507   -11015.939   -9976.9344   -426.36314     102002.7      46.7237      46.7237      46.7237 
   66000    109.24597   -11012.691   -9985.6176   -735.22329     102002.7      46.7237      46.7237      46.7237 
   67000    111.29198    -11007.83   -9961.5212   -238.36622     102002.7      46.7237      46.7237      46.7237 
   68000    107.09941   -11016.212    -10009.32   -482.15914     102002.7      46.7237      46.7237      46.7237 
   69000    111.07469   -11003.981   -9959.7149    -377.2592     102002.7      46.7237      46.7237      46.7237 
   70000    108.80856   -11004.203   -9981.2418   -11.716592     102002.7      46.7237      46.7237      46.7237 
   71000    110.75199    -11017.61   -9976.3775   -73.091584     102002.7      46.7237      46.7237      46.7237 
   72000    111.31065   -10993.288    -9946.804   -182.55087     102002.7      46.7237      46.7237      46.7237 
   73000    108.97016   -11006.723   -9982.2424   -227.72142     102002.7      46.7237      46.7237      46.7237 
   74000    110.44241   -11015.542   -9977.2202   -187.55758     102002.7      46.7237      46.7237      46.7237 
   75000    107.44404   -11005.923   -9995.7903   -174.54359     102002.7      46.7237      46.7237      46.7237 
   76000    111.17231   -10994.351   -9949.1675   -176.00179     102002.7      46.7237      46.7237      46.7237 
   77000    110.86078   -11005.696   -9963.4411   -519.81081     102002.7      46.7237      46.7237      46.7237 
   78000    111.59561   -11001.829   -9952.6654   -760.88845     102002.7      46.7237      46.7237      46.7237 
   79000    112.49462   -11000.751   -9943.1355   -765.61863     102002.7      46.7237      46.7237      46.7237 
   80000    108.82704   -10997.635   -9974.5007   -337.63536     102002.7      46.7237      46.7237      46.7237 
   81000    112.88713   -11022.083   -9960.7779   -565.88359     102002.7      46.7237      46.7237      46.7237 
   82000    108.17603   -11025.811   -10008.797   -313.33083     102002.7      46.7237      46.7237      46.7237 
   83000    108.18916   -10996.732   -9979.5948   -328.28236     102002.7      46.7237      46.7237      46.7237 
   84000    108.30001   -11025.394   -10007.214   -316.83722     102002.7      46.7237      46.7237      46.7237 
   85000    108.57648   -10990.395   -9969.6158   -542.35228     102002.7      46.7237      46.7237      46.7237 
   86000    109.50122    -11034.63   -10005.157   -295.18202     102002.7      46.7237      46.7237      46.7237 
   87000    109.23765   -10998.354   -9971.3587   -390.50663     102002.7      46.7237      46.7237      46.7237 
   88000    108.39605   -11011.528   -9992.4449   -516.99185     102002.7      46.7237      46.7237      46.7237 
   89000    109.07559   -11023.578   -9998.1068    -696.1056     102002.7      46.7237      46.7237      46.7237 
   90000    112.35497   -11018.873   -9962.5708   -530.45883     102002.7      46.7237      46.7237      46.7237 
   91000    108.88599   -10986.675   -9962.9864   -318.54982     102002.7      46.7237      46.7237      46.7237 
   92000    109.61621   -11013.325   -9982.7713   -550.50326     102002.7      46.7237      46.7237      46.7237 
   93000    112.52371   -11038.661    -9980.772   -642.24042     102002.7      46.7237      46.7237      46.7237 
   94000    109.72629   -11017.066   -9985.4772   -714.98219     102002.7      46.7237      46.7237      46.7237 
   95000    111.94739   -10982.291   -9929.8203   -463.29817     102002.7      46.7237      46.7237      46.7237 
   96000    110.11659   -11024.868   -9989.6092   -177.91033     102002.7      46.7237      46.7237      46.7237 
   97000    108.79692   -10998.255    -9975.404   -593.46261     102002.7      46.7237      46.7237      46.7237 
   98000    106.73505     -11001.7   -9998.2333   -288.25255     102002.7      46.7237      46.7237      46.7237 
   99000    108.16006   -10977.964   -9961.1004   -276.11198     102002.7      46.7237      46.7237      46.7237 
  100000    108.93876   -10992.955   -9968.7701   -520.53184     102002.7      46.7237      46.7237      46.7237 
  101000    111.79414   -11025.835   -9974.8049   -387.18141     102002.7      46.7237      46.7237      46.7237 
  102000    109.82817   -10993.509   -9960.9618   -144.21197     102002.7      46.7237      46.7237      46.7237 
  103000     108.3342   -11044.145   -10025.644   -444.83666     102002.7      46.7237      46.7237      46.7237 
  104000    111.54341   -10992.177   -9943.5044   -418.30861     102002.7      46.7237      46.7237      46.7237 
  105000     109.6225   -10996.704    -9966.091   -297.00108     102002.7      46.7237      46.7237      46.7237 
  106000    112.58352   -11020.501   -9962.0494   -549.86017     102002.7      46.7237      46.7237      46.7237 
  107000    111.80491   -11010.151   -9959.0203   -181.86607     102002.7      46.7237      46.7237      46.7237 
  108000    109.73173   -10996.318   -9964.6783   -440.94514     102002.7      46.7237      46.7237      46.7237 
  109000     109.1979   -11027.906   -10001.285   -451.15532     102002.7      46.7237      46.7237      46.7237 
  110000    111.33266   -11016.673   -9969.9815   -438.68181     102002.7      46.7237      46.7237      46.7237 
  111000    111.93517   -11014.051   -9961.6954   -605.35527     102002.7      46.7237      46.7237      46.7237 
  112000    108.30213   -11026.657   -10008.457   -434.15732     102002.7      46.7237      46.7237      46.7237 
  113000    110.37238    -11004.55   -9966.8865   -223.76962     102002.7      46.7237      46.7237      46.7237 
  114000    112.59031   -11018.463   -9959.9476   -816.87336     102002.7      46.7237      46.7237      46.7237 
  115000    108.90799   -11025.515   -10001.619   -184.61557     102002.7      46.7237      46.7237      46.7237 
  116000    110.96244   -11028.474   -9985.2631   -194.80093     102002.7      46.7237      46.7237      46.7237 
  117000    109.43125   -11008.377    -9979.562   -547.06995     102002.7      46.7237      46.7237      46.7237 
  118000    108.14843   -11026.296   -10009.541   -497.94244     102002.7      46.7237      46.7237      46.7237 
  119000    108.79989   -11012.485   -9989.6061   -523.87189     102002.7      46.7237      46.7237      46.7237 
  120000    109.40785   -11006.246   -9977.6513    -647.7502     102002.7      46.7237      46.7237      46.7237 
  121000    111.76678   -11015.591   -9964.8189   -232.26141     102002.7      46.7237      46.7237      46.7237 
  122000     107.9821    -11000.67   -9985.4792   -402.37326     102002.7      46.7237      46.7237      46.7237 
  123000    108.33293   -10988.539   -9970.0496   -199.33642     102002.7      46.7237      46.7237      46.7237 
  124000    107.43004   -10988.969   -9978.9681   -64.539909     102002.7      46.7237      46.7237      46.7237 
  125000     109.3436   -11006.045    -9978.054   -400.23351     102002.7      46.7237      46.7237      46.7237 
  126000    108.13112   -11021.817   -10005.225   -566.69578     102002.7      46.7237      46.7237      46.7237 
  127000    109.73428   -11015.743   -9984.0788   -630.36938     102002.7      46.7237      46.7237      46.7237 
  128000     109.3526   -10997.207   -9969.1308   -501.58666     102002.7      46.7237      46.7237      46.7237 
  129000    111.17647   -11022.653   -9977.4306   -491.94196     102002.7      46.7237      46.7237      46.7237 
  130000     112.2269   -10984.918   -9929.8192   -479.82988     102002.7      46.7237      46.7237      46.7237 
  131000    110.96465    -11005.87   -9962.6388   -461.34601     102002.7      46.7237      46.7237      46.7237 
  132000    111.20696   -10982.949     -9937.44   -314.35864     102002.7      46.7237      46.7237      46.7237 
  133000    111.55129   -10993.823   -9945.0766   -236.43912     102002.7      46.7237      46.7237      46.7237 
  134000    110.69896   -11013.333   -9972.5992   -194.32148     102002.7      46.7237      46.7237      46.7237 
  135000    108.81788   -11028.541   -10005.493    -309.1572     102002.7      46.7237      46.7237      46.7237 
  136000    110.05947   -11000.003   -9965.2817   -300.18218     102002.7      46.7237      46.7237      46.7237 
  137000    111.05899   -11024.774   -9980.6555   -471.12947     102002.7      46.7237      46.7237      46.7237 
  138000    110.91684   -11026.312   -9983.5301    -779.1847     102002.7      46.7237      46.7237      46.7237 
  139000    109.38725   -10996.993   -9968.5918   -409.88584     102002.7      46.7237      46.7237      46.7237 
  140000    110.03175   -11009.865   -9975.4038   -381.82366     102002.7      46.7237      46.7237      46.7237 
  141000    109.55668    -10998.87    -9968.876   -455.29576     102002.7      46.7237      46.7237      46.7237 
  142000    110.96502   -11030.697   -9987.4625   -161.70142     102002.7      46.7237      46.7237      46.7237 
  143000    111.40548   -11016.784   -9969.4085   -632.60204     102002.7      46.7237      46.7237      46.7237 
  144000    111.18797   -11013.414   -9968.0835   -657.82438     102002.7      46.7237      46.7237      46.7237 
  145000    112.69991   -11036.641   -9977.0957   -539.47766     102002.7      46.7237      46.7237      46.7237 
  146000    110.35428   -11014.142   -9976.6487   -562.45318     102002.7      46.7237      46.7237      46.7237 
  147000    109.41218   -11018.976   -9990.3399   -575.14965     102002.7      46.7237      46.7237      46.7237 
  148000    110.69085   -11039.481   -9998.8242   -513.66706     102002.7      46.7237      46.7237      46.7237 
  149000    110.08645   -11015.627   -9980.6524   -659.62742     102002.7      46.7237      46.7237      46.7237 
  150000    110.61655   -11002.103   -9962.1439   -286.34687     102002.7      46.7237      46.7237      46.7237 
  151000    109.50378   -11018.986   -9989.4894   -326.08324     102002.7      46.7237      46.7237      46.7237 
  152000     107.7087   -11007.207   -9994.5861   -58.948646     102002.7      46.7237      46.7237      46.7237 
  153000    110.55366   -11023.172    -9983.805   -306.03702     102002.7      46.7237      46.7237      46.7237 
  154000    108.76398   -11025.577   -10003.035   -283.18087     102002.7      46.7237      46.7237      46.7237 
  155000    110.55848   -11019.345   -9979.9323    -133.7757     102002.7      46.7237      46.7237      46.7237 
  156000    110.21603   -11002.324    -9966.131   -580.20784     102002.7      46.7237      46.7237      46.7237 
  157000    110.44188   -10983.881   -9945.5648    -224.6975     102002.7      46.7237      46.7237      46.7237 
  158000    106.99186    -10997.52   -9991.6388   -351.96842     102002.7      46.7237      46.7237      46.7237 
  159000    110.61367    -11002.65   -9962.7189   -521.40956     102002.7      46.7237      46.7237      46.7237 
  160000    108.25479   -10990.322   -9972.5673   -464.89317     102002.7      46.7237      46.7237      46.7237 
  161000    106.00786   -10994.842   -9998.2114    -509.5895     102002.7      46.7237      46.7237      46.7237 
  162000    110.14719   -11008.722   -9973.1765   -324.88609     102002.7      46.7237      46.7237      46.7237 
  163000    110.61111   -11019.298   -9979.3903   -337.47712     102002.7      46.7237      46.7237      46.7237 
  164000    107.46585   -11018.031   -10007.694   -342.34293     102002.7      46.7237      46.7237      46.7237 
  165000    108.93895   -11014.776   -9990.5893    -143.2069     102002.7      46.7237      46.7237      46.7237 
  166000    110.30773   -11001.073   -9964.0181   -257.32173     102002.7      46.7237      46.7237      46.7237 
  167000    111.59213   -11006.181   -9957.0506   -406.29928     102002.7      46.7237      46.7237      46.7237 
  168000    112.89575   -11033.328    -9971.941   -407.19386     102002.7      46.7237      46.7237      46.7237 
  169000    109.67327    -11012.64   -9981.5499   -459.79036     102002.7      46.7237      46.7237      46.7237 
  170000     108.0565   -11011.865   -9995.9749   -307.44269     102002.7      46.7237      46.7237      46.7237 
  171000    109.56861   -11008.662   -9978.5557   -460.41086     102002.7      46.7237      46.7237      46.7237 
  172000    109.00105   -11010.464    -9985.693   -305.63734     102002.7      46.7237      46.7237      46.7237 
  173000    108.85057   -11019.756   -9996.3999   -437.64191     102002.7      46.7237      46.7237      46.7237 
  174000    110.12445   -10998.739   -9963.4069      -451.28     102002.7      46.7237      46.7237      46.7237 
  175000     111.5209   -10994.743   -9946.2819   -322.96268     102002.7      46.7237      46.7237      46.7237 
  176000    112.77276   -11018.362   -9958.1312   -450.03646     102002.7      46.7237      46.7237      46.7237 
  177000    111.91919   -11041.975   -9989.7693   -288.48994     102002.7      46.7237      46.7237      46.7237 
  178000    110.00075   -11013.777   -9979.6077    42.267845     102002.7      46.7237      46.7237      46.7237 
  179000    111.37013    -11003.98   -9956.9368   -539.95791     102002.7      46.7237      46.7237      46.7237 
  180000    110.85976   -10991.945      -9949.7   -119.71796     102002.7      46.7237      46.7237      46.7237 
  181000    111.59286   -11030.794   -9981.6562   -309.96857     102002.7      46.7237      46.7237      46.7237 
  182000    109.26861    -11005.25   -9977.9641   -571.29781     102002.7      46.7237      46.7237      46.7237 
  183000    111.82004   -11020.477   -9969.2033   -201.24054     102002.7      46.7237      46.7237      46.7237 
  184000    110.11699   -11018.508   -9983.2458   -217.44518     102002.7      46.7237      46.7237      46.7237 
  185000    112.81012   -11019.558   -9958.9768   -104.71005     102002.7      46.7237      46.7237      46.7237 
  186000     107.4917    -10987.12   -9976.5393    270.17829     102002.7      46.7237      46.7237      46.7237 
  187000    111.88409   -11017.983    -9966.108   -542.28504     102002.7      46.7237      46.7237      46.7237 
  188000    110.37906   -11021.338   -9983.6123   -168.81043     102002.7      46.7237      46.7237      46.7237 
  189000    111.13108   -10999.792   -9954.9962   -461.07973     102002.7      46.7237      46.7237      46.7237 
  190000    109.54641   -11007.262    -9977.364   -401.83817     102002.7      46.7237      46.7237      46.7237 
  191000    107.05066   -10991.428   -9984.9938   -244.93939     102002.7      46.7237      46.7237      46.7237 
  192000    110.33406    -10989.37    -9952.067   -875.15924     102002.7      46.7237      46.7237      46.7237 
  193000    107.52425   -10996.287   -9985.4002   -664.27818     102002.7      46.7237      46.7237      46.7237 
  194000    109.49421   -11037.662   -10008.255   -522.60408     102002.7      46.7237      46.7237      46.7237 
  195000    111.15789   -11006.155   -9961.1074   -380.26478     102002.7      46.7237      46.7237      46.7237 
  196000    111.86056   -11011.081   -9959.4271    -291.3748     102002.7      46.7237      46.7237      46.7237 
  197000    112.03181   -11007.237   -9953.9728   -225.58084     102002.7      46.7237      46.7237      46.7237 
  198000    110.58833   -11018.585   -9978.8914   -810.12586     102002.7      46.7237      46.7237      46.7237 
  199000    110.08521    -11021.32   -9986.3563   -270.18268     102002.7      46.7237      46.7237      46.7237 
  200000    110.36618   -10997.567   -9959.9621   -368.89912     102002.7      46.7237      46.7237      46.7237 
  201000    110.82799    -11001.33   -9959.3833   -255.41267     102002.7      46.7237      46.7237      46.7237 
  202000     110.1061     -10997.8   -9962.6404   -215.17586     102002.7      46.7237      46.7237      46.7237 
  203000    111.81309   -11007.705   -9956.4965   -481.58302     102002.7      46.7237      46.7237      46.7237 
  204000     111.7689   -11011.896   -9961.1039   -388.39062     102002.7      46.7237      46.7237      46.7237 
  205000    110.57879   -11014.088   -9974.4838   -422.49312     102002.7      46.7237      46.7237      46.7237 
  206000    108.60843   -11011.269   -9990.1899   -520.76781     102002.7      46.7237      46.7237      46.7237 
  207000    111.56085   -11009.452   -9960.6151   -477.91262     102002.7      46.7237      46.7237      46.7237 
  208000    109.29156   -10996.843   -9969.3407   -548.43747     102002.7      46.7237      46.7237      46.7237 
  209000    106.57402   -10999.661   -9997.7082   -473.41323     102002.7      46.7237      46.7237      46.7237 
  210000    110.03276   -10995.204    -9960.734    -183.8641     102002.7      46.7237      46.7237      46.7237 
  211000      108.772   -11011.405   -9988.7879   -514.42675     102002.7      46.7237      46.7237      46.7237 
  212000    109.48545   -11004.457   -9975.1324   -302.32374     102002.7      46.7237      46.7237      46.7237 
  213000    109.63543   -11033.713   -10002.978   -113.04996     102002.7      46.7237      46.7237      46.7237 
  214000    111.05115   -10982.516   -9938.4712   -402.87974     102002.7      46.7237      46.7237      46.7237 
  215000    110.33862   -11008.348   -9971.0025   -317.14972     102002.7      46.7237      46.7237      46.7237 
  216000    109.96985   -11023.133   -9989.2542   -67.277272     102002.7      46.7237      46.7237      46.7237 
  217000     108.5072   -11009.268   -9989.1407   -343.12177     102002.7      46.7237      46.7237      46.7237 
  218000    109.72609   -11016.222   -9984.6352   -337.46009     102002.7      46.7237      46.7237      46.7237 
  219000    109.89512   -10999.988   -9966.8119   -421.34002     102002.7      46.7237      46.7237      46.7237 
  220000    111.31429   -11031.039   -9984.5205    -296.1181     102002.7      46.7237      46.7237      46.7237 
  221000    112.11115   -11011.436   -9957.4256   -452.73183     102002.7      46.7237      46.7237      46.7237 
  222000    110.55575   -11022.802   -9983.4151   -673.72139     102002.7      46.7237      46.7237      46.7237 
  223000    109.70307   -10992.621   -9961.2502   -589.23022     102002.7      46.7237      46.7237      46.7237 
  224000    111.69846   -10999.425   -9949.2949   -552.28841     102002.7      46.7237      46.7237      46.7237 
  225000    109.91883   -11008.222   -9974.8228   -274.79826     102002.7      46.7237      46.7237      46.7237 
  226000    109.38615   -10993.621   -9965.2301   -720.87823     102002.7      46.7237      46.7237      46.7237 
  227000    110.95744   -11001.349   -9958.1858   -396.00995     102002.7      46.7237      46.7237      46.7237 
  228000     109.7923   -10997.899   -9965.6898   -405.44064     102002.7      46.7237      46.7237      46.7237 
  229000    109.50439   -11011.511   -9982.0078   -361.03982     102002.7      46.7237      46.7237      46.7237 
  230000     109.5226    -10989.55   -9959.8756   -264.95978     102002.7      46.7237      46.7237      46.7237 
  231000    111.55789   -10995.807   -9946.9985   -418.50394     102002.7      46.7237      46.7237      46.7237 
  232000    109.59476   -11021.123   -9990.7702   -269.48577     102002.7      46.7237      46.7237      46.7237 
  233000     109.9986   -11024.642   -9990.4931   -584.24038     102002.7      46.7237      46.7237      46.7237 
  234000    107.09577   -10992.623   -9985.7649    -677.6833     102002.7      46.7237      46.7237      46.7237 
  235000    109.82158   -11025.567   -9993.0827   -435.96036     102002.7      46.7237      46.7237      46.7237 
  236000    108.09547   -11015.217   -9998.9607   -459.40966     102002.7      46.7237      46.7237      46.7237 
  237000     110.5152   -11045.214   -10006.208   -372.01513     102002.7      46.7237      46.7237      46.7237 
  238000    107.41274   -11002.655   -9992.8169   -203.34777     102002.7      46.7237      46.7237      46.7237 
  239000     110.4894    -11027.92   -9989.1565   -591.10559     102002.7      46.7237      46.7237      46.7237 
  240000    112.08162   -11014.083   -9960.3503   -250.27381     102002.7      46.7237      46.7237      46.7237 
  241000    111.34341   -11039.715   -9992.9224   -418.69383     102002.7      46.7237      46.7237      46.7237 
  242000    112.35534   -11011.363   -9955.0571    -395.2414     102002.7      46.7237      46.7237      46.7237 
  243000    112.14266   -10999.598   -9945.2921    -474.0982     102002.7      46.7237      46.7237      46.7237 
  244000     110.7746   -11002.581   -9961.1363   -596.56861     102002.7      46.7237      46.7237      46.7237 
  245000    106.55295   -11017.712   -10015.957   -452.60329     102002.7      46.7237      46.7237      46.7237 
  246000     109.7287   -10999.369    -9967.757   -669.64199     102002.7      46.7237      46.7237      46.7237 
  247000    113.00305   -11018.907   -9956.5113   -335.70005     102002.7      46.7237      46.7237      46.7237 
  248000    110.01355   -11012.674   -9978.3848   -228.31644     102002.7      46.7237      46.7237      46.7237 
  249000    109.11461   -11009.548   -9983.7101   -665.70598     102002.7      46.7237      46.7237      46.7237 
  250000    108.62365   -11009.973    -9988.751    -505.6077     102002.7      46.7237      46.7237      46.7237 
  251000    110.38059   -10996.985   -9959.2447   -614.22611     102002.7      46.7237      46.7237      46.7237 
  252000    108.65287   -11004.746   -9983.2483   -64.490874     102002.7      46.7237      46.7237      46.7237 
  253000    113.76364   -11005.085   -9935.5389   -500.93764     102002.7      46.7237      46.7237      46.7237 
  254000    108.29446   -11002.281   -9984.1531    -347.8341     102002.7      46.7237      46.7237      46.7237 
  255000    112.52361   -11004.237   -9946.3496   -36.242014     102002.7      46.7237      46.7237      46.7237 
  256000    109.48245   -10992.856   -9963.5597   -416.86167     102002.7      46.7237      46.7237      46.7237 
  257000    108.68314    -11046.28   -10024.498   -221.56794     102002.7      46.7237      46.7237      46.7237 
  258000    110.78298   -11003.777   -9962.2536   -288.38661     102002.7      46.7237      46.7237      46.7237 
  259000    107.87304   -11009.041   -9994.8749   -361.70044     102002.7      46.7237      46.7237      46.7237 
  260000    109.79921   -11026.926   -9994.6514    -328.9204     102002.7      46.7237      46.7237      46.7237 
  261000    109.02614   -11017.692    -9992.685    -631.3898     102002.7      46.7237      46.7237      46.7237 
  262000    110.30915   -11006.792   -9969.7231   -41.439185     102002.7      46.7237      46.7237      46.7237 
  263000    108.57529   -11035.046   -10014.278   -446.46611     102002.7      46.7237      46.7237      46.7237 
  264000    110.15448   -10997.143    -9961.528   -219.95253     102002.7      46.7237      46.7237      46.7237 
  265000    110.72583   -11039.876   -9998.8895   -298.23903     102002.7      46.7237      46.7237      46.7237 
  266000    110.18837   -11021.046   -9985.1124   -472.67607     102002.7      46.7237      46.7237      46.7237 
  267000    111.23178   -11024.441   -9978.6984   -417.94573     102002.7      46.7237      46.7237      46.7237 
  268000    110.59501   -11020.156   -9980.3997   -408.74031     102002.7      46.7237      46.7237      46.7237 
  269000    112.61098   -11027.179   -9968.4701   -295.30827     102002.7      46.7237      46.7237      46.7237 
  270000     110.4753   -11033.098   -9994.4677   -549.76037     102002.7      46.7237      46.7237      46.7237 
  271000    106.04102   -11022.066   -10025.124   -282.08957     102002.7      46.7237      46.7237      46.7237 
  272000    110.12255   -11036.793   -10001.479   -375.04668     102002.7      46.7237      46.7237      46.7237 
  273000    107.70477   -11004.814   -9992.2299   -66.623341     102002.7      46.7237      46.7237      46.7237 
  274000    110.29198     -10979.7   -9942.7927   -247.62276     102002.7      46.7237      46.7237      46.7237 
  275000    109.38067   -11016.535   -9988.1958   -563.88831     102002.7      46.7237      46.7237      46.7237 
  276000    107.60971   -10994.817   -9983.1268   -166.67228     102002.7      46.7237      46.7237      46.7237 
  277000    108.87537   -11033.031   -10009.442   -353.79886     102002.7      46.7237      46.7237      46.7237 
  278000    109.70391   -11011.444   -9980.0655   -284.27341     102002.7      46.7237      46.7237      46.7237 
  279000    110.33938   -10998.583   -9961.2297   -522.77986     102002.7      46.7237      46.7237      46.7237 
  280000    111.69333   -11044.981   -9994.8989   -746.81012     102002.7      46.7237      46.7237      46.7237 
  281000    109.35739   -11008.425    -9980.304   -407.57558     102002.7      46.7237      46.7237      46.7237 
  282000    113.27103   -11022.383   -9957.4683   -124.82263     102002.7      46.7237      46.7237      46.7237 
  283000    111.38163   -11028.075   -9980.9239    -603.9101     102002.7      46.7237      46.7237      46.7237 
  284000    111.19709   -11023.419   -9978.0023   -493.57593     102002.7      46.7237      46.7237      46.7237 
  285000    108.54319   -11010.032   -9989.5655   -219.61182     102002.7      46.7237      46.7237      46.7237 
  286000    111.54833   -11030.159   -9981.4397   -271.41084     102002.7      46.7237      46.7237      46.7237 
  287000     111.1435   -11021.093   -9976.1799   -361.54161     102002.7      46.7237      46.7237      46.7237 
  288000    107.01222   -11025.868   -10019.795   -269.91877     102002.7      46.7237      46.7237      46.7237 
  289000    110.73455   -11013.107   -9972.0387   -470.88227     102002.7      46.7237      46.7237      46.7237 
  290000    107.73879    -11018.61   -10005.706   -88.429208     102002.7      46.7237      46.7237      46.7237 
  291000    108.27332    -11028.38   -10010.451    -202.4776     102002.7      46.7237      46.7237      46.7237 
  292000    110.54062   -10997.545   -9958.3001   -188.21468     102002.7      46.7237      46.7237      46.7237 
  293000    112.19173   -11008.137   -9953.3689   -139.46045     102002.7      46.7237      46.7237      46.7237 
  294000    110.35666   -11020.289   -9982.7737   -770.20049     102002.7      46.7237      46.7237      46.7237 
  295000    109.94773   -10992.521   -9958.8506   -463.97502     102002.7      46.7237      46.7237      46.7237 
  296000    112.28774   -11016.531    -9960.861   -349.38302     102002.7      46.7237      46.7237      46.7237 
  297000    109.94783   -10999.064    -9965.392   -528.42119     102002.7      46.7237      46.7237      46.7237 
  298000    112.05338   -11008.145   -9954.6778   -656.79802     102002.7      46.7237      46.7237      46.7237 
  299000    109.90721   -10989.543   -9956.2536   -487.09183     102002.7      46.7237      46.7237      46.7237 
  300000     110.7155   -11014.399   -9973.5096   -259.91342     102002.7      46.7237      46.7237      46.7237 
  301000    108.00613   -10999.665   -9984.2477   -168.29002     102002.7      46.7237      46.7237      46.7237 
  302000    106.08466   -11010.688   -10013.336   -444.17433     102002.7      46.7237      46.7237      46.7237 
  303000    111.63307   -11009.242   -9959.7261   -59.396129     102002.7      46.7237      46.7237      46.7237 
  304000    109.40409   -11026.657   -9998.0975   -47.742632     102002.7      46.7237      46.7237      46.7237 
  305000    110.75996   -11026.485   -9985.1785   -11.250047     102002.7      46.7237      46.7237      46.7237 
  306000    109.52457   -11005.288   -9975.5952   -259.18164     102002.7      46.7237      46.7237      46.7237 
  307000    110.69776   -11014.114   -9973.3923   -289.20303     102002.7      46.7237      46.7237      46.7237 
  308000    109.49472   -11005.924   -9976.5124   -365.22113     102002.7      46.7237      46.7237      46.7237 
  309000    108.36775   -11020.006   -10001.189   -284.22742     102002.7      46.7237      46.7237      46.7237 
  310000    109.79901   -11027.833   -9995.5599   -426.01816     102002.7      46.7237      46.7237      46.7237 
  311000     110.6252   -11014.994   -9974.9539   -582.03963     102002.7      46.7237      46.7237      46.7237 
  312000    109.46497   -11025.021   -9995.8889   -497.08414     102002.7      46.7237      46.7237      46.7237 
  313000    109.36651   -11033.848   -10005.642   -553.26974     102002.7      46.7237      46.7237      46.7237 
  314000     106.7467   -11027.428   -10023.851   -478.19634     102002.7      46.7237      46.7237      46.7237 
  315000    110.62511   -11012.719   -9972.6795    -535.2378     102002.7      46.7237      46.7237      46.7237 
  316000    112.71938   -11027.378   -9967.6499   -426.25543     102002.7      46.7237      46.7237      46.7237 
  317000    110.77069   -11040.363   -9998.9552    -600.5398     102002.7      46.7237      46.7237      46.7237 
  318000    110.63305   -11011.818   -9971.7042   -212.24701     102002.7      46.7237      46.7237      46.7237 
  319000    112.23342   -11018.203   -9963.0433   -475.96733     102002.7      46.7237      46.7237      46.7237 
  320000    108.71215   -10998.631   -9976.5769   -466.21992     102002.7      46.7237      46.7237      46.7237 
  321000    107.78291   -11030.777   -10017.459   -441.51514     102002.7      46.7237      46.7237      46.7237 
  322000    110.00767   -11010.473   -9976.2389   -569.67304     102002.7      46.7237      46.7237      46.7237 
  323000    110.21527   -11014.782   -9978.5958    -376.4272     102002.7      46.7237      46.7237      46.7237 
  324000    110.56052   -11029.526   -9990.0943   -478.77502     102002.7      46.7237      46.7237      46.7237 
  325000    110.24687   -11027.459   -9990.9755   -677.89014     102002.7      46.7237      46.7237      46.7237 
  326000     111.4762   -11020.308   -9972.2675   -157.37552     102002.7      46.7237      46.7237      46.7237 
  327000    110.35461   -11035.385    -9997.889   -413.16866     102002.7      46.7237      46.7237      46.7237 
  328000    111.52357   -11016.835   -9968.3493     -284.518     102002.7      46.7237      46.7237      46.7237 
  329000    109.93148   -11014.686   -9981.1678   -464.59463     102002.7      46.7237      46.7237      46.7237 
  330000    112.79335   -11010.083   -9949.6589   -267.62477     102002.7      46.7237      46.7237      46.7237 
  331000     107.0797   -10987.687     -9980.98   -479.45467     102002.7      46.7237      46.7237      46.7237 
  332000    109.38351   -11015.127   -9986.7602    -244.7395     102002.7      46.7237      46.7237      46.7237 
  333000    111.94008   -11001.159   -9948.7571    -245.9243     102002.7      46.7237      46.7237      46.7237 
  334000    110.18223   -11016.286   -9980.4108   -484.55965     102002.7      46.7237      46.7237      46.7237 
  335000    112.10287   -11012.846   -9958.9136   -508.63408     102002.7      46.7237      46.7237      46.7237 
  336000    109.85296   -11021.249   -9988.4696    -459.7078     102002.7      46.7237      46.7237      46.7237 
  337000    107.59085   -11013.728   -10002.215    -209.7364     102002.7      46.7237      46.7237      46.7237 
  338000    108.48191   -11013.531   -9993.6411   -324.89578     102002.7      46.7237      46.7237      46.7237 
  339000    108.86902   -11024.832   -10001.302   -277.09849     102002.7      46.7237      46.7237      46.7237 
  340000    109.74827   -10998.279   -9966.4834   -379.81602     102002.7      46.7237      46.7237      46.7237 
  341000    107.59479   -11023.731   -10012.182   -432.06604     102002.7      46.7237      46.7237      46.7237 
  342000    108.31096   -11031.813   -10013.531   -319.90688     102002.7      46.7237      46.7237      46.7237 
  343000    107.47053   -10990.297   -9979.9154   -193.84348     102002.7      46.7237      46.7237      46.7237 
  344000    110.04425   -11014.705   -9980.1267   -473.55826     102002.7      46.7237      46.7237      46.7237 
  345000     110.2151   -10992.784   -9956.5999   -382.22557     102002.7      46.7237      46.7237      46.7237 
  346000    109.10616   -11018.133   -9992.3738   -430.07424     102002.7      46.7237      46.7237      46.7237 
  347000    107.68367   -11040.379   -10027.993   -518.88063     102002.7      46.7237      46.7237      46.7237 
  348000    112.56379   -11012.846   -9954.5801    -247.7484     102002.7      46.7237      46.7237      46.7237 
  349000    110.52419    -11021.28   -9982.1899   -356.06352     102002.7      46.7237      46.7237      46.7237 
  350000     107.4879   -11023.338   -10012.793   -555.95032     102002.7      46.7237      46.7237      46.7237 
  351000    108.88771   -11017.634   -9993.9285   -377.25215     102002.7      46.7237      46.7237      46.7237 
  352000    108.90014   -11005.557    -9981.735   -550.28049     102002.7      46.7237      46.7237      46.7237 
  353000    110.17991   -11014.111   -9978.2575   -476.16066     102002.7      46.7237      46.7237      46.7237 
  354000    108.41487   -11012.135   -9992.8754   -188.57097     102002.7      46.7237      46.7237      46.7237 
  355000    110.10418   -10996.539   -9961.3973   -295.20906     102002.7      46.7237      46.7237      46.7237 
  356000    109.22993   -11017.969   -9991.0467   -423.51535     102002.7      46.7237      46.7237      46.7237 
  357000    109.13552   -10987.475     -9961.44   -670.90207     102002.7      46.7237      46.7237      46.7237 
  358000    113.44229   -11025.513   -9958.9882   -503.43851     102002.7      46.7237      46.7237      46.7237 
  359000    110.50894   -11005.858   -9966.9107   -365.49854     102002.7      46.7237      46.7237      46.7237 
  360000    110.41425   -11004.887   -9966.8297   -177.88731     102002.7      46.7237      46.7237      46.7237 
  361000    108.91416   -11029.845   -10005.891   -422.21931     102002.7      46.7237      46.7237      46.7237 
  362000    111.69809   -11021.666   -9971.5393   -577.88682     102002.7      46.7237      46.7237      46.7237 
  363000    108.12601    -11027.01   -10010.466   -586.76239     102002.7      46.7237      46.7237      46.7237 
  364000    111.77006   -11025.122   -9974.3187   -671.28503     102002.7      46.7237      46.7237      46.7237 
  365000    107.87205   -11001.168   -9987.0119   -242.27569     102002.7      46.7237      46.7237      46.7237 
  366000    111.42371   -10994.091   -9946.5439   -479.29697     102002.7      46.7237      46.7237      46.7237 
  367000    110.31854   -11016.774   -9979.6169   -332.75378     102002.7      46.7237      46.7237      46.7237 
  368000    106.71316   -10987.587   -9984.3262   -320.57141     102002.7      46.7237      46.7237      46.7237 
  369000    108.50731   -11012.482    -9992.353   -317.69275     102002.7      46.7237      46.7237      46.7237 
  370000    109.15768   -11012.325   -9986.0821   -339.20557     102002.7      46.7237      46.7237      46.7237 
  371000    110.41876   -10985.723   -9947.6234    -406.2888     102002.7      46.7237      46.7237      46.7237 
  372000    112.47123   -11004.195   -9946.7991   -671.68623     102002.7      46.7237      46.7237      46.7237 
  373000    110.44381   -11009.632   -9971.2974   -289.76483     102002.7      46.7237      46.7237      46.7237 
  374000     110.3245   -11015.084   -9977.8714   -698.36198     102002.7      46.7237      46.7237      46.7237 
  375000    108.93977   -11002.374   -9978.1793   -544.79515     102002.7      46.7237      46.7237      46.7237 
  376000    107.28131   -10993.649   -9985.0469    -796.9051     102002.7      46.7237      46.7237      46.7237 
  377000    109.24171     -10988.4   -9961.3668   -729.77715     102002.7      46.7237      46.7237      46.7237 
  378000    109.51267   -11052.395   -10022.814   -887.31987     102002.7      46.7237      46.7237      46.7237 
  379000    108.53446   -11007.118   -9986.7342   -690.28677     102002.7      46.7237      46.7237      46.7237 
  380000    109.37718   -11021.646   -9993.3395   -874.15788     102002.7      46.7237      46.7237      46.7237 
  381000     110.7954   -11030.509   -9988.8687    -517.3568     102002.7      46.7237      46.7237      46.7237 
  382000    108.09449   -11017.314   -10001.067   -283.22666     102002.7      46.7237      46.7237      46.7237 
  383000    113.08803   -11039.711   -9976.5167   -394.94047     102002.7      46.7237      46.7237      46.7237 
  384000     110.0409   -11009.365   -9974.8187    -502.9338     102002.7      46.7237      46.7237      46.7237 
  385000    110.37689   -11010.089   -9972.3833   -448.03077     102002.7      46.7237      46.7237      46.7237 
  386000    109.29596   -11027.398   -9999.8545   -387.37634     102002.7      46.7237      46.7237      46.7237 
  387000    109.92175   -11004.295   -9970.8687   -590.86292     102002.7      46.7237      46.7237      46.7237 
  388000    109.72406   -11018.537   -9986.9689   -521.08286     102002.7      46.7237      46.7237      46.7237 
  389000    109.19822   -10992.211   -9965.5872   -398.21159     102002.7      46.7237      46.7237      46.7237 
  390000    108.98147   -10974.567   -9949.9806    -211.9019     102002.7      46.7237      46.7237      46.7237 
  391000     109.3795   -11029.247   -10000.918   -552.72608     102002.7      46.7237      46.7237      46.7237 
  392000    109.67537   -11001.884   -9970.7736   -268.50775     102002.7      46.7237      46.7237      46.7237 
  393000    110.07404   -10991.468     -9956.61   -709.45139     102002.7      46.7237      46.7237      46.7237 
  394000     110.5608   -10981.698   -9942.2638   -537.37411     102002.7      46.7237      46.7237      46.7237 
  395000    110.35031   -10981.495   -9944.0392   -377.25801     102002.7      46.7237      46.7237      46.7237 
  396000    106.78652    -11017.32   -10013.369    -210.2344     102002.7      46.7237      46.7237      46.7237 
  397000    111.02036   -11008.689   -9964.9343   -512.48586     102002.7      46.7237      46.7237      46.7237 
  398000    111.69645   -11010.322   -9960.2105   -465.44947     102002.7      46.7237      46.7237      46.7237 
  399000    108.15772   -11000.431   -9983.5885   -443.18249     102002.7      46.7237      46.7237      46.7237 
  400000    110.53992   -10987.239   -9948.0005   -348.15899     102002.7      46.7237      46.7237      46.7237 
  401000    111.62839   -11013.901   -9964.4294   -462.01002     102002.7      46.7237      46.7237      46.7237 
  402000    111.10968   -11028.623    -9984.028   -497.63074     102002.7      46.7237      46.7237      46.7237 
  403000    111.70402   -11032.635   -9982.4522   -665.60074     102002.7      46.7237      46.7237      46.7237 
  404000    109.26783   -11007.765   -9980.4858   -367.47208     102002.7      46.7237      46.7237      46.7237 
  405000    108.18596   -11010.837   -9993.7298   -351.43224     102002.7      46.7237      46.7237      46.7237 
  406000    110.13707   -10995.443   -9959.9917   -298.84937     102002.7      46.7237      46.7237      46.7237 
  407000    109.22695   -11013.864     -9986.97   -168.92528     102002.7      46.7237      46.7237      46.7237 
  408000    108.25069   -11012.499   -9994.7831   -567.17398     102002.7      46.7237      46.7237      46.7237 
  409000    107.08328    -10987.41   -9980.6697   -193.16767     102002.7      46.7237      46.7237      46.7237 
  410000    110.51923   -11012.751    -9973.707   -443.46563     102002.7      46.7237      46.7237      46.7237 
  411000    112.56643   -10981.741   -9923.4506   -341.94127     102002.7      46.7237      46.7237      46.7237 
  412000    109.26455   -11010.071   -9982.8235   -324.62309     102002.7      46.7237      46.7237      46.7237 
  413000    109.35906   -10997.719    -9969.583   -532.29618     102002.7      46.7237      46.7237      46.7237 
  414000    109.42358   -10994.187   -9965.4439    -189.9966     102002.7      46.7237      46.7237      46.7237 
  415000    110.26115   -11016.466   -9979.8489   -411.28503     102002.7      46.7237      46.7237      46.7237 
  416000    110.63625   -10993.758   -9953.6139    -471.5106     102002.7      46.7237      46.7237      46.7237 
  417000    112.52402   -10978.471   -9920.5794   -270.88031     102002.7      46.7237      46.7237      46.7237 
  418000    110.07699   -10997.422   -9962.5361   -256.24115     102002.7      46.7237      46.7237      46.7237 
  419000    110.96586    -10989.58   -9946.3373   -501.07947     102002.7      46.7237      46.7237      46.7237 
  420000    109.96003   -11015.269   -9981.4824   -486.83483     102002.7      46.7237      46.7237      46.7237 
  421000    112.88616   -10983.739   -9922.4425   -383.48289     102002.7      46.7237      46.7237      46.7237 
  422000     110.2483   -11019.158   -9982.6611   -424.68901     102002.7      46.7237      46.7237      46.7237 
  423000    111.93379   -11010.643   -9958.3006   -383.22548     102002.7      46.7237      46.7237      46.7237 
  424000    110.16168   -11035.215   -9999.5329    -328.5525     102002.7      46.7237      46.7237      46.7237 
  425000    110.71201   -11011.764   -9970.9083   -219.78077     102002.7      46.7237      46.7237      46.7237 
  426000    109.97928   -10996.578   -9962.6106      -270.88     102002.7      46.7237      46.7237      46.7237 
  427000    110.48539   -10981.595   -9942.8694   -410.30785     102002.7      46.7237      46.7237      46.7237 
  428000    110.60887   -10989.658   -9949.7714   -443.21301     102002.7      46.7237      46.7237      46.7237 
  429000    110.27014    -11030.11   -9993.4078   -365.57853     102002.7      46.7237      46.7237      46.7237 
  430000    109.28379   -11017.478   -9990.0488   -416.10555     102002.7      46.7237      46.7237      46.7237 
  431000    109.65834   -10981.323   -9950.3732   -322.37385     102002.7      46.7237      46.7237      46.7237 
  432000    109.11976   -10987.455   -9961.5686   -371.26325     102002.7      46.7237      46.7237      46.7237 
  433000    110.11439   -10988.629   -9953.3915   -218.69155     102002.7      46.7237      46.7237      46.7237 
  434000    107.50268   -11016.906   -10006.223   -764.82788     102002.7      46.7237      46.7237      46.7237 
  435000    111.46955   -11006.909   -9958.9311   -413.81612     102002.7      46.7237      46.7237      46.7237 
  436000    108.62255   -10987.118   -9965.9058   -272.14263     102002.7      46.7237      46.7237      46.7237 
  437000    109.62338   -11004.377   -9973.7559   -582.97805     102002.7      46.7237      46.7237      46.7237 
  438000     108.8905   -11028.586   -10004.855   -659.19716     102002.7      46.7237      46.7237      46.7237 
  439000    109.63811   -11011.062   -9980.3026     -474.123     102002.7      46.7237      46.7237      46.7237 
  440000    110.94205   -11037.107   -9994.0879   -222.65752     102002.7      46.7237      46.7237      46.7237 
  441000    108.25248   -11030.176   -10012.443   -349.47558     102002.7      46.7237      46.7237      46.7237 
  442000    110.64616   -11018.928   -9978.6909   -488.31427     102002.7      46.7237      46.7237      46.7237 
  443000    111.88337    -11028.69   -9976.8215   -180.77579     102002.7      46.7237      46.7237      46.7237 
  444000    110.74987   -11011.305   -9970.0931   -67.196744     102002.7      46.7237      46.7237      46.7237 
  445000    107.45114   -11012.676   -10002.477   -314.71406     102002.7      46.7237      46.7237      46.7237 
  446000    109.15458   -10997.512   -9971.2978   -439.80623     102002.7      46.7237      46.7237      46.7237 
  447000     111.5403   -11016.023   -9967.3796    -314.2069     102002.7      46.7237      46.7237      46.7237 
  448000    108.55386   -11008.805   -9988.2385   -838.78449     102002.7      46.7237      46.7237      46.7237 
  449000     109.0813    -10992.25   -9966.7248   -343.55438     102002.7      46.7237      46.7237      46.7237 
  450000    108.09084   -11005.405   -9989.1919   -737.42581     102002.7      46.7237      46.7237      46.7237 
  451000    110.82141   -10995.556   -9953.6717   -594.03737     102002.7      46.7237      46.7237      46.7237 
  452000    107.53981   -10973.533   -9962.5003    31.518093     102002.7      46.7237      46.7237      46.7237 
  453000    108.63515   -11016.798   -9995.4677   -351.25933     102002.7      46.7237      46.7237      46.7237 
  454000    110.62609   -11000.117   -9960.0686   -313.20099     102002.7      46.7237      46.7237      46.7237 
  455000    109.74668    -11003.78   -9971.9989   -355.77405     102002.7      46.7237      46.7237      46.7237 
  456000    110.33371   -10989.112   -9951.8125    -522.4002     102002.7      46.7237      46.7237      46.7237 
  457000    108.93273   -11047.853   -10023.725   -307.42085     102002.7      46.7237      46.7237      46.7237 
  458000     110.7525   -11008.912   -9967.6754   -231.41412     102002.7      46.7237      46.7237      46.7237 
  459000    107.34207    -11011.63   -10002.456   -361.50848     102002.7      46.7237      46.7237      46.7237 
  460000    108.47908   -11020.469   -10000.606   -474.27834     102002.7      46.7237      46.7237      46.7237 
  461000    109.28357   -11019.781   -9992.3546   -555.51183     102002.7      46.7237      46.7237      46.7237 
  462000    110.00816   -10989.944   -9955.7049   -148.70455     102002.7      46.7237      46.7237      46.7237 
  463000    110.08859   -10998.547    -9963.552   -318.07914     102002.7      46.7237      46.7237      46.7237 
  464000    110.05335   -11027.351   -9992.6873   -427.26318     102002.7      46.7237      46.7237      46.7237 
  465000    110.65459   -10992.658   -9952.3413   -302.87734     102002.7      46.7237      46.7237      46.7237 
  466000     111.4363   -10991.891   -9944.2256    -511.1534     102002.7      46.7237      46.7237      46.7237 
  467000    108.17236    -11003.43   -9986.4502   -324.84586     102002.7      46.7237      46.7237      46.7237 
  468000    109.63417   -11006.252   -9975.5294   -69.717269     102002.7      46.7237      46.7237      46.7237 
  469000    107.80006   -10968.425   -9954.9459    96.400129     102002.7      46.7237      46.7237      46.7237 
  470000    108.32661   -11003.166   -9984.7359   -173.68807     102002.7      46.7237      46.7237      46.7237 
  471000    110.28729   -10971.809   -9934.9455   -292.73375     102002.7      46.7237      46.7237      46.7237 
  472000    110.95593   -11007.757   -9964.6076   -273.34891     102002.7      46.7237      46.7237      46.7237 
  473000    110.26752   -11012.688   -9976.0103    -355.0371     102002.7      46.7237      46.7237      46.7237 
  474000    109.27451   -11009.385   -9982.0435   -343.60413     102002.7      46.7237      46.7237      46.7237 
  475000    107.43954   -11011.094   -10001.004   -590.41039     102002.7      46.7237      46.7237      46.7237 
  476000    109.47013     -11007.8   -9978.6195   -205.20602     102002.7      46.7237      46.7237      46.7237 
  477000    110.90963   -11006.434   -9963.7203   -147.46676     102002.7      46.7237      46.7237      46.7237 
  478000    109.33495   -11003.548    -9975.638   -196.11285     102002.7      46.7237      46.7237      46.7237 
  479000    111.15145   -11015.576   -9970.5885    -392.2935     102002.7      46.7237      46.7237      46.7237 
  480000    109.27663    -10993.73   -9966.3686   -695.59575     102002.7      46.7237      46.7237      46.7237 
  481000    110.26471   -11026.657   -9990.0062   -296.07067     102002.7      46.7237      46.7237      46.7237 
  482000    110.97533   -10993.165   -9949.8331   -231.73229     102002.7      46.7237      46.7237      46.7237 
  483000    109.13595   -11003.118   -9977.0795   -480.42804     102002.7      46.7237      46.7237      46.7237 
  484000    109.59972   -10999.829   -9969.4305   -394.75687     102002.7      46.7237      46.7237      46.7237 
  485000    107.73093   -11002.979   -9990.1495   -483.82418     102002.7      46.7237      46.7237      46.7237 
  486000    110.41386   -10991.354   -9953.3011   -540.66903     102002.7      46.7237      46.7237      46.7237 
  487000    108.97259   -11020.775   -9996.2721   -223.81087     102002.7      46.7237      46.7237      46.7237 
  488000    110.69784   -11021.181   -9980.4585   -290.58261     102002.7      46.7237      46.7237      46.7237 
  489000    111.97138   -11051.369   -9998.6725     129.6637     102002.7      46.7237      46.7237      46.7237 
  490000    110.46198   -10987.741   -9949.2352   -349.16035     102002.7      46.7237      46.7237      46.7237 
  491000    107.24353   -10998.109   -9989.8613   -770.53518     102002.7      46.7237      46.7237      46.7237 
  492000    108.45057   -10997.741   -9978.1459   -336.90248     102002.7      46.7237      46.7237      46.7237 
  493000    107.43773    -11004.06   -9993.9871   -475.28703     102002.7      46.7237      46.7237      46.7237 
  494000    108.84475   -10994.797   -9971.4954   -381.26944     102002.7      46.7237      46.7237      46.7237 
  495000    110.90292   -11010.318   -9967.6668    16.606154     102002.7      46.7237      46.7237      46.7237 
  496000    107.02939   -10992.559   -9986.3249   -133.59552     102002.7      46.7237      46.7237      46.7237 
  497000    110.08117   -11004.434   -9969.5089   -580.88182     102002.7      46.7237      46.7237      46.7237 
  498000    110.27055   -11003.962   -9967.2559    -457.6393     102002.7      46.7237      46.7237      46.7237 
  499000     111.8184   -11015.748   -9964.4902   -235.04176     102002.7      46.7237      46.7237      46.7237 
  500000    108.40616   -11014.002   -9994.8239   -276.66658     102002.7      46.7237      46.7237      46.7237 
  500500    105.45183    -11001.92   -10010.517   -539.63084     102002.7      46.7237      46.7237      46.7237 
Loop time of 831.169 on 24 procs for 500000 steps with 3155 atoms

Performance: 51.975 ns/day, 0.462 hours/ns, 601.562 timesteps/s
97.8% CPU use with 24 MPI tasks x no OpenMP threads

MPI task timing breakdown:
Section |  min time  |  avg time  |  max time  |%varavg| %total
---------------------------------------------------------------
Pair    | 363.56     | 461.88     | 610.28     | 253.1 | 55.57
Bond    | 60.324     | 78.748     | 96.144     | 103.6 |  9.47
Neigh   | 7.3686     | 7.3941     | 7.4146     |   0.6 |  0.89
Comm    | 105.8      | 267.26     | 365.03     | 352.7 | 32.15
Output  | 0.46961    | 0.46999    | 0.47473    |   0.1 |  0.06
Modify  | 4.5509     | 4.7747     | 5.0691     |   7.3 |  0.57
Other   |            | 10.64      |            |       |  1.28

Nlocal:    131.458 ave 166 max 110 min
Histogram: 1 4 2 8 4 2 1 0 1 1
Nghost:    3509.58 ave 3642 max 3405 min
Histogram: 1 7 8 0 0 0 0 0 0 8
Neighs:    7643.67 ave 12768 max 5214 min
Histogram: 5 4 3 3 3 4 1 0 0 1

Total # of neighbors = 183448
Ave neighs/atom = 58.1452
Ave special neighs/atom = 3.65135
Neighbor list builds = 4703
Dangerous builds = 0
Neighbor list info ...
  update every 1 steps, delay 10 steps, check yes
  max neighbors/atom: 2000, page size: 100000
  master list distance cutoff = 16
  ghost atom cutoff = 16
  binsize = 8, bins = 6 6 6
  3 neighbor lists, perpetual/occasional/extra = 3 0 0
  (1) pair buck6d/coul/gauss/dsf, perpetual, skip from (3)
      attributes: half, newton on
      pair build: skip
      stencil: none
      bin: none
  (2) pair lj/cut, perpetual, skip from (3)
      attributes: half, newton on
      pair build: skip
      stencil: none
      bin: none
  (3) neighbor class addition, perpetual
      attributes: half, newton on
      pair build: half/bin/newton
      stencil: half/bin/3d/newton
      bin: standard
Setting up Verlet run ...
  Unit style    : real
  Current step  : 500500
  Time step     : 1
WARNING: Inconsistent image flags (../domain.cpp:786)
Per MPI rank memory allocation (min/avg/max) = 24.02 | 24.56 | 24.66 Mbytes
Step Time TotEng KinEng PotEng E_mol E_pair Temp Pxx Pyy Pzz Pxy Pxz Pyz Cella Cellb Cellc CellAlpha CellBeta CellGamma Volume Press 
  500500       500000   -10010.517    991.40275    -11001.92    4273.4234   -15275.343    105.45183   -807.60993   -456.33902   -354.94356    75.141689    -135.5757    116.95719      46.7237      46.7237      46.7237           90           90           90     102002.7   -539.63084 
  501000       500500    -9986.024     1023.485   -11009.509    4259.6298   -15269.139     108.8643   -722.76443    -228.7729    81.126698   -126.51599    294.89676    -2.397422      46.7237      46.7237      46.7237           90           90           90     102002.7   -290.13688 
  502000       501500    -9999.466    1022.8943    -11022.36    4245.6052   -15267.966    108.80147   -147.22513   -401.51964   -519.33577    153.87467    105.54038    428.06923      46.7237      46.7237      46.7237           90           90           90     102002.7   -356.02684 
  503000       502500   -9980.8102    1030.8146   -11011.625    4258.6917   -15270.317    109.64393   -507.11934   -352.33624    -160.2894    149.31893    71.771993    170.68707      46.7237      46.7237      46.7237           90           90           90     102002.7   -339.91499 
  504000       503500   -9987.6475    1026.4656   -11014.113    4274.4796   -15288.593    109.18134   -176.74355    -691.2558   -40.743928    181.63877   -33.536753   -136.35962      46.7237      46.7237      46.7237           90           90           90     102002.7   -302.91443 
  505000       504500   -9920.0833    1067.3323   -10987.416     4263.074    -15250.49    113.52817   -576.89003   -432.05097   -746.96743    40.131485   -124.92814   -130.43678      46.7237      46.7237      46.7237           90           90           90     102002.7   -585.30281 
  506000       505500   -9997.5777    1021.9984   -11019.576    4269.2406   -15288.817    108.70617   -946.99008   -703.27031   -164.97648     165.1345    62.187129     117.7667      46.7237      46.7237      46.7237           90           90           90     102002.7   -605.07896 
  507000       506500   -10008.007    1006.9925       -11015    4243.6196   -15258.619    107.11005   -379.90916   -825.15969   -246.37475   -17.516578    194.79092    195.76902      46.7237      46.7237      46.7237           90           90           90     102002.7   -483.81453 
  508000       507500   -9950.9943    1038.6875   -10989.682    4276.5371   -15266.219    110.48134   -130.24109   -427.45424     -245.923   -131.02792    73.574464    312.78258      46.7237      46.7237      46.7237           90           90           90     102002.7   -267.87278 
  509000       508500   -9966.3556    1042.2387   -11008.594    4264.3054     -15272.9    110.85906   -227.86442   -617.25579   -121.49338   -341.61422   -27.096542    -167.6698      46.7237      46.7237      46.7237           90           90           90     102002.7   -322.20453 
  510000       509500   -9983.4241    1014.4588   -10997.883    4258.7995   -15256.682    107.90422   -366.45055   -945.45039   -454.42746   -32.709126    123.33891   -183.70092      46.7237      46.7237      46.7237           90           90           90     102002.7   -588.77613 
  511000       510500   -9967.5427     1033.769   -11001.312     4267.179   -15268.491    109.95818   -383.67308   -297.81922   -471.98212   -305.92763   -35.339062    175.50784      46.7237      46.7237      46.7237           90           90           90     102002.7   -384.49147 
  512000       511500   -9978.6809    1041.4549   -11020.136    4260.9087   -15281.045    110.77569   -320.79922   -281.76515   -142.13939   -66.666088    175.53522   -143.78873      46.7237      46.7237      46.7237           90           90           90     102002.7   -248.23459 
  513000       512500   -9997.1318    1036.2662   -11033.398    4244.5031   -15277.901    110.22379   -520.75713   -790.09129    35.214581    67.716693    170.82158   -148.69776      46.7237      46.7237      46.7237           90           90           90     102002.7   -425.21128 
  514000       513500   -9962.4681    1051.2341   -11013.702    4243.9178    -15257.62    111.81587   -341.87366   -160.64413   -157.79204    51.104181     136.2163   -17.663361      46.7237      46.7237      46.7237           90           90           90     102002.7   -220.10328 
  515000       514500   -9960.6989     1038.429   -10999.128    4264.1873   -15263.315    110.45384   -659.72421   -686.61138   -634.95517   -270.68991    -159.4641   -158.01212      46.7237      46.7237      46.7237           90           90           90     102002.7   -660.43025 
  516000       515500    -9939.505    1050.1835   -10989.688    4264.5676   -15254.256    111.70412   -362.83003   -699.77764   -299.72996   -36.688186    201.80446   -76.690761      46.7237      46.7237      46.7237           90           90           90     102002.7   -454.11254 
  517000       516500   -9983.9317    1022.8117   -11006.743    4252.9074   -15259.651    108.79268   -576.56019   -875.69559     298.3493   -472.28534   -51.327043    58.442023      46.7237      46.7237      46.7237           90           90           90     102002.7   -384.63549 
  518000       517500   -9997.0102    1009.2334   -11006.244    4262.0463    -15268.29    107.34841   -487.58461   -837.86257    6.3042771    49.146389    59.462625    234.17507      46.7237      46.7237      46.7237           90           90           90     102002.7    -439.7143 
  519000       518500    -9993.363    1014.4408   -11007.804    4267.3862    -15275.19     107.9023   -414.33914   -523.33251    365.16016    25.272293    188.40527   -17.669965      46.7237      46.7237      46.7237           90           90           90     102002.7   -190.83716 
  520000       519500   -9974.3761     1037.956   -11012.332    4266.1757   -15278.508    110.40353   -490.53125    -724.6928    90.171511   -486.58454   -179.77887    95.294209      46.7237      46.7237      46.7237           90           90           90     102002.7   -375.01751 
  521000       520500   -9942.2513    1055.9428   -10998.194    4275.0691   -15273.263    112.31671   -339.51602   -424.34197    -94.08734     129.0225   -73.324463    96.660932      46.7237      46.7237      46.7237           90           90           90     102002.7   -285.98178 
  522000       521500   -9965.9342    1026.2185   -10992.153    4285.3408   -15277.493    109.15505   -511.69641   -267.03445   -536.17095   -46.329256    130.99357    5.3657954      46.7237      46.7237      46.7237           90           90           90     102002.7    -438.3006 
  523000       522500   -9983.1569     1028.789   -11011.946    4257.4186   -15269.364    109.42846   -376.94871   -611.81426   -204.09489    -120.2673    35.383682   -200.98694      46.7237      46.7237      46.7237           90           90           90     102002.7   -397.61929 
  524000       523500   -9962.6592    1068.4109    -11031.07     4220.753   -15251.823     113.6429   -148.21585   -351.32808   -436.92864    110.61742   -14.552598     10.85419      46.7237      46.7237      46.7237           90           90           90     102002.7   -312.15752 
  525000       524500   -9963.3993     1044.199   -11007.598    4264.2837   -15271.882    111.06757   -340.29878   -859.05455   -146.07156   -130.02417    249.26851    82.159443      46.7237      46.7237      46.7237           90           90           90     102002.7   -448.47496 
  526000       525500   -9992.6236    1029.7275   -11022.351    4270.5323   -15292.883     109.5283   -93.469528   -826.09649   -372.80703    222.73065   -29.505936     27.71499      46.7237      46.7237      46.7237           90           90           90     102002.7   -430.79101 
  527000       526500   -9969.7431    1045.4304   -11015.174    4224.2623   -15239.436    111.19855   -192.91712   -339.10027    203.09542   -152.68993   -113.50871   -114.56639      46.7237      46.7237      46.7237           90           90           90     102002.7   -109.64066 
  528000       527500   -9957.3739    1045.6281   -11003.002    4260.6099   -15263.612    111.21959   -534.40747   -228.69371    -188.2024    169.70443    141.66585    -22.46907      46.7237      46.7237      46.7237           90           90           90     102002.7   -317.10119 
  529000       528500   -10009.382    1019.2344   -11028.616    4264.6749   -15293.291    108.41218   -390.40721   -134.12002    -808.8601    171.78578   -57.493294    72.544616      46.7237      46.7237      46.7237           90           90           90     102002.7   -444.46245 
  530000       529500   -9975.8997     1042.098   -11017.998    4262.2547   -15280.252     110.8441   -189.86665   -1100.1583   -459.47323   -112.21321    -79.18706   -145.38691      46.7237      46.7237      46.7237           90           90           90     102002.7   -583.16605 
  531000       530500   -10000.342    1028.8474   -11029.189    4239.7613   -15268.951    109.43468   -41.022387   -513.29889    22.773743    64.235246   -185.42514   -106.21808      46.7237      46.7237      46.7237           90           90           90     102002.7   -177.18251 
  532000       531500    -9980.742    1037.2779    -11018.02    4256.7786   -15274.798     110.3314    153.38034     -359.362   -349.77552   -111.23779   -58.809846   -44.076744      46.7237      46.7237      46.7237           90           90           90     102002.7   -185.25239 
  533000       532500   -10010.669     1023.069   -11033.738    4251.1402   -15284.878    108.82005   -470.12638   -418.27539   -636.56356   -254.97483    45.855467     74.56385      46.7237      46.7237      46.7237           90           90           90     102002.7   -508.32178 
  534000       533500   -9977.7731    1045.3758   -11023.149    4267.7627   -15290.912    111.19275   -513.40142   -520.56787   -858.10343    -218.1282    200.86679    135.38035      46.7237      46.7237      46.7237           90           90           90     102002.7    -630.6909 
  535000       534500   -9936.6932    1050.7868    -10987.48    4256.9009   -15244.381     111.7683   -178.54503   -662.98136    -869.6005   -124.13495   -3.0192898    9.0908116      46.7237      46.7237      46.7237           90           90           90     102002.7   -570.37563 
  536000       535500   -9968.0595    1034.5156   -11002.575    4268.7576   -15271.333    110.03759   -729.33868   -236.61307   -512.20973    244.42553   -220.34021    69.760335      46.7237      46.7237      46.7237           90           90           90     102002.7   -492.72049 
  537000       536500   -9985.2339    1046.6163    -11031.85    4239.3665   -15271.217    111.32469   -681.14013   -662.85368    54.674571    179.61733   -73.824992   -91.730379      46.7237      46.7237      46.7237           90           90           90     102002.7   -429.77308 
  538000       537500   -9940.5496    1026.4678   -10967.017    4275.2518   -15242.269    109.18157  -0.34227275   -560.99986   -760.73495   -130.01094     37.72253    -79.42147      46.7237      46.7237      46.7237           90           90           90     102002.7   -440.69236 
  539000       538500   -9983.5998    1048.0724   -11031.672    4268.8597   -15300.532    111.47957   -356.97906   -300.13758   -511.22932     35.63986   -37.756574    213.70519      46.7237      46.7237      46.7237           90           90           90     102002.7   -389.44865 
  540000       539500   -9993.6546    1018.5796   -11012.234    4257.0339   -15269.268    108.34254   -483.33419    -704.4195   -224.42408   -65.785085   -167.73748    30.741145      46.7237      46.7237      46.7237           90           90           90     102002.7   -470.72592 
  541000       540500   -9970.3818    1050.9576   -11021.339    4244.5668   -15265.906    111.78646   -319.91534   -578.14589   -580.23787    33.809512    -78.28422   -186.73958      46.7237      46.7237      46.7237           90           90           90     102002.7   -492.76637 
  542000       541500     -9994.67    1012.9727   -11007.643    4244.0062   -15251.649    107.74615     17.77585    -618.9712   -773.82215    217.13883    153.17705   -63.945867      46.7237      46.7237      46.7237           90           90           90     102002.7   -458.33916 
  543000       542500   -9961.5947    1040.5874   -11002.182    4251.9851   -15254.167    110.68342   -313.32599      77.3325   -380.79811   -290.37907    58.617906   -136.91623      46.7237      46.7237      46.7237           90           90           90     102002.7    -205.5972 
  544000       543500   -10002.495    1016.1188   -11018.614    4262.7503   -15281.364    108.08078    -615.2388   -232.51606   -424.48525   -53.242758   -155.76697   -135.87456      46.7237      46.7237      46.7237           90           90           90     102002.7   -424.08004 
  545000       544500   -10001.118    1009.1092   -11010.227    4253.9405   -15264.167     107.3352   -385.48368   -422.31126    165.74102   -141.18297    66.817084   -105.93015      46.7237      46.7237      46.7237           90           90           90     102002.7   -214.01797 
  546000       545500   -9963.0243      1028.83   -10991.854    4267.8368   -15259.691    109.43283   -569.62349   -544.61154   -75.475274   -101.83216   -80.441804    56.865544      46.7237      46.7237      46.7237           90           90           90     102002.7    -396.5701 
  547000       546500   -9945.3322    1053.5315   -10998.864    4251.6722   -15250.536    112.06024   -608.35896   -209.41813   -596.02299    328.54066    115.74186   -60.114724      46.7237      46.7237      46.7237           90           90           90     102002.7   -471.26669 
  548000       547500   -9956.1178    1049.5598   -11005.678    4253.2864   -15258.964    111.63778   -688.22012    -229.4023   -500.42981    70.707902   -37.975426    -28.23894      46.7237      46.7237      46.7237           90           90           90     102002.7   -472.68408 
  549000       548500   -9979.8397    1049.2232   -11029.063     4248.589   -15277.652    111.60198   -249.29655    -656.0064   -89.953356    57.174373   -59.507645    30.664497      46.7237      46.7237      46.7237           90           90           90     102002.7    -331.7521 
  550000       549500   -9989.9859    1022.5854   -11012.571    4263.9679   -15276.539    108.76861   -478.27894   -439.34812   -683.33003    120.63642    286.48082    160.32541      46.7237      46.7237      46.7237           90           90           90     102002.7   -533.65236 
  551000       550500   -9978.8148    1038.3569   -11017.172    4270.4921   -15287.664    110.44617    129.71268   -715.30061   -260.83702   -313.39204    241.36584    129.49259      46.7237      46.7237      46.7237           90           90           90     102002.7   -282.14165 
  552000       551500   -9948.8227    1045.6399   -10994.463    4250.4906   -15244.953    111.22083   -250.83546   -751.82095   -552.07937    87.234464   -245.28709    207.32488      46.7237      46.7237      46.7237           90           90           90     102002.7   -518.24526 
  553000       552500   -9990.4702    1029.5752   -11020.045    4228.2089   -15248.254    109.51209   -613.82501   -526.63004   -134.70091   -84.608877    118.10014    76.475454      46.7237      46.7237      46.7237           90           90           90     102002.7   -425.05199 
  554000       553500   -9939.1636    1051.9988   -10991.162    4273.0031   -15264.165    111.89721   -30.820489   -441.58924   -532.12219   -30.620106   -180.79872   -117.45412      46.7237      46.7237      46.7237           90           90           90     102002.7   -334.84397 
  555000       554500   -9975.6052    1041.1744    -11016.78    4262.3085   -15279.088    110.74586   -55.308837   -315.81619   -475.78409   -273.25151    67.092581    153.52593      46.7237      46.7237      46.7237           90           90           90     102002.7   -282.30304 
[...]
  936000       935500   -9973.7384    1032.4024   -11006.141    4256.7116   -15262.852    109.81281   -728.11054    -333.8783   -490.13156    133.31611   -2.2632172    270.04762      46.7237      46.7237      46.7237           90           90           90     102002.7   -517.37347 
  937000       936500   -9990.8464    1028.3815   -11019.228    4240.0462   -15259.274    109.38512   -944.99475    186.35224   -708.51384   -165.40058    191.66181   -28.070465      46.7237      46.7237      46.7237           90           90           90     102002.7   -489.05212 
  938000       937500    -9999.158    1013.2182   -11012.376     4226.406   -15238.782    107.77226   -433.47992   -62.052681   -177.71117    65.542313    171.42136   -329.97837      46.7237      46.7237      46.7237           90           90           90     102002.7   -224.41459 
  939000       938500   -9977.6273    1043.1468   -11020.774    4246.4324   -15267.207    110.95565   -1001.6625   -353.94822   -535.82537   -368.01125   -104.93084   -26.144532      46.7237      46.7237      46.7237           90           90           90     102002.7    -630.4787 
  940000       939500   -9965.2857    1026.9816   -10992.267    4269.7369   -15262.004    109.23623   -139.99455     -566.696   -762.87315    -233.0901   -342.75934    106.44682      46.7237      46.7237      46.7237           90           90           90     102002.7   -489.85457 
  941000       940500   -9920.2628    1044.8344   -10965.097    4302.8931    -15267.99    111.13516   -327.65494    -639.4981    184.93041    138.02189    9.6631055     135.2038      46.7237      46.7237      46.7237           90           90           90     102002.7   -260.74088 
  942000       941500   -9974.9478    1038.7316   -11013.679    4261.7149   -15275.394    110.48603    39.541173   -50.191507   -109.27954     11.45107    27.254008   -93.834747      46.7237      46.7237      46.7237           90           90           90     102002.7   -39.976623 
  943000       942500   -10013.526    1004.7228   -11018.249    4247.5087   -15265.757    106.86863    -132.1072   -332.87898    -8.647789    211.34892   -233.33391   -280.92251      46.7237      46.7237      46.7237           90           90           90     102002.7   -157.87799 
  944000       943500    -9948.544    1033.7109   -10982.255    4273.0901   -15255.345      109.952   -553.81049   -316.14227   -134.80432    107.95652    49.411449   -328.76593      46.7237      46.7237      46.7237           90           90           90     102002.7   -334.91903 
  945000       944500   -9985.3917    1024.1206   -11009.512    4250.2851   -15259.797     108.9319   -113.74226   -167.05695     21.24699     10.63639   -62.407236   -55.010609      46.7237      46.7237      46.7237           90           90           90     102002.7   -86.517408 
  946000       945500   -9952.6702    1034.9594    -10987.63    4262.2507    -15249.88    110.08479   -568.19528   -895.48301   -646.59035    70.554849    155.37912    186.00363      46.7237      46.7237      46.7237           90           90           90     102002.7   -703.42288 
  947000       946500   -9980.7918    1037.4738   -11018.266    4243.6748    -15261.94    110.35224   -515.18099   -9.7029149   -208.83166    55.535455   -90.728824    170.85621      46.7237      46.7237      46.7237           90           90           90     102002.7   -244.57185 
  948000       947500   -9965.9392      1043.23   -11009.169    4244.4537   -15253.623     110.9645    46.159335   -513.19689   -310.39257   -63.078823   -142.75408    291.84291      46.7237      46.7237      46.7237           90           90           90     102002.7   -259.14337 
  949000       948500   -9938.0728    1042.4534   -10980.526    4257.7555   -15238.282     110.8819   -338.87025   -250.49246   0.97893058    103.81302   -25.386268    82.418773      46.7237      46.7237      46.7237           90           90           90     102002.7   -196.12793 
  950000       949500   -9975.3481    1016.9973   -10992.345    4252.5761   -15244.921    108.17422    66.888445   -133.09681   -30.277142    77.950192   -162.37621    123.93884      46.7237      46.7237      46.7237           90           90           90     102002.7   -32.161837 
  951000       950500   -9960.9603    1031.8169   -10992.777    4270.8788   -15263.656    109.75054     208.1872   -318.60972   -291.81039   -142.61285    46.853397   -41.508261      46.7237      46.7237      46.7237           90           90           90     102002.7   -134.07764 
  952000       951500   -9946.7275    1055.5041   -11002.232    4230.7895   -15233.021    112.27005   -195.00267   -126.60705   -191.92047    23.213683    47.281099   -59.877009      46.7237      46.7237      46.7237           90           90           90     102002.7   -171.17673 
  953000       952500   -9986.9713     1017.691   -11004.662    4243.6546   -15248.317    108.24801   -528.90602    21.632821     270.0996   -14.033425   -29.725248      91.9944      46.7237      46.7237      46.7237           90           90           90     102002.7   -79.057866 
  954000       953500   -9938.0769    1043.4806   -10981.558    4271.3807   -15252.938    110.99116   -718.54752   -826.59826   -108.83649    -31.40001    30.859261    -47.66427      46.7237      46.7237      46.7237           90           90           90     102002.7   -551.32743 
  955000       954500    -10007.68    1014.0422   -11021.722    4270.3312   -15292.053     107.8599   -10.382227   -376.27028   -861.34085    290.91237    210.79594     56.02173      46.7237      46.7237      46.7237           90           90           90     102002.7   -415.99778 
  956000       955500   -9957.0246    1057.3397   -11014.364     4256.129   -15270.493     112.4653   -501.93172   -368.60688   -510.67779    207.81263    116.38185   -4.7770602      46.7237      46.7237      46.7237           90           90           90     102002.7   -460.40547 
  957000       956500   -9970.9021    1021.3463   -10992.248    4270.4612    -15262.71    108.63681   -375.23861   -219.07527   -257.00691    112.79655    44.001621    53.933913      46.7237      46.7237      46.7237           90           90           90     102002.7    -283.7736 
  958000       957500   -9995.8873    1019.2639   -11015.151    4252.5728   -15267.724    108.41532   -203.76349   -543.06578   -360.68156    2.5738509    42.845904   -150.89513      46.7237      46.7237      46.7237           90           90           90     102002.7   -369.17027 
  959000       958500   -9969.6793    1034.5934   -11004.273    4259.1267   -15263.399    110.04586   -779.53072   -635.14839   -792.57317    133.43896    239.46731    11.711168      46.7237      46.7237      46.7237           90           90           90     102002.7   -735.75076 
  960000       959500   -9969.1153    1032.4242    -11001.54    4253.7443   -15255.284    109.81513   -208.17503   -207.03177   -188.22455    -26.66239   -66.499974   -164.20151      46.7237      46.7237      46.7237           90           90           90     102002.7   -201.14378 
  961000       960500   -9977.0664    1037.5259   -11014.592    4257.3623   -15271.955    110.35778   -96.072184    73.010616   -569.44819   -52.672522    31.808442    45.556688      46.7237      46.7237      46.7237           90           90           90     102002.7   -197.50325 
  962000       961500    -10006.14    1034.8001    -11040.94    4245.4724   -15286.412    110.06784   -602.65171   -777.80627   -353.81583    35.222693   -23.295121   -112.28093      46.7237      46.7237      46.7237           90           90           90     102002.7   -578.09127 
  963000       962500   -9972.5308    1033.0789    -11005.61    4248.5738   -15254.184    109.88477    21.168498   -162.63357   -316.18039    47.922819   -50.510246   -19.783333      46.7237      46.7237      46.7237           90           90           90     102002.7   -152.54848 
  964000       963500   -9988.4318    1024.8872   -11013.319    4264.9966   -15278.316    109.01344   -401.39609    54.586393   -78.737548   -113.07434    2.5410126   -130.75434      46.7237      46.7237      46.7237           90           90           90     102002.7   -141.84908 
  965000       964500   -9946.6012    1065.5199   -11012.121    4248.9059   -15261.027    113.33539    2.5159206   -540.35876   -328.67215   -67.229833     234.3051   -53.387677      46.7237      46.7237      46.7237           90           90           90     102002.7   -288.83833 
  966000       965500   -9967.1978    1042.4789   -11009.677    4247.2668   -15256.943    110.88461   -280.00432   -482.47082   -212.59006   -14.054947    82.738122    82.488831      46.7237      46.7237      46.7237           90           90           90     102002.7   -325.02173 
  967000       966500   -10026.699    1019.6363   -11046.335      4213.88   -15260.215    108.45492   -107.84036   -547.75985   -286.13172   -108.04922    216.03533   -177.44453      46.7237      46.7237      46.7237           90           90           90     102002.7   -313.91064 
  968000       967500   -9969.8047    1036.5668   -11006.371    4244.8699   -15251.241    110.25577   -94.101421    33.561942   -320.71878    121.64725   -237.65496     202.5939      46.7237      46.7237      46.7237           90           90           90     102002.7   -127.08609 
  969000       968500   -9988.0904    1027.7316   -11015.822    4236.4508   -15252.273      109.316   -174.65115   -213.04471   -401.48854    105.32006   -78.475271     -69.5287      46.7237      46.7237      46.7237           90           90           90     102002.7   -263.06147 
  970000       969500   -9967.5489    1043.5881   -11011.137    4250.9733    -15262.11     111.0026    -483.3967   -57.418381    165.15742    120.68041   -112.22501   -64.682947      46.7237      46.7237      46.7237           90           90           90     102002.7   -125.21922 
  971000       970500   -9931.5771    1040.5139   -10972.091     4260.066   -15232.157     110.6756   -338.62242    -295.5517   -399.93207   -56.511919   -72.437837    -134.3225      46.7237      46.7237      46.7237           90           90           90     102002.7   -344.70206 
  972000       971500   -9961.3064    1031.2063   -10992.513    4255.4486   -15247.961    109.68559   -649.42222   -31.415263    309.76485    9.6846194    256.36741      104.965      46.7237      46.7237      46.7237           90           90           90     102002.7   -123.69088 
  973000       972500   -9974.9886     1014.129   -10989.118    4243.2868   -15232.404    107.86914    -167.3363    67.254274   -110.10345    35.315549    47.252907    299.22506      46.7237      46.7237      46.7237           90           90           90     102002.7   -70.061827 
  974000       973500   -9967.8568    1030.5376   -10998.394    4254.2788   -15252.673    109.61446   -686.16094    388.03343   -389.54306    202.24541    185.36359   -21.038809      46.7237      46.7237      46.7237           90           90           90     102002.7   -229.22352 
  975000       974500   -9973.4317    1043.4022   -11016.834    4253.2448   -15270.079    110.98282    78.696997    6.9336246    138.01764    219.22895   -106.07644   -10.087908      46.7237      46.7237      46.7237           90           90           90     102002.7     74.54942 
  976000       975500   -10010.691    1005.3479   -11016.039    4241.6337   -15257.673    106.93512   -216.40915   -491.35954   -224.64679    138.19543    130.40846    95.634592      46.7237      46.7237      46.7237           90           90           90     102002.7   -310.80516 
  977000       976500   -9970.0666    1036.2206   -11006.287     4263.529   -15269.816    110.21894   -366.87235   -497.63162   -262.94404   -147.87506      53.7678   -63.398451      46.7237      46.7237      46.7237           90           90           90     102002.7   -375.81601 
  978000       977500   -9946.7137    1037.6801   -10984.394    4252.1835   -15236.577    110.37418   -169.87986   -182.22053   -439.23571    147.30845   -37.427143   -32.881249      46.7237      46.7237      46.7237           90           90           90     102002.7    -263.7787 
  979000       978500   -9998.5511    1023.2453   -11021.796    4236.8482   -15258.645    108.83881   -539.86278   -588.78264   -244.25168   -36.317645   -57.917703   -26.177697      46.7237      46.7237      46.7237           90           90           90     102002.7   -457.63237 
  980000       979500   -9984.7641    1022.3042   -11007.068    4243.2145   -15250.283     108.7387    196.42929   -125.04932   -96.801664   -106.99621    83.394875    306.45236      46.7237      46.7237      46.7237           90           90           90     102002.7   -8.4738981 
  981000       980500   -9974.2854    1045.9902   -11020.276    4245.9865   -15266.262     111.2581   -533.25847    -377.8146    -99.54364   -227.34544   -33.876068    21.439477      46.7237      46.7237      46.7237           90           90           90     102002.7   -336.87224 
  982000       981500   -9952.4527    1033.0762   -10985.529    4265.3453   -15250.874    109.88449   -67.406304   -673.64304   -665.30684   -72.073762    7.5358824   -311.55735      46.7237      46.7237      46.7237           90           90           90     102002.7    -468.7854 
  983000       982500   -9958.6935    1026.9175   -10985.611    4284.0823   -15269.693     109.2294    99.208928   -187.26477   -207.00214   -84.587145    216.75299   -211.56545      46.7237      46.7237      46.7237           90           90           90     102002.7   -98.352659 
  984000       983500    -9976.717    1047.6921   -11024.409    4240.4085   -15264.818    111.43913   -477.78738   -386.67718   -368.16411   -59.966302    58.047069    95.382118      46.7237      46.7237      46.7237           90           90           90     102002.7   -410.87622 
  985000       984500    -9989.824    1039.1361    -11028.96    4234.9047   -15263.865    110.52906   -85.603268    18.485649   -550.12201   -217.53741   -81.555952   -32.299306      46.7237      46.7237      46.7237           90           90           90     102002.7   -205.74654 
  986000       985500   -9945.9663    1046.8856   -10992.852    4274.0591   -15266.911    111.35334   -708.92729    162.86684   -231.71829    163.72658    139.88307   -68.839271      46.7237      46.7237      46.7237           90           90           90     102002.7   -259.25958 
  987000       986500   -9966.4162    1050.3119   -11016.728    4236.5859   -15253.314    111.71778    248.21679   -368.90358      259.392    121.39052    544.31015    61.446655      46.7237      46.7237      46.7237           90           90           90     102002.7    46.235068 
  988000       987500   -9958.2345    1037.4838   -10995.718    4260.6144   -15256.333     110.3533    7.7965396   -523.87979    104.25922    85.501005   -194.64023    55.296736      46.7237      46.7237      46.7237           90           90           90     102002.7   -137.27468 
  989000       988500   -10030.279    1009.2619   -11039.541    4221.9841   -15261.525    107.35145    343.72385    71.399323    -174.2391   -7.3419385   -137.65744    48.923421      46.7237      46.7237      46.7237           90           90           90     102002.7    80.294693 
  990000       989500   -9971.7936    1035.9558   -11007.749    4257.0901    -15264.84    110.19077    331.24369   -11.009085   -374.17343   -36.533479     -226.367   -27.432429      46.7237      46.7237      46.7237           90           90           90     102002.7    -17.97961 
  991000       990500   -9967.1675    1026.4262   -10993.594    4269.1723   -15262.766    109.17714   -45.677694   -222.71812    64.124684    89.193787   -79.064054    9.1615204      46.7237      46.7237      46.7237           90           90           90     102002.7   -68.090378 
  992000       991500   -9996.0497    1011.1879   -11007.238    4256.0137   -15263.251    107.55631   -2.8836964   -426.92285   -438.65574    150.76447   -44.153909    76.565048      46.7237      46.7237      46.7237           90           90           90     102002.7   -289.48743 
  993000       992500   -9969.7318    1024.7714   -10994.503    4256.2832   -15250.786    109.00113   -81.818559   -408.50385    -571.8591     231.7663    91.132714    32.043134      46.7237      46.7237      46.7237           90           90           90     102002.7    -354.0605 
  994000       993500   -9962.5823    1044.2435   -11006.826    4250.8676   -15257.693     111.0723   -502.76887    37.472998    211.62309   -25.973039   -98.918392    144.60787      46.7237      46.7237      46.7237           90           90           90     102002.7   -84.557594 
  995000       994500   -9986.7307    1038.4749   -11025.206    4225.1257   -15250.331    110.45872   -59.318024   -198.83096   -302.84023    67.439393    -126.4327     62.17635      46.7237      46.7237      46.7237           90           90           90     102002.7    -186.9964 
  996000       995500    -9977.598     1030.966   -11008.564    4275.3705   -15283.934    109.66003   -424.26708   -18.588325    471.17166    58.383503    55.575232    144.14393      46.7237      46.7237      46.7237           90           90           90     102002.7    9.4387503 
  997000       996500   -9974.8254    1031.6748     -11006.5    4242.9763   -15249.477    109.73542   -23.645574   -283.11662   -252.06171   -67.518766    135.67211    20.657239      46.7237      46.7237      46.7237           90           90           90     102002.7   -186.27463 
  998000       997500   -9986.7945     1024.635    -11011.43    4255.2438   -15266.673    108.98662   -451.35724   -472.69479    -740.0763    129.18129    445.51913   -51.077723      46.7237      46.7237      46.7237           90           90           90     102002.7   -554.70944 
  999000       998500   -9990.8504    1028.1996    -11019.05    4272.3166   -15291.367    109.36578   -559.49228   -224.77911   -135.08559   -73.489402    8.0135909    72.015897      46.7237      46.7237      46.7237           90           90           90     102002.7   -306.45233 
 1000000       999500   -9962.0608    1028.7967   -10990.857    4263.9678   -15254.825    109.42929    3.3880738   -744.51154   -546.07245    149.90355    -96.14872   -245.68086      46.7237      46.7237      46.7237           90           90           90     102002.7   -429.06531 
 1000500      1000000   -10019.681    1025.2108   -11044.891    4233.7077   -15278.599    109.04787    -548.5114   -516.17762    197.69348   -59.832781   -224.68921    56.205951      46.7237      46.7237      46.7237           90           90           90     102002.7   -288.99851 
Loop time of 967.176 on 24 procs for 500000 steps with 3155 atoms

Performance: 44.666 ns/day, 0.537 hours/ns, 516.969 timesteps/s
98.1% CPU use with 24 MPI tasks x no OpenMP threads

MPI task timing breakdown:
Section |  min time  |  avg time  |  max time  |%varavg| %total
---------------------------------------------------------------
Pair    | 444.74     | 557.84     | 684.46     | 256.2 | 57.68
Bond    | 57.156     | 83         | 113.27     | 148.9 |  8.58
Neigh   | 7.4707     | 7.4984     | 7.5246     |   0.7 |  0.78
Comm    | 157.28     | 294.45     | 425.05     | 390.7 | 30.44
Output  | 0.53387    | 0.58365    | 0.58604    |   1.4 |  0.06
Modify  | 12.785     | 13.194     | 13.652     |   7.2 |  1.36
Other   |            | 10.61      |            |       |  1.10

Nlocal:    131.458 ave 166 max 99 min
Histogram: 3 1 3 3 2 3 2 3 3 1
Nghost:    3539.38 ave 3704 max 3445 min
Histogram: 6 9 1 0 0 0 0 3 3 2
Neighs:    7642.71 ave 11951 max 4577 min
Histogram: 2 2 4 6 1 3 2 3 0 1

Total # of neighbors = 183425
Ave neighs/atom = 58.1379
Ave special neighs/atom = 3.65135
Neighbor list builds = 4707
Dangerous builds = 0
Total wall time: 0:30:00
