LAMMPS (30 Mar 2018)
Reading data file ...
  orthogonal box = (0 0 0) to (46.7237 46.7237 46.7237)
  2 by 2 by 4 MPI processor grid
  reading atoms ...
  3335 atoms
  scanning bonds ...
  5 = max bonds/atom
  scanning angles ...
  10 = max angles/atom
  scanning dihedrals ...
  32 = max dihedrals/atom
  scanning impropers ...
  3 = max impropers/atom
  reading bonds ...
  2064 bonds
  reading angles ...
  3696 angles
  reading dihedrals ...
  6240 dihedrals
  reading impropers ...
  1008 impropers
Finding 1-2 1-3 1-4 neighbors ...
  special bond factors lj:   0          0          0         
  special bond factors coul: 0          0          0         
  5 = max # of 1-2 neighbors
  8 = max # of 1-3 neighbors
  20 = max # of 1-4 neighbors
  19 = max # of special neighbors
Finding 1-2 1-3 1-4 neighbors ...
  special bond factors lj:   0          0          1         
  special bond factors coul: 1          1          1         
  5 = max # of 1-2 neighbors
  8 = max # of 1-3 neighbors
  19 = max # of special neighbors
WARNING: Using 'neigh_modify every 1 delay 0 check yes' setting during minimization (../min.cpp:168)
Neighbor list info ...
  update every 1 steps, delay 0 steps, check yes
  max neighbors/atom: 2000, page size: 100000
  master list distance cutoff = 16
  ghost atom cutoff = 16
  binsize = 8, bins = 6 6 6
  3 neighbor lists, perpetual/occasional/extra = 3 0 0
  (1) pair buck6d/coul/gauss/dsf, perpetual, skip from (3)
      attributes: half, newton on
      pair build: skip
      stencil: none
      bin: none
  (2) pair lj/cut, perpetual, skip from (3)
      attributes: half, newton on
      pair build: skip
      stencil: none
      bin: none
  (3) neighbor class addition, perpetual
      attributes: half, newton on
      pair build: half/bin/newton
      stencil: half/bin/3d/newton
      bin: standard
Setting up cg style minimization ...
  Unit style    : real
  Current step  : 0
WARNING: Inconsistent image flags (../domain.cpp:786)
Per MPI rank memory allocation (min/avg/max) = 23.03 | 23.48 | 23.93 Mbytes
Step Temp E_pair E_mol TotEng Press 
       0            0   -16033.266    6482.8914   -9550.3748     6784.311 
     500            0   -16410.598    3808.5457   -12602.052   -1114.1238 
Loop time of 4.47643 on 16 procs for 500 steps with 3335 atoms

99.9% CPU use with 16 MPI tasks x no OpenMP threads

Minimization stats:
  Stopping criterion = max force evaluations
  Energy initial, next-to-last, final = 
        -9550.37477557     -12601.9580552     -12602.0519583
  Force two-norm initial, final = 2574.7 13.7788
  Force max component initial, final = 152.111 2.70779
  Final line search alpha, max atom move = 0.00552134 0.0149507
  Iterations, force evaluations = 500 1000

MPI task timing breakdown:
Section |  min time  |  avg time  |  max time  |%varavg| %total
---------------------------------------------------------------
Pair    | 2.5782     | 3.1432     | 3.634      |  18.9 | 70.22
Bond    | 0.28986    | 0.35972    | 0.42706    |   5.9 |  8.04
Neigh   | 0.031938   | 0.03204    | 0.032124   |   0.0 |  0.72
Comm    | 0.39665    | 0.8941     | 1.4869     |  37.0 | 19.97
Output  | 0          | 0          | 0          |   0.0 |  0.00
Modify  | 0          | 0          | 0          |   0.0 |  0.00
Other   |            | 0.04736    |            |       |  1.06

Nlocal:    208.438 ave 226 max 183 min
Histogram: 2 0 1 1 1 1 3 3 2 2
Nghost:    4166.19 ave 4200 max 4143 min
Histogram: 3 0 3 3 2 1 2 1 0 1
Neighs:    11506.3 ave 16045 max 6456 min
Histogram: 1 1 2 3 1 1 1 3 0 3

Total # of neighbors = 184101
Ave neighs/atom = 55.2027
Ave special neighs/atom = 3.45427
Neighbor list builds = 9
Dangerous builds = 0
Neighbor list info ...
  update every 1 steps, delay 10 steps, check yes
  max neighbors/atom: 2000, page size: 100000
  master list distance cutoff = 16
  ghost atom cutoff = 16
  binsize = 8, bins = 6 6 6
  3 neighbor lists, perpetual/occasional/extra = 3 0 0
  (1) pair buck6d/coul/gauss/dsf, perpetual, skip from (3)
      attributes: half, newton on
      pair build: skip
      stencil: none
      bin: none
  (2) pair lj/cut, perpetual, skip from (3)
      attributes: half, newton on
      pair build: skip
      stencil: none
      bin: none
  (3) neighbor class addition, perpetual
      attributes: half, newton on
      pair build: half/bin/newton
      stencil: half/bin/3d/newton
      bin: standard
Setting up Verlet run ...
  Unit style    : real
  Current step  : 500
  Time step     : 1
WARNING: Inconsistent image flags (../domain.cpp:786)
Per MPI rank memory allocation (min/avg/max) = 22.67 | 22.74 | 22.8 Mbytes
Step Temp PotEng TotEng Press Volume Lx Ly Lz 
     500           91   -12602.052   -11697.692   -708.83704     102002.7      46.7237      46.7237      46.7237 
    1000    75.764399   -11844.601   -11091.653    468.52074     102002.7      46.7237      46.7237      46.7237 
    2000    92.812512   -11716.765   -10794.392    786.01347     102002.7      46.7237      46.7237      46.7237 
    3000    92.756691   -11742.922   -10821.104    967.86486     102002.7      46.7237      46.7237      46.7237 
    4000    93.681385   -11742.399   -10811.391    1053.6893     102002.7      46.7237      46.7237      46.7237 
    5000    90.697585   -11753.732   -10852.378    662.15719     102002.7      46.7237      46.7237      46.7237 
    6000    90.712036   -11745.557   -10844.059     811.3053     102002.7      46.7237      46.7237      46.7237 
    7000    91.802882   -11741.191   -10828.852     480.2893     102002.7      46.7237      46.7237      46.7237 
    8000    90.320652   -11744.324   -10846.715    759.23838     102002.7      46.7237      46.7237      46.7237 
    9000    90.957302   -11767.109   -10863.174    540.08959     102002.7      46.7237      46.7237      46.7237 
   10000    91.227922   -11738.624   -10831.999    566.34046     102002.7      46.7237      46.7237      46.7237 
   11000    90.958903   -11733.002    -10829.05    642.37482     102002.7      46.7237      46.7237      46.7237 
   12000    91.343511   -11757.038   -10849.264    507.53858     102002.7      46.7237      46.7237      46.7237 
   13000     92.58249   -11718.493   -10798.406    896.83796     102002.7      46.7237      46.7237      46.7237 
   14000    89.662944   -11738.803   -10847.731    816.08989     102002.7      46.7237      46.7237      46.7237 
   15000    90.814287   -11779.881   -10877.366    1042.6062     102002.7      46.7237      46.7237      46.7237 
   16000    92.116568   -11759.996    -10844.54    808.21728     102002.7      46.7237      46.7237      46.7237 
   17000    90.711904   -11761.356   -10859.859    931.24842     102002.7      46.7237      46.7237      46.7237 
   18000    92.237746   -11767.856   -10851.195    706.23366     102002.7      46.7237      46.7237      46.7237 
   19000     91.46444   -11765.396   -10856.421    680.83876     102002.7      46.7237      46.7237      46.7237 
   20000    91.529013   -11733.942   -10824.325    807.54936     102002.7      46.7237      46.7237      46.7237 
   21000    91.578908   -11761.693    -10851.58    630.49046     102002.7      46.7237      46.7237      46.7237 
   22000    91.742339   -11786.725   -10874.988    555.06202     102002.7      46.7237      46.7237      46.7237 
   23000    90.361599   -11750.293   -10852.277    751.60332     102002.7      46.7237      46.7237      46.7237 
   24000     90.04102   -11777.524   -10882.695    758.20325     102002.7      46.7237      46.7237      46.7237 
   25000     91.37731   -11720.425   -10812.315    866.59463     102002.7      46.7237      46.7237      46.7237 
   26000    89.828892   -11775.617   -10882.896    629.90988     102002.7      46.7237      46.7237      46.7237 
   27000    90.095928   -11773.485    -10878.11    1043.0249     102002.7      46.7237      46.7237      46.7237 
   28000    91.453005   -11778.067   -10869.205    420.98028     102002.7      46.7237      46.7237      46.7237 
   29000    91.735693   -11772.233   -10860.562    743.54701     102002.7      46.7237      46.7237      46.7237 
   30000    88.980666    -11777.72   -10893.428    929.93446     102002.7      46.7237      46.7237      46.7237 
   31000    92.447148   -11758.112   -10839.371     734.5038     102002.7      46.7237      46.7237      46.7237 
   32000    90.794013   -11764.668   -10862.355    696.64201     102002.7      46.7237      46.7237      46.7237 
   33000    92.512591    -11767.76   -10848.368    901.27752     102002.7      46.7237      46.7237      46.7237 
   34000    90.147363   -11768.039   -10872.153     617.7778     102002.7      46.7237      46.7237      46.7237 
   35000    90.600153   -11761.172   -10860.786     984.0051     102002.7      46.7237      46.7237      46.7237 
   36000    91.870787   -11778.549   -10865.535    1015.9827     102002.7      46.7237      46.7237      46.7237 
   37000    89.318237   -11774.557   -10886.911     622.5359     102002.7      46.7237      46.7237      46.7237 
   38000    90.262122    -11760.41   -10863.384    657.48125     102002.7      46.7237      46.7237      46.7237 
   39000    91.288147   -11751.249   -10844.026    808.35327     102002.7      46.7237      46.7237      46.7237 
   40000    92.809309   -11784.404   -10862.063    710.31264     102002.7      46.7237      46.7237      46.7237 
   41000       89.379   -11773.122   -10884.871    785.15086     102002.7      46.7237      46.7237      46.7237 
   42000     88.73649   -11769.284   -10887.419    635.76057     102002.7      46.7237      46.7237      46.7237 
   43000    89.508827    -11754.27    -10864.73    530.15812     102002.7      46.7237      46.7237      46.7237 
   44000    91.913564   -11761.489    -10848.05      701.827     102002.7      46.7237      46.7237      46.7237 
   45000      91.5012   -11772.518   -10863.177    534.65135     102002.7      46.7237      46.7237      46.7237 
   46000    90.051066     -11764.1    -10869.17    208.43933     102002.7      46.7237      46.7237      46.7237 
   47000    90.542044   -11765.627   -10865.819    824.53487     102002.7      46.7237      46.7237      46.7237 
   48000    89.100221   -11775.889   -10890.409    463.68108     102002.7      46.7237      46.7237      46.7237 
   49000    91.483492   -11769.113   -10859.948    870.19972     102002.7      46.7237      46.7237      46.7237 
   50000    91.611055   -11782.096   -10871.664    1002.5161     102002.7      46.7237      46.7237      46.7237 
   51000    92.115941   -11766.899   -10851.449    518.72349     102002.7      46.7237      46.7237      46.7237 
   52000    90.185833   -11790.773   -10894.505    731.56949     102002.7      46.7237      46.7237      46.7237 
   53000    91.846526   -11780.337   -10867.565    956.90497     102002.7      46.7237      46.7237      46.7237 
   54000    92.531517   -11773.912   -10854.332    726.69084     102002.7      46.7237      46.7237      46.7237 
   55000    89.437291     -11779.8   -10890.971     917.8957     102002.7      46.7237      46.7237      46.7237 
   56000    90.288452   -11791.668   -10894.379    664.79808     102002.7      46.7237      46.7237      46.7237 
   57000    90.834255    -11770.15   -10867.437    595.84851     102002.7      46.7237      46.7237      46.7237 
   58000    90.594664   -11792.392   -10892.061    709.43995     102002.7      46.7237      46.7237      46.7237 
   59000    89.142832   -11793.049   -10907.146    613.11835     102002.7      46.7237      46.7237      46.7237 
   60000    91.615385   -11796.703   -10886.227    927.04192     102002.7      46.7237      46.7237      46.7237 
   61000    91.089067   -11781.824   -10876.579    651.74837     102002.7      46.7237      46.7237      46.7237 
   62000    90.761012    -11780.86   -10878.875    759.73878     102002.7      46.7237      46.7237      46.7237 
   63000     92.46546   -11779.296   -10860.372    789.45097     102002.7      46.7237      46.7237      46.7237 
   64000    89.289992   -11789.622   -10902.256    629.63016     102002.7      46.7237      46.7237      46.7237 
   65000     92.26704   -11778.123   -10861.171    732.23762     102002.7      46.7237      46.7237      46.7237 
   66000    91.578731    -11779.05   -10868.938    709.21861     102002.7      46.7237      46.7237      46.7237 
   67000    92.190364   -11792.221   -10876.032    1005.4407     102002.7      46.7237      46.7237      46.7237 
   68000    92.468826   -11766.846   -10847.889    702.40873     102002.7      46.7237      46.7237      46.7237 
   69000     92.25833   -11787.715    -10870.85    544.88148     102002.7      46.7237      46.7237      46.7237 
   70000    92.632067    -11812.41   -10891.831    711.22981     102002.7      46.7237      46.7237      46.7237 
   71000    92.100399   -11779.742   -10864.446    961.49032     102002.7      46.7237      46.7237      46.7237 
   72000    92.389644   -11778.245   -10860.075    584.64408     102002.7      46.7237      46.7237      46.7237 
   73000    93.785384    -11786.38   -10854.339    691.37966     102002.7      46.7237      46.7237      46.7237 
   74000    90.734587   -11784.572    -10882.85    670.33071     102002.7      46.7237      46.7237      46.7237 
   75000    91.835441   -11789.533   -10876.871    417.22855     102002.7      46.7237      46.7237      46.7237 
   76000    91.559427     -11793.1    -10883.18    970.51507     102002.7      46.7237      46.7237      46.7237 
   77000    91.588967    -11762.66   -10852.447    823.29352     102002.7      46.7237      46.7237      46.7237 
   78000    91.588289   -11786.076    -10875.87    935.67894     102002.7      46.7237      46.7237      46.7237 
   79000    90.725348   -11774.122   -10872.492     972.3455     102002.7      46.7237      46.7237      46.7237 
   80000    90.191801   -11792.326   -10895.998    665.60326     102002.7      46.7237      46.7237      46.7237 
   81000     92.74104   -11766.996   -10845.334    815.48884     102002.7      46.7237      46.7237      46.7237 
   82000    90.814285   -11793.563   -10891.049    879.50486     102002.7      46.7237      46.7237      46.7237 
   83000    90.803631   -11795.501   -10893.092    933.74397     102002.7      46.7237      46.7237      46.7237 
   84000    91.873334   -11776.067   -10863.028    725.20241     102002.7      46.7237      46.7237      46.7237 
   85000    92.506928   -11781.877   -10862.541    544.44416     102002.7      46.7237      46.7237      46.7237 
   86000    91.825306   -11790.217   -10877.655    627.80552     102002.7      46.7237      46.7237      46.7237 
   87000    88.284123   -11787.238   -10909.868    628.79523     102002.7      46.7237      46.7237      46.7237 
   88000     91.16192    -11798.67   -10892.701    870.32274     102002.7      46.7237      46.7237      46.7237 
   89000    90.063781   -11784.042   -10888.986    734.00597     102002.7      46.7237      46.7237      46.7237 
   90000    89.673107   -11800.808   -10909.634    991.45972     102002.7      46.7237      46.7237      46.7237 
   91000    92.011907   -11808.601   -10894.184     501.4178     102002.7      46.7237      46.7237      46.7237 
   92000    93.060731   -11767.825   -10842.986    597.04635     102002.7      46.7237      46.7237      46.7237 
   93000     91.74744   -11796.634   -10884.846    827.97086     102002.7      46.7237      46.7237      46.7237 
   94000    91.860093   -11799.466   -10886.559    795.61851     102002.7      46.7237      46.7237      46.7237 
   95000    89.846579   -11783.611   -10890.714    837.02023     102002.7      46.7237      46.7237      46.7237 
   96000    88.346574   -11792.281   -10914.291    597.74302     102002.7      46.7237      46.7237      46.7237 
   97000    92.263535   -11784.651   -10867.734    441.92254     102002.7      46.7237      46.7237      46.7237 
   98000    90.553448    -11788.03   -10888.108    838.24974     102002.7      46.7237      46.7237      46.7237 
   99000     92.28696   -11800.393   -10883.243    1048.2138     102002.7      46.7237      46.7237      46.7237 
  100000    89.743139    -11792.32   -10900.451    848.76232     102002.7      46.7237      46.7237      46.7237 
  101000    91.482537   -11796.133   -10886.978    688.26159     102002.7      46.7237      46.7237      46.7237 
  102000    90.006938    -11810.25   -10915.759    669.82733     102002.7      46.7237      46.7237      46.7237 
  103000    91.857911   -11805.952   -10893.067    685.03503     102002.7      46.7237      46.7237      46.7237 
  104000    92.927869   -11782.507   -10858.988    775.88767     102002.7      46.7237      46.7237      46.7237 
  105000     93.05258   -11790.237   -10865.479    769.17582     102002.7      46.7237      46.7237      46.7237 
  106000    91.205019   -11812.612   -10906.215    823.78382     102002.7      46.7237      46.7237      46.7237 
  107000     90.97372   -11792.758    -10888.66    843.54329     102002.7      46.7237      46.7237      46.7237 
  108000    89.369843   -11796.641   -10908.481    1115.5098     102002.7      46.7237      46.7237      46.7237 
  109000    91.160213   -11798.542    -10892.59      860.076     102002.7      46.7237      46.7237      46.7237 
  110000    91.264901   -11782.692   -10875.699    951.74568     102002.7      46.7237      46.7237      46.7237 
  111000    93.103488   -11800.895   -10875.631    575.94725     102002.7      46.7237      46.7237      46.7237 
  112000    89.657965   -11816.659   -10925.636    567.58815     102002.7      46.7237      46.7237      46.7237 
  113000    90.146369   -11792.394   -10896.517    885.08754     102002.7      46.7237      46.7237      46.7237 
  114000    91.672318   -11787.181    -10876.14    775.69749     102002.7      46.7237      46.7237      46.7237 
  115000    91.348233   -11783.224   -10875.404    707.76956     102002.7      46.7237      46.7237      46.7237 
  116000    88.952895   -11797.693   -10913.677    1005.2401     102002.7      46.7237      46.7237      46.7237 
  117000    88.378514   -11779.957    -10901.65    911.64931     102002.7      46.7237      46.7237      46.7237 
  118000    91.735326   -11784.808    -10873.14    984.07233     102002.7      46.7237      46.7237      46.7237 
  119000    88.531698   -11821.525   -10941.696    618.84395     102002.7      46.7237      46.7237      46.7237 
  120000    89.957103   -11785.339   -10891.343    774.22105     102002.7      46.7237      46.7237      46.7237 
  121000    94.196237   -11779.166   -10843.042    691.34197     102002.7      46.7237      46.7237      46.7237 
  122000    90.377649   -11797.708   -10899.533    647.39912     102002.7      46.7237      46.7237      46.7237 
  123000    89.806716   -11799.473   -10906.972    1062.3884     102002.7      46.7237      46.7237      46.7237 
  124000    91.890846   -11788.106   -10874.893    753.65679     102002.7      46.7237      46.7237      46.7237 
  125000    90.015759   -11790.986   -10896.407    887.76116     102002.7      46.7237      46.7237      46.7237 
  126000    89.525096   -11802.666   -10912.963    895.95396     102002.7      46.7237      46.7237      46.7237 
  127000    91.324897   -11775.499   -10867.911    957.39387     102002.7      46.7237      46.7237      46.7237 
  128000    91.489374   -11797.255   -10888.032    986.39494     102002.7      46.7237      46.7237      46.7237 
  129000    92.193169   -11784.331   -10868.114    1117.1281     102002.7      46.7237      46.7237      46.7237 
  130000    93.808045   -11784.925   -10852.659    726.65713     102002.7      46.7237      46.7237      46.7237 
  131000    91.302806   -11801.612   -10894.243    844.38724     102002.7      46.7237      46.7237      46.7237 
  132000    91.408315   -11783.996   -10875.578    618.15665     102002.7      46.7237      46.7237      46.7237 
  133000    91.494962    -11782.41   -10873.132    916.96829     102002.7      46.7237      46.7237      46.7237 
  134000    94.364454   -11813.921   -10876.125    815.31006     102002.7      46.7237      46.7237      46.7237 
  135000    89.953958   -11815.888   -10921.924    605.06392     102002.7      46.7237      46.7237      46.7237 
  136000    91.900531   -11792.894   -10879.584    888.60683     102002.7      46.7237      46.7237      46.7237 
  137000    88.943057   -11803.701   -10919.783    745.77992     102002.7      46.7237      46.7237      46.7237 
  138000    92.314932   -11787.163   -10869.735    747.27231     102002.7      46.7237      46.7237      46.7237 
  139000    90.132972   -11811.365   -10915.622    680.97915     102002.7      46.7237      46.7237      46.7237 
  140000    92.301463    -11838.06   -10920.766     573.4404     102002.7      46.7237      46.7237      46.7237 
  141000     90.46578   -11793.463   -10894.412    807.44566     102002.7      46.7237      46.7237      46.7237 
  142000    91.483994    -11794.24    -10885.07     597.1418     102002.7      46.7237      46.7237      46.7237 
  143000    89.885709    -11794.59   -10901.304    564.66903     102002.7      46.7237      46.7237      46.7237 
  144000    91.630857   -11783.138   -10872.509    523.11201     102002.7      46.7237      46.7237      46.7237 
  145000    93.636322    -11774.79    -10844.23    770.53318     102002.7      46.7237      46.7237      46.7237 
  146000    90.190991   -11805.772   -10909.452    628.59424     102002.7      46.7237      46.7237      46.7237 
  147000    91.839374   -11783.729   -10871.027    843.79109     102002.7      46.7237      46.7237      46.7237 
  148000     90.56747    -11816.55   -10916.489    281.07001     102002.7      46.7237      46.7237      46.7237 
  149000    91.466311   -11792.822   -10883.828    759.43791     102002.7      46.7237      46.7237      46.7237 
  150000    91.196982   -11781.322   -10875.004    946.91313     102002.7      46.7237      46.7237      46.7237 
  151000      88.2349   -11794.721   -10917.841    753.03238     102002.7      46.7237      46.7237      46.7237 
  152000    90.019185    -11799.68   -10905.067    643.43136     102002.7      46.7237      46.7237      46.7237 
  153000    91.550289   -11774.452   -10864.623    892.16382     102002.7      46.7237      46.7237      46.7237 
  154000    91.845251   -11819.184   -10906.424    767.48506     102002.7      46.7237      46.7237      46.7237 
  155000    91.809591   -11789.352   -10876.947    749.51404     102002.7      46.7237      46.7237      46.7237 
  156000    92.909429   -11798.956    -10875.62    668.92917     102002.7      46.7237      46.7237      46.7237 
  157000    88.186052   -11806.352   -10929.957    629.04944     102002.7      46.7237      46.7237      46.7237 
  158000    89.352607   -11770.027   -10882.039     856.7472     102002.7      46.7237      46.7237      46.7237 
  159000    92.466435   -11790.497   -10871.564    923.90793     102002.7      46.7237      46.7237      46.7237 
  160000    89.979203   -11804.694   -10910.479      962.692     102002.7      46.7237      46.7237      46.7237 
  161000    91.999616   -11791.593   -10877.299    965.78635     102002.7      46.7237      46.7237      46.7237 
  162000    91.371334   -11803.354   -10895.304    804.55425     102002.7      46.7237      46.7237      46.7237 
  163000    93.247691   -11774.103   -10847.405    880.55315     102002.7      46.7237      46.7237      46.7237 
  164000    88.723577   -11776.666   -10894.929     929.4139     102002.7      46.7237      46.7237      46.7237 
  165000    92.928249   -11769.645   -10846.122    897.42508     102002.7      46.7237      46.7237      46.7237 
  166000    91.542797    -11799.96   -10890.205    688.01016     102002.7      46.7237      46.7237      46.7237 
  167000    89.108685   -11783.039   -10897.475    627.19454     102002.7      46.7237      46.7237      46.7237 
  168000    90.273122   -11792.606    -10895.47    662.85607     102002.7      46.7237      46.7237      46.7237 
  169000    91.179278   -11786.622   -10880.481    536.05679     102002.7      46.7237      46.7237      46.7237 
  170000    92.072517    -11763.25   -10848.231    817.26102     102002.7      46.7237      46.7237      46.7237 
  171000    92.524249   -11801.744   -10882.236    853.40249     102002.7      46.7237      46.7237      46.7237 
  172000    94.063053   -11801.154   -10866.353    708.15165     102002.7      46.7237      46.7237      46.7237 
  173000    90.617148   -11795.365    -10894.81    375.19015     102002.7      46.7237      46.7237      46.7237 
  174000    89.137516   -11776.557   -10890.706    921.82739     102002.7      46.7237      46.7237      46.7237 
  175000    88.972213   -11790.307   -10906.099    652.49739     102002.7      46.7237      46.7237      46.7237 
  176000    90.277689   -11807.369   -10910.188    541.35614     102002.7      46.7237      46.7237      46.7237 
  177000    90.865491   -11795.659   -10892.636    733.57639     102002.7      46.7237      46.7237      46.7237 
  178000    89.860304   -11816.219   -10923.186     715.2169     102002.7      46.7237      46.7237      46.7237 
  179000    91.049189   -11793.669    -10888.82    907.08287     102002.7      46.7237      46.7237      46.7237 
  180000    90.643343   -11804.151   -10903.336    988.42497     102002.7      46.7237      46.7237      46.7237 
  181000    92.523362   -11782.194   -10862.695    822.40968     102002.7      46.7237      46.7237      46.7237 
  182000    87.103641   -11789.011   -10923.373    684.87355     102002.7      46.7237      46.7237      46.7237 
  183000    91.243779   -11801.717   -10894.934    791.03943     102002.7      46.7237      46.7237      46.7237 
  184000    92.436416    -11805.24   -10886.605    482.41089     102002.7      46.7237      46.7237      46.7237 
  185000    91.492189   -11812.478   -10903.227    345.00298     102002.7      46.7237      46.7237      46.7237 
  186000    90.517938   -11788.506   -10888.937    789.37703     102002.7      46.7237      46.7237      46.7237 
  187000    91.402374   -11786.305   -10877.947    822.43298     102002.7      46.7237      46.7237      46.7237 
  188000    90.627603   -11793.493   -10892.834    576.29066     102002.7      46.7237      46.7237      46.7237 
  189000    94.352219   -11798.716   -10861.041    598.05946     102002.7      46.7237      46.7237      46.7237 
  190000    89.621514   -11789.411    -10898.75    618.72762     102002.7      46.7237      46.7237      46.7237 
  191000    91.571793   -11808.533   -10898.491    663.77636     102002.7      46.7237      46.7237      46.7237 
  192000    92.115172   -11808.022   -10892.579    653.13906     102002.7      46.7237      46.7237      46.7237 
  193000    90.543769   -11805.376    -10905.55    610.68814     102002.7      46.7237      46.7237      46.7237 
  194000    92.438884   -11798.073   -10879.414    796.54496     102002.7      46.7237      46.7237      46.7237 
  195000     92.00314   -11788.585   -10874.256    704.63667     102002.7      46.7237      46.7237      46.7237 
  196000    91.287394   -11785.741   -10878.525    444.19987     102002.7      46.7237      46.7237      46.7237 
  197000    89.190022   -11806.455   -10920.082    725.12212     102002.7      46.7237      46.7237      46.7237 
  198000    92.011347   -11795.265   -10880.854    782.89085     102002.7      46.7237      46.7237      46.7237 
  199000    88.670765   -11788.345   -10907.134    711.52964     102002.7      46.7237      46.7237      46.7237 
  200000      90.3862   -11790.552   -10892.292     711.6094     102002.7      46.7237      46.7237      46.7237 
  201000    91.009673   -11805.552   -10901.096    654.40283     102002.7      46.7237      46.7237      46.7237 
  202000    89.325218   -11812.012   -10924.296    923.70207     102002.7      46.7237      46.7237      46.7237 
  203000    89.197432   -11794.547   -10908.101    744.12506     102002.7      46.7237      46.7237      46.7237 
  204000    94.637138   -11801.018   -10860.512    774.56953     102002.7      46.7237      46.7237      46.7237 
  205000    90.610733   -11806.417   -10905.926    469.91406     102002.7      46.7237      46.7237      46.7237 
  206000    91.803896   -11780.272   -10867.923    496.57657     102002.7      46.7237      46.7237      46.7237 
  207000    91.241508   -11796.854   -10890.094    651.60859     102002.7      46.7237      46.7237      46.7237 
  208000    90.187068   -11801.756   -10905.475    618.05706     102002.7      46.7237      46.7237      46.7237 
  209000    89.922241   -11809.572   -10915.923    772.27734     102002.7      46.7237      46.7237      46.7237 
  210000    91.816538   -11808.096   -10895.621    707.16517     102002.7      46.7237      46.7237      46.7237 
  211000    91.192337   -11780.863   -10874.591    586.74047     102002.7      46.7237      46.7237      46.7237 
  212000    92.159292   -11806.613   -10890.732    907.02719     102002.7      46.7237      46.7237      46.7237 
  213000    92.912726   -11821.461   -10898.092    619.95246     102002.7      46.7237      46.7237      46.7237 
  214000    90.870693   -11825.723   -10922.648    845.80419     102002.7      46.7237      46.7237      46.7237 
  215000    92.314762   -11793.632   -10876.206     747.2325     102002.7      46.7237      46.7237      46.7237 
  216000    92.417087   -11807.242   -10888.799    610.41691     102002.7      46.7237      46.7237      46.7237 
  217000    91.968887   -11791.033   -10877.044    586.93025     102002.7      46.7237      46.7237      46.7237 
  218000    93.186379   -11815.748    -10889.66    316.72965     102002.7      46.7237      46.7237      46.7237 
  219000    88.446746   -11783.846   -10904.861    524.67444     102002.7      46.7237      46.7237      46.7237 
  220000    92.515404   -11789.555   -10870.135    382.93063     102002.7      46.7237      46.7237      46.7237 
  221000    91.801368   -11794.503   -10882.179    556.85174     102002.7      46.7237      46.7237      46.7237 
  222000    89.298567   -11801.147   -10913.696    817.51899     102002.7      46.7237      46.7237      46.7237 
  223000    91.036183   -11797.848   -10893.128    708.40433     102002.7      46.7237      46.7237      46.7237 
  224000    89.751899   -11793.782   -10901.826     962.8201     102002.7      46.7237      46.7237      46.7237 
  225000    91.480208   -11809.524   -10900.392    657.15305     102002.7      46.7237      46.7237      46.7237 
  226000    92.062892   -11814.376   -10899.453    939.84709     102002.7      46.7237      46.7237      46.7237 
  227000     89.26702   -11799.642   -10912.505    966.75247     102002.7      46.7237      46.7237      46.7237 
  228000    92.435608   -11787.609   -10868.982    697.18645     102002.7      46.7237      46.7237      46.7237 
  229000    91.524792   -11811.544   -10901.969    846.57028     102002.7      46.7237      46.7237      46.7237 
  230000    90.834389   -11783.207   -10880.493    624.54208     102002.7      46.7237      46.7237      46.7237 
  231000    92.002085   -11813.513   -10899.194    763.91584     102002.7      46.7237      46.7237      46.7237 
  232000    91.172476   -11806.318   -10900.244    826.27071     102002.7      46.7237      46.7237      46.7237 
  233000    92.726874   -11808.047   -10886.526    739.50745     102002.7      46.7237      46.7237      46.7237 
  234000    92.504075   -11793.081   -10873.773    840.60459     102002.7      46.7237      46.7237      46.7237 
  235000    92.001506   -11787.637   -10873.324     1037.473     102002.7      46.7237      46.7237      46.7237 
  236000    88.264228   -11820.939   -10943.767    580.54321     102002.7      46.7237      46.7237      46.7237 
  237000     93.37333   -11801.537   -10873.591    819.07967     102002.7      46.7237      46.7237      46.7237 
  238000    90.649057   -11787.812    -10886.94     842.2123     102002.7      46.7237      46.7237      46.7237 
  239000    89.817636   -11808.121   -10915.511    733.13591     102002.7      46.7237      46.7237      46.7237 
  240000    92.096112   -11808.106   -10892.853    1010.5563     102002.7      46.7237      46.7237      46.7237 
  241000    89.155184   -11801.852   -10915.825    1018.5905     102002.7      46.7237      46.7237      46.7237 
  242000    90.571544   -11793.387   -10893.285    668.64409     102002.7      46.7237      46.7237      46.7237 
  243000    90.737776   -11808.345   -10906.591    803.67474     102002.7      46.7237      46.7237      46.7237 
  244000    93.402906   -11793.237   -10864.997    855.67556     102002.7      46.7237      46.7237      46.7237 
  245000     90.29259   -11804.605   -10907.275    732.40914     102002.7      46.7237      46.7237      46.7237 
  246000    90.519244   -11793.862    -10894.28    669.09861     102002.7      46.7237      46.7237      46.7237 
  247000    91.528638   -11799.089   -10889.475    658.82199     102002.7      46.7237      46.7237      46.7237 
  248000    91.206263   -11787.506   -10881.097    590.49665     102002.7      46.7237      46.7237      46.7237 
  249000    91.642659   -11771.217   -10860.471    766.92817     102002.7      46.7237      46.7237      46.7237 
  250000    91.346093   -11812.462   -10904.662    850.63299     102002.7      46.7237      46.7237      46.7237 
  251000    90.749177   -11790.989   -10889.122    814.60009     102002.7      46.7237      46.7237      46.7237 
  252000    91.137705   -11799.504   -10893.776    607.41532     102002.7      46.7237      46.7237      46.7237 
  253000    90.243828    -11806.92   -10910.075    504.25909     102002.7      46.7237      46.7237      46.7237 
  254000    89.047275   -11818.234    -10933.28    926.82031     102002.7      46.7237      46.7237      46.7237 
  255000    91.600323   -11807.627   -10897.301    588.94454     102002.7      46.7237      46.7237      46.7237 
  256000    89.462917   -11814.903   -10925.819    829.78144     102002.7      46.7237      46.7237      46.7237 
  257000    90.601586   -11806.765   -10906.364    483.10044     102002.7      46.7237      46.7237      46.7237 
  258000    91.855494    -11803.57   -10890.708    902.41381     102002.7      46.7237      46.7237      46.7237 
  259000      92.6636   -11802.127   -10881.234    950.47133     102002.7      46.7237      46.7237      46.7237 
  260000    91.475529   -11821.826   -10912.741    821.42546     102002.7      46.7237      46.7237      46.7237 
  261000     89.28669     -11806.4   -10919.067    604.70242     102002.7      46.7237      46.7237      46.7237 
  262000    90.129411   -11797.369   -10901.661     717.9694     102002.7      46.7237      46.7237      46.7237 
  263000    90.437798   -11806.781   -10908.009    445.99192     102002.7      46.7237      46.7237      46.7237 
  264000    89.891135   -11821.752   -10928.412    606.78953     102002.7      46.7237      46.7237      46.7237 
  265000    91.782222   -11792.084    -10879.95    802.52185     102002.7      46.7237      46.7237      46.7237 
  266000    92.178061   -11776.339   -10860.272    915.31092     102002.7      46.7237      46.7237      46.7237 
  267000    91.489681    -11802.18   -10892.954    905.35148     102002.7      46.7237      46.7237      46.7237 
  268000    89.807564   -11803.553   -10911.044    798.11722     102002.7      46.7237      46.7237      46.7237 
  269000    91.644531    -11801.05   -10890.284    815.42604     102002.7      46.7237      46.7237      46.7237 
  270000    91.284104   -11816.508   -10909.325    842.96914     102002.7      46.7237      46.7237      46.7237 
  271000    90.952135   -11802.314    -10898.43    718.97821     102002.7      46.7237      46.7237      46.7237 
  272000     89.81067   -11811.331   -10918.791    418.36925     102002.7      46.7237      46.7237      46.7237 
  273000    88.982267   -11792.808     -10908.5    604.33792     102002.7      46.7237      46.7237      46.7237 
  274000    90.640775    -11784.48    -10883.69    1082.8027     102002.7      46.7237      46.7237      46.7237 
  275000    89.179339   -11818.821   -10932.555    649.18858     102002.7      46.7237      46.7237      46.7237 
  276000    92.591458   -11801.212   -10881.037    926.18444     102002.7      46.7237      46.7237      46.7237 
  277000    93.603184   -11826.441   -10896.211    910.47392     102002.7      46.7237      46.7237      46.7237 
  278000    89.871051   -11799.417   -10906.277    612.33128     102002.7      46.7237      46.7237      46.7237 
  279000    92.200134   -11811.391   -10895.104    858.42262     102002.7      46.7237      46.7237      46.7237 
  280000    91.175611   -11801.949   -10895.844    891.99806     102002.7      46.7237      46.7237      46.7237 
  281000    92.258187   -11800.655   -10883.791     827.6882     102002.7      46.7237      46.7237      46.7237 
  282000    92.005998   -11812.704   -10898.346    624.35758     102002.7      46.7237      46.7237      46.7237 
  283000    90.618082    -11793.76   -10893.195    695.02029     102002.7      46.7237      46.7237      46.7237 
  284000    91.019805   -11790.392   -10885.836    837.20417     102002.7      46.7237      46.7237      46.7237 
  285000    89.550214   -11805.506   -10915.554    711.48873     102002.7      46.7237      46.7237      46.7237 
  286000    89.647014   -11763.747   -10872.833    744.82057     102002.7      46.7237      46.7237      46.7237 
  287000    90.261607   -11810.802    -10913.78    949.29936     102002.7      46.7237      46.7237      46.7237 
  288000    89.680982   -11817.513   -10926.262    743.69487     102002.7      46.7237      46.7237      46.7237 
  289000    90.498331   -11770.637   -10871.263    599.21824     102002.7      46.7237      46.7237      46.7237 
  290000     90.88527    -11815.27    -10912.05    728.44663     102002.7      46.7237      46.7237      46.7237 
  291000    92.687044   -11817.448   -10896.322    965.75117     102002.7      46.7237      46.7237      46.7237 
  292000     89.94355   -11815.918   -10922.057    737.67915     102002.7      46.7237      46.7237      46.7237 
  293000    90.354127   -11812.728   -10914.787    1037.9891     102002.7      46.7237      46.7237      46.7237 
  294000    90.762491   -11798.895   -10896.895    850.81742     102002.7      46.7237      46.7237      46.7237 
  295000    92.266161   -11800.158   -10883.215     609.0039     102002.7      46.7237      46.7237      46.7237 
  296000     88.68881   -11797.479   -10916.088    761.89956     102002.7      46.7237      46.7237      46.7237 
  297000    90.127928   -11820.109   -10924.416    746.51682     102002.7      46.7237      46.7237      46.7237 
  298000    90.578398   -11827.567   -10927.397    886.00059     102002.7      46.7237      46.7237      46.7237 
  299000    90.542092    -11826.75   -10926.941    985.44039     102002.7      46.7237      46.7237      46.7237 
  300000     91.17835   -11813.387   -10907.255    553.22882     102002.7      46.7237      46.7237      46.7237 
  301000    91.004271   -11815.413    -10911.01    762.36412     102002.7      46.7237      46.7237      46.7237 
  302000    90.329945    -11784.83   -10887.129    663.41777     102002.7      46.7237      46.7237      46.7237 
  303000     96.31911   -11800.287   -10843.066    774.06312     102002.7      46.7237      46.7237      46.7237 
  304000    91.429587   -11804.473   -10895.844    784.35732     102002.7      46.7237      46.7237      46.7237 
  305000    90.758313   -11805.271   -10903.313    732.90935     102002.7      46.7237      46.7237      46.7237 
  306000    90.952127   -11822.398   -10918.514    688.75661     102002.7      46.7237      46.7237      46.7237 
  307000    90.911161   -11813.362   -10909.885    681.51625     102002.7      46.7237      46.7237      46.7237 
  308000    91.252833   -11804.183    -10897.31    671.38172     102002.7      46.7237      46.7237      46.7237 
  309000    89.686384   -11784.693   -10893.387     895.2675     102002.7      46.7237      46.7237      46.7237 
  310000    94.158612   -11796.991   -10861.241    730.05799     102002.7      46.7237      46.7237      46.7237 
  311000    88.708022   -11804.795   -10923.213     623.5424     102002.7      46.7237      46.7237      46.7237 
  312000    90.041425   -11793.814    -10898.98    688.94817     102002.7      46.7237      46.7237      46.7237 
  313000    91.406428   -11810.619    -10902.22    414.56346     102002.7      46.7237      46.7237      46.7237 
  314000    89.834918   -11805.462   -10912.681    746.03222     102002.7      46.7237      46.7237      46.7237 
  315000    93.198477   -11793.814   -10867.606    428.75975     102002.7      46.7237      46.7237      46.7237 
  316000    90.016103   -11819.078   -10924.496    722.79519     102002.7      46.7237      46.7237      46.7237 
  317000    92.575992   -11808.308   -10888.286    743.24794     102002.7      46.7237      46.7237      46.7237 
  318000    91.763239   -11801.364   -10889.419    484.06327     102002.7      46.7237      46.7237      46.7237 
  319000    91.187726       -11809   -10902.774    691.79686     102002.7      46.7237      46.7237      46.7237 
  320000    90.246822   -11804.496   -10907.622     773.5569     102002.7      46.7237      46.7237      46.7237 
  321000    90.708278   -11804.553   -10903.092    1006.0794     102002.7      46.7237      46.7237      46.7237 
  322000    92.750201   -11800.135   -10878.381    663.41357     102002.7      46.7237      46.7237      46.7237 
  323000    92.126185   -11789.821   -10874.269    603.12123     102002.7      46.7237      46.7237      46.7237 
  324000     91.30291   -11796.763   -10889.393    939.82649     102002.7      46.7237      46.7237      46.7237 
  325000    92.787738   -11807.926     -10885.8     999.6279     102002.7      46.7237      46.7237      46.7237 
  326000    90.794175   -11818.121   -10915.806    868.03809     102002.7      46.7237      46.7237      46.7237 
  327000    90.374833   -11815.798   -10917.651    579.36653     102002.7      46.7237      46.7237      46.7237 
  328000    88.976645   -11792.974   -10908.722    605.00307     102002.7      46.7237      46.7237      46.7237 
  329000    91.765803   -11822.127   -10910.157    606.22024     102002.7      46.7237      46.7237      46.7237 
  330000    91.923839   -11798.208   -10884.667    645.30239     102002.7      46.7237      46.7237      46.7237 
  331000    90.739905   -11816.402   -10914.627    882.34476     102002.7      46.7237      46.7237      46.7237 
  332000    93.155081   -11826.804   -10901.027     630.7646     102002.7      46.7237      46.7237      46.7237 
  333000    89.574816   -11815.841   -10925.645    852.67325     102002.7      46.7237      46.7237      46.7237 
  334000    90.949186   -11806.448   -10902.593    1073.2563     102002.7      46.7237      46.7237      46.7237 
  335000    92.442343   -11791.237   -10872.543    911.66989     102002.7      46.7237      46.7237      46.7237 
  336000    92.124671   -11809.731   -10894.194    864.03384     102002.7      46.7237      46.7237      46.7237 
  337000    89.224073   -11791.987   -10905.276    889.47857     102002.7      46.7237      46.7237      46.7237 
  338000    90.420764   -11798.831   -10900.228    669.93574     102002.7      46.7237      46.7237      46.7237 
  339000    91.149626   -11810.706   -10904.859    670.83876     102002.7      46.7237      46.7237      46.7237 
  340000    90.854884   -11782.251   -10879.333    755.16358     102002.7      46.7237      46.7237      46.7237 
  341000    91.767906   -11785.915   -10873.923    748.33106     102002.7      46.7237      46.7237      46.7237 
  342000    91.921304   -11809.682   -10896.166    454.65899     102002.7      46.7237      46.7237      46.7237 
  343000      93.0786   -11819.401   -10894.384    667.84743     102002.7      46.7237      46.7237      46.7237 
  344000    90.733194   -11824.231   -10922.522    726.94655     102002.7      46.7237      46.7237      46.7237 
  345000    92.297479   -11794.198   -10876.944    802.29718     102002.7      46.7237      46.7237      46.7237 
  346000    91.251913    -11819.13   -10912.267    419.64576     102002.7      46.7237      46.7237      46.7237 
  347000    91.244347   -11799.599    -10892.81    544.41834     102002.7      46.7237      46.7237      46.7237 
  348000    89.698004   -11790.574   -10899.154    825.59881     102002.7      46.7237      46.7237      46.7237 
  349000    89.105423   -11805.824   -10920.293    817.67446     102002.7      46.7237      46.7237      46.7237 
  350000    92.936891   -11816.698    -10893.09    721.11832     102002.7      46.7237      46.7237      46.7237 
  351000    89.551984   -11816.682   -10926.712    784.96721     102002.7      46.7237      46.7237      46.7237 
  352000    91.216712    -11799.24   -10892.727     791.1971     102002.7      46.7237      46.7237      46.7237 
  353000    90.497765   -11815.521   -10916.152     586.9033     102002.7      46.7237      46.7237      46.7237 
  354000    90.119057    -11816.55   -10920.945    621.89606     102002.7      46.7237      46.7237      46.7237 
  355000    91.219716   -11813.902   -10907.358    372.61197     102002.7      46.7237      46.7237      46.7237 
  356000    91.272579   -11806.957   -10899.888    742.98913     102002.7      46.7237      46.7237      46.7237 
  357000    89.870407   -11797.994    -10904.86    742.10824     102002.7      46.7237      46.7237      46.7237 
  358000    93.502493   -11830.361   -10901.131    1091.3119     102002.7      46.7237      46.7237      46.7237 
  359000    90.816906   -11811.283   -10908.742    716.47395     102002.7      46.7237      46.7237      46.7237 
  360000    91.004333   -11791.821   -10887.418    764.78514     102002.7      46.7237      46.7237      46.7237 
  361000    91.375632     -11808.3   -10900.207    649.71402     102002.7      46.7237      46.7237      46.7237 
  362000    90.458009   -11812.759   -10913.786    664.57791     102002.7      46.7237      46.7237      46.7237 
  363000    91.557041   -11838.446    -10928.55    638.06542     102002.7      46.7237      46.7237      46.7237 
  364000    91.172067    -11813.53    -10907.46    991.52039     102002.7      46.7237      46.7237      46.7237 
  365000    90.212471   -11808.109   -10911.576     715.5228     102002.7      46.7237      46.7237      46.7237 
  366000    91.315763    -11838.15   -10930.652     906.3751     102002.7      46.7237      46.7237      46.7237 
  367000    91.833328   -11802.516   -10889.875    906.42925     102002.7      46.7237      46.7237      46.7237 
  368000    91.407467   -11841.565   -10933.156    565.16535     102002.7      46.7237      46.7237      46.7237 
  369000    92.989159   -11812.947   -10888.819    592.69617     102002.7      46.7237      46.7237      46.7237 
  370000    90.167036   -11820.579   -10924.497    665.13084     102002.7      46.7237      46.7237      46.7237 
  371000    91.799645   -11810.956   -10898.649     537.2034     102002.7      46.7237      46.7237      46.7237 
  372000    89.703554   -11805.755   -10914.279     790.8351     102002.7      46.7237      46.7237      46.7237 
  373000    90.316571   -11817.926   -10920.358    869.40925     102002.7      46.7237      46.7237      46.7237 
  374000    90.610026   -11824.335    -10923.85    691.42001     102002.7      46.7237      46.7237      46.7237 
  375000    91.931109   -11791.573    -10877.96    815.79208     102002.7      46.7237      46.7237      46.7237 
  376000    90.837195   -11801.103   -10898.362    844.85068     102002.7      46.7237      46.7237      46.7237 
  377000    91.255083   -11807.864   -10900.969    494.26557     102002.7      46.7237      46.7237      46.7237 
  378000    90.740709   -11817.042   -10915.259     930.8594     102002.7      46.7237      46.7237      46.7237 
  379000    90.557231   -11833.938   -10933.978    722.44779     102002.7      46.7237      46.7237      46.7237 
  380000    91.821327   -11797.946   -10885.424    863.28628     102002.7      46.7237      46.7237      46.7237 
  381000    90.252916   -11808.327   -10911.391    906.69114     102002.7      46.7237      46.7237      46.7237 
  382000    91.082131   -11818.301   -10913.125    1036.5415     102002.7      46.7237      46.7237      46.7237 
  383000    90.271554   -11803.639   -10906.518    972.77891     102002.7      46.7237      46.7237      46.7237 
  384000    91.207198   -11803.842   -10897.423    718.13575     102002.7      46.7237      46.7237      46.7237 
  385000    90.194461   -11818.889   -10922.535    638.34775     102002.7      46.7237      46.7237      46.7237 
  386000    91.109882   -11803.517   -10898.065    696.79955     102002.7      46.7237      46.7237      46.7237 
  387000    89.431663   -11810.866   -10922.092    465.72247     102002.7      46.7237      46.7237      46.7237 
  388000    93.545176   -11790.702   -10861.048    889.11021     102002.7      46.7237      46.7237      46.7237 
  389000    90.922751   -11812.812    -10909.22    642.15335     102002.7      46.7237      46.7237      46.7237 
  390000    90.910478   -11785.359   -10881.889    613.40065     102002.7      46.7237      46.7237      46.7237 
  391000    92.131444   -11777.921   -10862.317    1012.7864     102002.7      46.7237      46.7237      46.7237 
  392000    91.410383   -11800.414   -10891.975    553.23884     102002.7      46.7237      46.7237      46.7237 
  393000    91.585514   -11817.572   -10907.393     437.9125     102002.7      46.7237      46.7237      46.7237 
  394000    91.192524   -11835.055   -10928.782    779.17267     102002.7      46.7237      46.7237      46.7237 
  395000      90.7659    -11792.94   -10890.907    1147.3544     102002.7      46.7237      46.7237      46.7237 
  396000    89.675428   -11815.844   -10924.647    642.90564     102002.7      46.7237      46.7237      46.7237 
  397000    90.736085   -11799.063   -10897.326    752.95292     102002.7      46.7237      46.7237      46.7237 
  398000    88.823112   -11824.302   -10941.576    390.45106     102002.7      46.7237      46.7237      46.7237 
  399000     91.52711   -11799.576   -10889.978    767.96438     102002.7      46.7237      46.7237      46.7237 
  400000    92.785898   -11829.177   -10907.069    1006.5842     102002.7      46.7237      46.7237      46.7237 
  401000     90.97472       -11807   -10902.891    631.68411     102002.7      46.7237      46.7237      46.7237 
  402000    91.339795   -11806.816   -10899.079    538.11984     102002.7      46.7237      46.7237      46.7237 
  403000    90.640256   -11801.097   -10900.312    550.45726     102002.7      46.7237      46.7237      46.7237 
  404000    88.963694   -11810.867   -10926.744    670.09933     102002.7      46.7237      46.7237      46.7237 
  405000    91.679881   -11802.736   -10891.619    794.06603     102002.7      46.7237      46.7237      46.7237 
  406000    90.163885   -11802.847   -10906.796    621.29457     102002.7      46.7237      46.7237      46.7237 
  407000      90.9949   -11798.907   -10894.598    637.88389     102002.7      46.7237      46.7237      46.7237 
  408000    91.942065   -11794.086   -10880.364    651.36399     102002.7      46.7237      46.7237      46.7237 
  409000    91.399974   -11808.837   -10900.503    698.68803     102002.7      46.7237      46.7237      46.7237 
  410000     91.36026   -11817.355   -10909.415    998.83304     102002.7      46.7237      46.7237      46.7237 
  411000    91.166767   -11792.184   -10886.167    955.01128     102002.7      46.7237      46.7237      46.7237 
  412000    89.940807   -11823.711   -10929.877    704.74372     102002.7      46.7237      46.7237      46.7237 
  413000    91.157717   -11816.845   -10910.918    745.37366     102002.7      46.7237      46.7237      46.7237 
  414000    88.930607   -11811.593   -10927.798     583.1399     102002.7      46.7237      46.7237      46.7237 
  415000    90.922029   -11798.397   -10894.812    766.78898     102002.7      46.7237      46.7237      46.7237 
  416000    90.890079   -11795.354   -10892.087    1016.2517     102002.7      46.7237      46.7237      46.7237 
  417000    90.128363   -11805.573   -10909.876    711.19953     102002.7      46.7237      46.7237      46.7237 
  418000     87.99023    -11812.87   -10938.422    1002.0603     102002.7      46.7237      46.7237      46.7237 
  419000    89.451066   -11805.185   -10916.218    681.75466     102002.7      46.7237      46.7237      46.7237 
  420000    89.833431   -11829.505   -10936.738    742.88892     102002.7      46.7237      46.7237      46.7237 
  421000    90.265714   -11812.497   -10915.434    656.00726     102002.7      46.7237      46.7237      46.7237 
  422000    90.922545   -11801.756   -10898.166    717.92416     102002.7      46.7237      46.7237      46.7237 
  423000    90.674057   -11830.419   -10929.299    755.99907     102002.7      46.7237      46.7237      46.7237 
  424000    91.593987   -11807.277   -10897.014    591.56202     102002.7      46.7237      46.7237      46.7237 
  425000     90.69404   -11810.308   -10908.989    691.34663     102002.7      46.7237      46.7237      46.7237 
  426000    93.958269   -11802.835   -10869.076    790.91981     102002.7      46.7237      46.7237      46.7237 
  427000    89.878716   -11816.557   -10923.341    1002.9571     102002.7      46.7237      46.7237      46.7237 
  428000     93.80149   -11817.742   -10885.541    717.56071     102002.7      46.7237      46.7237      46.7237 
  429000    90.372922   -11778.101   -10879.973     549.6074     102002.7      46.7237      46.7237      46.7237 
  430000    89.259925   -11813.745   -10926.678    527.65564     102002.7      46.7237      46.7237      46.7237 
  431000    92.981157    -11795.97   -10871.921    468.68372     102002.7      46.7237      46.7237      46.7237 
  432000    92.614053   -11819.474   -10899.074    961.40791     102002.7      46.7237      46.7237      46.7237 
  433000    90.437178   -11804.555   -10905.788    676.63883     102002.7      46.7237      46.7237      46.7237 
  434000    90.719571   -11809.907   -10908.334    610.33354     102002.7      46.7237      46.7237      46.7237 
  435000    88.794591   -11811.583   -10929.141    562.10248     102002.7      46.7237      46.7237      46.7237 
  436000    92.342563   -11811.537   -10893.835    574.49284     102002.7      46.7237      46.7237      46.7237 
  437000    93.078525   -11813.429   -10888.412    810.37814     102002.7      46.7237      46.7237      46.7237 
  438000    92.488933   -11804.429   -10885.273    609.07158     102002.7      46.7237      46.7237      46.7237 
  439000    90.301473   -11804.141   -10906.723    674.51013     102002.7      46.7237      46.7237      46.7237 
  440000    89.546596   -11803.281   -10913.365     949.8726     102002.7      46.7237      46.7237      46.7237 
  441000    90.326391   -11815.328   -10917.662    933.88252     102002.7      46.7237      46.7237      46.7237 
  442000    87.729539   -11822.755   -10950.897    637.60693     102002.7      46.7237      46.7237      46.7237 
  443000    89.411779   -11819.111   -10930.535    632.70892     102002.7      46.7237      46.7237      46.7237 
  444000    90.715271   -11800.589   -10899.059     686.2479     102002.7      46.7237      46.7237      46.7237 
  445000    91.279526   -11802.151   -10895.013     734.2917     102002.7      46.7237      46.7237      46.7237 
  446000     92.84263   -11806.891    -10884.22    619.45078     102002.7      46.7237      46.7237      46.7237 
  447000    90.860359   -11825.297   -10922.325    553.33668     102002.7      46.7237      46.7237      46.7237 
  448000    89.097544   -11827.921   -10942.468    673.15368     102002.7      46.7237      46.7237      46.7237 
  449000    92.775503   -11821.784    -10899.78    884.77628     102002.7      46.7237      46.7237      46.7237 
  450000    87.847615   -11782.515   -10909.483    1047.3589     102002.7      46.7237      46.7237      46.7237 
  451000     92.32175   -11833.546    -10916.05    863.84644     102002.7      46.7237      46.7237      46.7237 
  452000    91.791522   -11830.798   -10918.572    738.72436     102002.7      46.7237      46.7237      46.7237 
  453000    89.944629   -11846.185   -10952.313    622.49551     102002.7      46.7237      46.7237      46.7237 
  454000     89.30559   -11808.111    -10920.59    760.65313     102002.7      46.7237      46.7237      46.7237 
  455000    89.486777   -11792.671   -10903.349     665.6829     102002.7      46.7237      46.7237      46.7237 
  456000    92.481847   -11828.861   -10909.774    710.61267     102002.7      46.7237      46.7237      46.7237 
  457000    92.655242    -11791.15    -10870.34    629.88904     102002.7      46.7237      46.7237      46.7237 
  458000    89.790601   -11816.118   -10923.777    890.32056     102002.7      46.7237      46.7237      46.7237 
  459000     89.04563   -11802.762   -10917.825    784.28301     102002.7      46.7237      46.7237      46.7237 
  460000    90.548755   -11814.402   -10914.526    647.11453     102002.7      46.7237      46.7237      46.7237 
  461000    92.838114   -11785.773   -10863.146    535.89399     102002.7      46.7237      46.7237      46.7237 
  462000    88.792734   -11810.228   -10927.804    373.24506     102002.7      46.7237      46.7237      46.7237 
  463000    92.140005   -11821.424   -10905.735     557.2642     102002.7      46.7237      46.7237      46.7237 
  464000    88.830147   -11833.727   -10950.931    456.64784     102002.7      46.7237      46.7237      46.7237 
  465000    92.121386   -11810.252   -10894.748    513.41109     102002.7      46.7237      46.7237      46.7237 
  466000    90.336547   -11835.564   -10937.797    792.54389     102002.7      46.7237      46.7237      46.7237 
  467000    91.151721    -11823.17   -10917.302    861.26617     102002.7      46.7237      46.7237      46.7237 
  468000    89.734617   -11786.127   -10894.342    746.42475     102002.7      46.7237      46.7237      46.7237 
  469000    91.939271   -11814.438   -10900.743      804.101     102002.7      46.7237      46.7237      46.7237 
  470000    89.140878   -11817.732   -10931.848    586.72628     102002.7      46.7237      46.7237      46.7237 
  471000     89.53927   -11817.395   -10927.552    481.33735     102002.7      46.7237      46.7237      46.7237 
  472000    92.938263   -11821.852    -10898.23    1088.5643     102002.7      46.7237      46.7237      46.7237 
  473000    90.730778   -11829.959   -10928.274    780.06861     102002.7      46.7237      46.7237      46.7237 
  474000    88.584436    -11807.83   -10927.476    467.49489     102002.7      46.7237      46.7237      46.7237 
  475000    91.718262   -11791.716   -10880.218    728.99401     102002.7      46.7237      46.7237      46.7237 
  476000    92.949495   -11838.139   -10914.405    496.78972     102002.7      46.7237      46.7237      46.7237 
  477000    92.016542   -11820.901   -10906.439    425.39282     102002.7      46.7237      46.7237      46.7237 
  478000     91.52562   -11790.009   -10880.425    615.66777     102002.7      46.7237      46.7237      46.7237 
  479000     89.99502   -11808.051   -10913.678    837.98599     102002.7      46.7237      46.7237      46.7237 
  480000     89.73672   -11797.709   -10905.904     800.1121     102002.7      46.7237      46.7237      46.7237 
  481000    90.431533   -11812.909   -10914.198    725.30492     102002.7      46.7237      46.7237      46.7237 
  482000    90.334232   -11837.182   -10939.439    441.02731     102002.7      46.7237      46.7237      46.7237 
  483000    90.588374   -11802.714   -10902.445    806.98806     102002.7      46.7237      46.7237      46.7237 
  484000    92.893238   -11778.899   -10855.724    994.23354     102002.7      46.7237      46.7237      46.7237 
  485000    91.423679   -11804.621   -10896.051    765.86174     102002.7      46.7237      46.7237      46.7237 
  486000    91.750373   -11796.332   -10884.515    770.24515     102002.7      46.7237      46.7237      46.7237 
  487000    91.710704   -11821.959   -10910.536    826.81548     102002.7      46.7237      46.7237      46.7237 
  488000    90.476297   -11818.279   -10919.123     749.2437     102002.7      46.7237      46.7237      46.7237 
  489000    89.611867   -11815.287   -10924.723    772.04781     102002.7      46.7237      46.7237      46.7237 
  490000    90.570571       -11790   -10889.908    530.68729     102002.7      46.7237      46.7237      46.7237 
  491000    90.974255    -11812.26   -10908.156    490.72058     102002.7      46.7237      46.7237      46.7237 
  492000     92.60955   -11810.595   -10890.239    736.44218     102002.7      46.7237      46.7237      46.7237 
  493000    90.917788   -11820.159   -10916.616    610.61251     102002.7      46.7237      46.7237      46.7237 
  494000    91.783608   -11799.018    -10886.87    561.89992     102002.7      46.7237      46.7237      46.7237 
  495000    90.544217   -11823.302   -10923.471    500.55301     102002.7      46.7237      46.7237      46.7237 
  496000     91.85648   -11795.138   -10882.267    676.03433     102002.7      46.7237      46.7237      46.7237 
  497000    91.543143   -11803.989   -10894.231     742.5897     102002.7      46.7237      46.7237      46.7237 
  498000     90.06781   -11808.521   -10913.425    544.97767     102002.7      46.7237      46.7237      46.7237 
  499000    88.779175    -11802.85   -10920.561    858.28729     102002.7      46.7237      46.7237      46.7237 
  500000     92.48749   -11827.785   -10908.643    696.01955     102002.7      46.7237      46.7237      46.7237 
  500500    91.318669   -11793.458   -10885.931    799.22246     102002.7      46.7237      46.7237      46.7237 
Loop time of 2067.72 on 16 procs for 500000 steps with 3335 atoms

Performance: 20.893 ns/day, 1.149 hours/ns, 241.812 timesteps/s
99.8% CPU use with 16 MPI tasks x no OpenMP threads

MPI task timing breakdown:
Section |  min time  |  avg time  |  max time  |%varavg| %total
---------------------------------------------------------------
Pair    | 846.28     | 1220.5     | 1676.4     | 724.0 | 59.03
Bond    | 108.83     | 174.78     | 229.14     | 270.0 |  8.45
Neigh   | 15.798     | 15.836     | 15.872     |   0.6 |  0.77
Comm    | 130.61     | 639.38     | 1078.8     |1127.3 | 30.92
Output  | 0.02167    | 0.022305   | 0.025332   |   0.6 |  0.00
Modify  | 9.2686     | 10.214     | 11.251     |  19.5 |  0.49
Other   |            | 6.963      |            |       |  0.34

Nlocal:    208.438 ave 260 max 160 min
Histogram: 2 0 2 2 3 2 2 0 2 1
Nghost:    4206.5 ave 4249 max 4152 min
Histogram: 1 0 1 3 2 1 4 2 0 2
Neighs:    11463.1 ave 19866 max 5318 min
Histogram: 4 0 4 0 1 3 0 2 0 2

Total # of neighbors = 183410
Ave neighs/atom = 54.9955
Ave special neighs/atom = 3.45427
Neighbor list builds = 4094
Dangerous builds = 0
Neighbor list info ...
  update every 1 steps, delay 10 steps, check yes
  max neighbors/atom: 2000, page size: 100000
  master list distance cutoff = 16
  ghost atom cutoff = 16
  binsize = 8, bins = 6 6 6
  3 neighbor lists, perpetual/occasional/extra = 3 0 0
  (1) pair buck6d/coul/gauss/dsf, perpetual, skip from (3)
      attributes: half, newton on
      pair build: skip
      stencil: none
      bin: none
  (2) pair lj/cut, perpetual, skip from (3)
      attributes: half, newton on
      pair build: skip
      stencil: none
      bin: none
  (3) neighbor class addition, perpetual
      attributes: half, newton on
      pair build: half/bin/newton
      stencil: half/bin/3d/newton
      bin: standard
Setting up Verlet run ...
  Unit style    : real
  Current step  : 500500
  Time step     : 1
WARNING: Inconsistent image flags (../domain.cpp:786)
Per MPI rank memory allocation (min/avg/max) = 22.8 | 23.1 | 23.45 Mbytes
Step Time TotEng KinEng PotEng E_mol E_pair Temp Pxx Pyy Pzz Pxy Pxz Pyz Cella Cellb Cellc CellAlpha CellBeta CellGamma Volume Press 
  500500       500000   -10885.931    907.52682   -11793.458    4152.8055   -15946.263    91.318669    1065.1415     855.1797    477.34616    -158.3092    4.1785125   -81.835613      46.7237      46.7237      46.7237           90           90           90     102002.7    799.22246 
  501000       500500   -10908.604    899.80504   -11808.409     4154.463   -15962.872    90.541675    865.37191    364.05095    719.45592    151.48503   -76.069312   -236.38237      46.7237      46.7237      46.7237           90           90           90     102002.7    649.62626 
  502000       501500   -10930.837    881.46036   -11812.297    4159.9615   -15972.258    88.695766    736.23717    799.48296    528.04009    109.53761   -57.601859   -64.226025      46.7237      46.7237      46.7237           90           90           90     102002.7    687.92007 
  503000       502500   -10875.912    935.27365   -11811.185     4148.765    -15959.95    94.110656    795.84982    615.84669    451.63069    -29.59879    31.235025   -25.509965      46.7237      46.7237      46.7237           90           90           90     102002.7    621.10907 
  504000       503500   -10889.906    903.86816   -11793.774    4147.7785   -15941.553    90.950521    910.47988    916.96153    739.66801     79.99524   -22.752384   -4.4763409      46.7237      46.7237      46.7237           90           90           90     102002.7    855.70314 
  505000       504500   -10918.958    894.18155   -11813.139    4157.9139   -15971.053    89.975818    453.05283    781.68145    676.73301    56.352085    133.01706   -46.019447      46.7237      46.7237      46.7237           90           90           90     102002.7    637.15576 
  506000       505500   -10927.659    887.44514   -11815.104    4149.2612   -15964.365    89.297976    369.44188    874.35809    325.96556    150.71153   -124.25571    201.53984      46.7237      46.7237      46.7237           90           90           90     102002.7    523.25517 
  507000       506500    -10913.69    910.98312   -11824.673    4151.0682   -15975.741    91.666454     808.7205    1095.4182    697.34169    17.492206     -9.13851   -55.618747      46.7237      46.7237      46.7237           90           90           90     102002.7    867.16012 
  508000       507500   -10910.761    900.44043   -11811.201     4161.965   -15973.166     90.60561    96.853742    928.62659    527.61264    126.43956    139.04404    49.530004      46.7237      46.7237      46.7237           90           90           90     102002.7    517.69766 
  509000       508500   -10914.619    900.69562   -11815.314    4156.7508   -15972.065    90.631289    354.86651    1245.1363    600.82962    33.580715    123.92542   -37.389025      46.7237      46.7237      46.7237           90           90           90     102002.7    733.61081 
  510000       509500   -10912.891    907.78232   -11820.674    4142.9394   -15963.613    91.344378     688.1875    1033.3805    628.86612    50.587458    107.36033   -34.526552      46.7237      46.7237      46.7237           90           90           90     102002.7    783.47803 
  511000       510500   -10889.733    910.99233   -11800.725    4145.6572   -15946.382    91.667381     494.6046    409.08057    710.81248    30.400718   -102.60785   -152.76063      46.7237      46.7237      46.7237           90           90           90     102002.7    538.16589 
  512000       511500   -10893.422    923.00743    -11816.43    4148.9916   -15965.421    92.876384    651.53603    375.80556    475.47832    117.53679   -12.619786   -215.68794      46.7237      46.7237      46.7237           90           90           90     102002.7    500.93997 
  513000       512500   -10886.716    916.27239   -11802.988    4162.5781   -15965.566     92.19868    394.61396    488.66988    540.91904    89.396424    165.36207    214.66295      46.7237      46.7237      46.7237           90           90           90     102002.7     474.7343 
  514000       513500    -10942.88    887.53093   -11830.411    4150.4559   -15980.867    89.306609    815.29396    606.55878    755.33276    79.938958    180.77295     43.11751      46.7237      46.7237      46.7237           90           90           90     102002.7     725.7285 
  515000       514500   -10870.105    912.10498    -11782.21    4172.8185   -15955.029     91.77934    705.07998    887.61932     990.3487    -227.1825    32.771833    39.363938      46.7237      46.7237      46.7237           90           90           90     102002.7      861.016 
  516000       515500   -10903.875    905.61455   -11809.489     4151.272   -15960.761    91.126249    868.04644    442.79476    788.68122    155.41569    5.7849841    11.110124      46.7237      46.7237      46.7237           90           90           90     102002.7    699.84081 
  517000       516500    -10882.58    911.40334   -11793.984    4172.7448   -15966.729    91.708738    825.74312    1355.9205    759.46209    56.889172    289.89247   -187.99323      46.7237      46.7237      46.7237           90           90           90     102002.7    980.37524 
  518000       517500   -10925.827     904.6395   -11830.466    4152.5882   -15983.054    91.028136    941.04565    612.04431    988.18206     5.657996   -114.75265    59.550734      46.7237      46.7237      46.7237           90           90           90     102002.7    847.09067 
  519000       518500   -10920.064    911.36096   -11831.425    4160.1571   -15991.582    91.704474    760.48188    808.17522     233.0113    249.52444   -36.879279   -59.863911      46.7237      46.7237      46.7237           90           90           90     102002.7    600.55613 
  520000       519500   -10905.492    919.36625   -11824.858    4157.4064   -15982.265    92.509995    920.03527    657.35769    202.93962    184.58818   -127.08771    -14.20156      46.7237      46.7237      46.7237           90           90           90     102002.7    593.44419 
  521000       520500   -10890.878    910.64011   -11801.518    4171.3961   -15972.914     91.63194    344.56346    675.22203    562.99889    -19.88734    223.28325   -169.06248      46.7237      46.7237      46.7237           90           90           90     102002.7    527.59479 
  522000       521500    -10925.15    879.39823   -11804.549    4156.8202   -15961.369    88.488267    960.38438    781.26746    365.86019   -96.413013    211.84076    33.222441      46.7237      46.7237      46.7237           90           90           90     102002.7    702.50401 
  523000       522500   -10873.797    918.39209   -11792.189    4166.4766   -15958.666    92.411972    1039.6507    588.27715    476.98716     94.40569   -2.9188406    -62.42441      46.7237      46.7237      46.7237           90           90           90     102002.7    701.63835 
  524000       523500   -10902.905    900.87579   -11803.781    4171.1551   -15974.936    90.649418    397.20383    448.34638    507.36448   -178.50305   -98.201275    299.09292      46.7237      46.7237      46.7237           90           90           90     102002.7    450.97156 
  525000       524500   -10911.936    895.10338    -11807.04    4153.3482   -15960.388    90.068576    498.87676     684.2442    530.34639    102.99013   -165.68837    50.785459      46.7237      46.7237      46.7237           90           90           90     102002.7    571.15578 
  526000       525500   -10867.418    927.66067   -11795.079    4156.8129   -15951.892     93.34461    756.28682    776.13742    643.23075    130.11274    140.45992    96.061316      46.7237      46.7237      46.7237           90           90           90     102002.7    725.21833 
  527000       526500   -10884.801    920.07119   -11804.872    4153.1484    -15958.02    92.580929    700.38516    741.14006    704.21542   -113.32727    44.632293    52.138339      46.7237      46.7237      46.7237           90           90           90     102002.7    715.24688 
  528000       527500   -10910.039     905.0255   -11815.064    4146.5622   -15961.626    91.066977    801.73022      1021.46    837.34341    59.211251    42.758768    -30.47354      46.7237      46.7237      46.7237           90           90           90     102002.7    886.84453 
  529000       528500   -10902.198    901.28276   -11803.481    4146.8061   -15950.287    90.690368    497.43479    532.55628    323.54926   0.47012302   -200.19633     247.8984      46.7237      46.7237      46.7237           90           90           90     102002.7    451.18011 
  530000       529500   -10863.189    926.79168   -11789.981    4166.1895   -15956.171    93.257169    486.52365     721.5872    1010.6022   -246.67869   -181.60997    68.765683      46.7237      46.7237      46.7237           90           90           90     102002.7    739.57102 
  531000       530500   -10914.373    897.11141   -11811.484    4148.5162   -15960.001    90.270632    646.28214    1551.7158    509.24058     88.35165   -196.02526    149.38666      46.7237      46.7237      46.7237           90           90           90     102002.7    902.41285 
  532000       531500   -10900.479     894.0481   -11794.528    4163.4244   -15957.952     89.96239     432.2052    374.45778    750.93528   -205.27553    106.91871   -2.7811622      46.7237      46.7237      46.7237           90           90           90     102002.7    519.19942 
  533000       532500   -10923.034    902.55289   -11825.587     4121.476   -15947.063    90.818173    1114.6457    621.19668    814.52308   -91.582675   -24.766088   -94.242302      46.7237      46.7237      46.7237           90           90           90     102002.7    850.12182 
  534000       533500    -10883.99     918.3152   -11802.305    4150.2149    -15952.52    92.404235     908.3027    870.76058    1095.0358    184.80858    102.03489   -266.25442      46.7237      46.7237      46.7237           90           90           90     102002.7    958.03303 
  535000       534500   -10915.713    885.05842   -11800.771    4164.7306   -15965.502    89.057816    1064.2283    985.83366    764.60613    17.980425   -27.401517   -124.19192      46.7237      46.7237      46.7237           90           90           90     102002.7    938.22271 
  536000       535500   -10908.067    887.21852   -11795.286    4169.4126   -15964.698    89.275173    689.50021    938.83379    842.67372    -101.4244   -157.71123    16.851277      46.7237      46.7237      46.7237           90           90           90     102002.7    823.66924 
  537000       536500   -10890.968    905.27944   -11796.247    4170.3854   -15966.632    91.092529    709.73799    491.97047    939.14137    27.000033   -33.037703    11.905843      46.7237      46.7237      46.7237           90           90           90     102002.7    713.61661 
  538000       537500   -10953.495    895.74919   -11849.244    4135.3622   -15984.606    90.133561    831.25988    775.85299    585.82549    53.720534    231.51224    122.93818      46.7237      46.7237      46.7237           90           90           90     102002.7    730.97945 
  539000       538500   -10895.561    924.78381   -11820.344    4153.7556     -15974.1     93.05513    98.904458    937.66306    804.02759   -115.81489    115.24952    2.5493578      46.7237      46.7237      46.7237           90           90           90     102002.7     613.5317 
  540000       539500   -10918.215    904.45956   -11822.675    4154.7731   -15977.448    91.010029    963.89757    571.87987    470.51639   -82.764238     185.1556   -132.68465      46.7237      46.7237      46.7237           90           90           90     102002.7    668.76461 
  541000       540500   -10921.287    883.19677   -11804.484    4163.0814   -15967.565     88.87049    468.27721     1040.019    714.72381   -150.74347    93.129205    -160.3037      46.7237      46.7237      46.7237           90           90           90     102002.7    741.00666 
  542000       541500   -10934.167    895.13929   -11829.307    4139.8543   -15969.161     90.07219    229.42434    307.47362    743.03837    112.56599   -60.027322   -68.128514      46.7237      46.7237      46.7237           90           90           90     102002.7    426.64544 
  543000       542500    -10907.92      897.942   -11805.862     4144.638     -15950.5    90.354209    596.18373    410.13778    978.24658    235.39733   -186.51136    80.369956      46.7237      46.7237      46.7237           90           90           90     102002.7     661.5227 
  544000       543500   -10883.716    900.93985   -11784.656    4176.6646   -15961.321    90.655863     715.2969    757.02911    818.36344    68.260419   -112.82423   -82.639311      46.7237      46.7237      46.7237           90           90           90     102002.7    763.56315 
  545000       544500   -10923.044    881.12465   -11804.169    4160.5582   -15964.727    88.661986    847.44628    663.54672    844.78039   -123.67741    236.07028   -49.918844      46.7237      46.7237      46.7237           90           90           90     102002.7     785.2578 
  546000       545500   -10916.976    902.34725   -11819.323    4142.8453   -15962.169    90.797481    760.07272    591.96152    735.11943    133.09978   -89.557733   -46.914778      46.7237      46.7237      46.7237           90           90           90     102002.7    695.71789 
  547000       546500    -10917.64    882.55307   -11800.193    4153.3537   -15953.547    88.805719    883.54792    641.47656    517.94919    104.42861    1.3793325   -148.53365      46.7237      46.7237      46.7237           90           90           90     102002.7    680.99122 
  548000       547500   -10885.104    912.84795   -11797.952    4169.3795   -15967.332      91.8541    992.26241     686.7195    423.75078   -204.70366      45.1837   -145.93409      46.7237      46.7237      46.7237           90           90           90     102002.7     700.9109 
  549000       548500   -10885.576    897.97123   -11783.547    4180.9472   -15964.494     90.35715    847.96385    868.81076    790.30552    32.827565    14.886602   -96.785559      46.7237      46.7237      46.7237           90           90           90     102002.7    835.69338 
  550000       549500    -10877.69    913.64238   -11791.332    4180.2413   -15971.573    91.934039    414.35219    1035.3664    1271.8927   -31.677699    -131.3959    164.24152      46.7237      46.7237      46.7237           90           90           90     102002.7    907.20377 
  551000       550500   -10918.082    889.24772    -11807.33    4145.7444   -15953.074    89.479359    706.16374     470.5054    1210.9591    67.687191    216.80582    204.08922      46.7237      46.7237      46.7237           90           90           90     102002.7    795.87608 
  552000       551500    -10934.05    891.00273   -11825.053    4124.0747   -15949.128    89.655954    892.61426    724.76225    561.96615    65.338351    201.79932    82.621356      46.7237      46.7237      46.7237           90           90           90     102002.7    726.44755 
  553000       552500    -10867.77    937.36748   -11805.137    4148.2617   -15953.399    94.321345    864.80772     836.3584    1027.4739    124.44215    46.450084   -178.41476      46.7237      46.7237      46.7237           90           90           90     102002.7    909.54667 
  554000       553500   -10907.105    907.71653   -11814.821    4145.4803   -15960.301    91.337758    983.13126    942.50532    551.76855     98.56662   -56.670758   -198.56434      46.7237      46.7237      46.7237           90           90           90     102002.7    825.80171 
  555000       554500   -10930.167    897.31053   -11827.478    4159.8848   -15987.362    90.290668    665.64685    1059.7152    199.32549   -66.321745    42.421779    33.887886      46.7237      46.7237      46.7237           90           90           90     102002.7    641.56252 
[...]
  936000       935500   -10908.396    916.52124   -11824.918    4153.5343   -15978.452     92.22372    722.04078    1083.5547    961.64843     236.3729    52.990745    61.966186      46.7237      46.7237      46.7237           90           90           90     102002.7    922.41465 
  937000       936500   -10931.352    899.54379   -11830.896     4135.024    -15965.92    90.515387    289.94294    996.67519    642.82929     189.1088   -43.190248   -53.431079      46.7237      46.7237      46.7237           90           90           90     102002.7    643.14914 
  938000       937500   -10904.683    907.66824   -11812.351    4166.8656   -15979.217    91.332899    596.43732    497.72216    1289.8669   -46.223973    243.46699   -162.92578      46.7237      46.7237      46.7237           90           90           90     102002.7    794.67546 
  939000       938500   -10941.688    898.17844   -11839.866     4144.175   -15984.041       90.378    13.162793    473.53073    853.74079   -156.06176   -104.31033    110.28985      46.7237      46.7237      46.7237           90           90           90     102002.7    446.81144 
  940000       939500   -10895.783    912.42741    -11808.21    4172.8963   -15981.106    91.811784    640.86355    855.29524    627.41637    246.10477    6.7839218    -118.4707      46.7237      46.7237      46.7237           90           90           90     102002.7    707.85839 
  941000       940500    -10902.22    908.07903   -11810.299    4171.9103   -15982.209    91.374235    424.07727    588.28479    1043.8887    8.0290383   -11.853412   -35.470094      46.7237      46.7237      46.7237           90           90           90     102002.7    685.41691 
  942000       941500   -10905.397    923.04525   -11828.442    4154.5293   -15982.971     92.88019    355.04223      714.254     411.7948   -138.35707    153.11782    178.34398      46.7237      46.7237      46.7237           90           90           90     102002.7    493.69701 
  943000       942500   -10945.807    876.23442   -11822.042    4144.3937   -15966.435    88.169913    378.06558    1067.2289    595.26843    83.435092    188.44772   -41.829403      46.7237      46.7237      46.7237           90           90           90     102002.7    680.18764 
  944000       943500   -10899.552    900.62589   -11800.178    4162.2984   -15962.476    90.624272    685.88899     529.9427    657.31094    -127.4976   -66.141298   -31.171917      46.7237      46.7237      46.7237           90           90           90     102002.7    624.38088 
  945000       944500   -10903.406    900.10509   -11803.511    4158.6107   -15962.121    90.571867    195.61607    165.56423    622.86613    13.184994   -270.16814    45.569156      46.7237      46.7237      46.7237           90           90           90     102002.7    328.01548 
  946000       945500   -10912.899     886.3518   -11799.251    4145.2911   -15944.542     89.18796    625.36211    342.63999    1029.9896     5.525904   -21.119477    -219.8287      46.7237      46.7237      46.7237           90           90           90     102002.7    665.99724 
  947000       946500    -10845.68    930.48261   -11776.163    4166.2545   -15942.417    93.628564    428.23896    1086.9085    1032.4616   -133.80565    198.25194    47.419462      46.7237      46.7237      46.7237           90           90           90     102002.7    849.20304 
  948000       947500   -10918.375    910.45704   -11828.832     4134.847   -15963.679    91.613518    359.09157    699.16877    763.03889    23.660116   -10.000146   -109.40822      46.7237      46.7237      46.7237           90           90           90     102002.7    607.09974 
  949000       948500   -10900.905    917.70261   -11818.608    4142.2518    -15960.86    92.342594    448.19267    1022.4727    303.74313    31.556046   -199.36721      141.278      46.7237      46.7237      46.7237           90           90           90     102002.7    591.46951 
  950000       949500   -10923.698    899.53331   -11823.232    4143.9397   -15967.171    90.514332    727.93042    929.28684    636.25958    7.8561751    47.965694    148.75867      46.7237      46.7237      46.7237           90           90           90     102002.7    764.49228 
  951000       950500   -10894.595     914.5109   -11809.106    4168.5909   -15977.697    92.021432    428.72815    754.31446     858.5782   -131.93313   -14.793235   -198.47078      46.7237      46.7237      46.7237           90           90           90     102002.7    680.54027 
  952000       951500   -10894.155    909.16654   -11803.322    4155.2989   -15958.621    91.483663    656.79177     691.4691    753.46465    202.45067    29.755937    -29.50125      46.7237      46.7237      46.7237           90           90           90     102002.7    700.57517 
  953000       952500   -10896.877    906.76215   -11803.639    4158.2417   -15961.881    91.241725    10.887572    729.81159    473.41779   -28.380988    74.953129   -279.83442      46.7237      46.7237      46.7237           90           90           90     102002.7    404.70565 
  954000       953500   -10908.359    915.34979   -11823.709      4157.72   -15981.429    92.105845    672.53795    333.67604    540.64185    132.55789    103.99194   -94.831859      46.7237      46.7237      46.7237           90           90           90     102002.7    515.61861 
  955000       954500    -10923.09    899.51716   -11822.608    4143.8278   -15966.435    90.512708    113.01058    533.09513     511.5337   -66.241786    236.36531    162.14863      46.7237      46.7237      46.7237           90           90           90     102002.7    385.87981 
  956000       955500   -10901.949     917.3615    -11819.31    4166.1891   -15985.499     92.30827    376.43376    294.80283    659.46519    23.544988    46.070473    15.030706      46.7237      46.7237      46.7237           90           90           90     102002.7    443.56726 
  957000       956500   -10947.703    901.29898   -11849.002     4155.758    -16004.76       90.692    80.340034    553.00694    553.79483    239.34004    121.65156   -45.076882      46.7237      46.7237      46.7237           90           90           90     102002.7    395.71394 
  958000       957500   -10909.904     902.8537   -11812.758    4175.9948   -15988.753    90.848442    555.14151    462.39529    561.45205   -80.788154    231.95725   -122.53613      46.7237      46.7237      46.7237           90           90           90     102002.7    526.32962 
  959000       958500   -10896.739    913.79549   -11810.535    4153.9883   -15964.523    91.949445    1323.1015    665.50697    457.52487   -104.29464    231.06992   -181.33373      46.7237      46.7237      46.7237           90           90           90     102002.7    815.37779 
  960000       959500   -10908.253    903.57626   -11811.829      4140.86   -15952.689    90.921149    517.96545     1290.611    710.15713    128.33971    80.323115   -74.110018      46.7237      46.7237      46.7237           90           90           90     102002.7    839.57786 
  961000       960500   -10909.423    915.84155   -11825.264    4162.1199   -15987.384    92.155327    790.05525    717.03991    909.97946    78.728512    111.95081   -231.13507      46.7237      46.7237      46.7237           90           90           90     102002.7    805.69154 
  962000       961500   -10883.655    915.73213   -11799.387    4171.6535    -15971.04    92.144317    959.73984    747.95995    956.44702    73.420241   -167.41082    73.619402      46.7237      46.7237      46.7237           90           90           90     102002.7    888.04894 
  963000       962500   -10920.231    912.48841   -11832.719    4135.1019   -15967.821    91.817922    881.23939    496.23703    1028.8341    34.044489    24.488343    8.0315052      46.7237      46.7237      46.7237           90           90           90     102002.7     802.1035 
  964000       963500   -10901.341    917.78069   -11819.122    4143.8205   -15962.942     92.35045    699.53899    579.57767    895.14152   -191.31002   -64.906087   -28.032009      46.7237      46.7237      46.7237           90           90           90     102002.7    724.75273 
  965000       964500    -10901.38    918.88926   -11820.269    4144.2349   -15964.504    92.461999    288.75634    939.33222    787.37931   -15.155511    139.36735    24.598017      46.7237      46.7237      46.7237           90           90           90     102002.7    671.82262 
  966000       965500   -10917.467    896.61192   -11814.079    4152.5213     -15966.6    90.220372     892.3221    282.46746    619.94628    88.331819    19.284496   -3.2770042      46.7237      46.7237      46.7237           90           90           90     102002.7    598.24528 
  967000       966500   -10914.074    894.49282   -11808.566    4159.7725   -15968.339     90.00714    805.73664    898.60351     619.4763    252.04993    13.599585   -72.477551      46.7237      46.7237      46.7237           90           90           90     102002.7    774.60548 
  968000       967500   -10932.304    885.90704   -11818.211     4157.699    -15975.91    89.143207    592.21697    773.65122    474.38415   -157.97789   -225.16423   -210.03926      46.7237      46.7237      46.7237           90           90           90     102002.7    613.41745 
  969000       968500   -10900.543    904.94474   -11805.487    4167.2479   -15972.735    91.058851    935.82829    1009.6383    570.33924   -5.4598215   -76.044408   -132.41675      46.7237      46.7237      46.7237           90           90           90     102002.7    838.60193 
  970000       969500   -10921.461    891.48722   -11812.948    4153.5157   -15966.463    89.704705    857.76856    446.78644    1130.2517    260.13645    111.63663    113.54196      46.7237      46.7237      46.7237           90           90           90     102002.7    811.60223 
  971000       970500   -10889.527    928.31731   -11817.844    4151.5448   -15969.389    93.410684    671.87448    908.23729    710.74361    53.048111   -29.557754     104.6962      46.7237      46.7237      46.7237           90           90           90     102002.7    763.61846 
  972000       971500   -10924.738    891.30886   -11816.047    4154.7167   -15970.763    89.686758    750.50946    587.77831    462.32642   -66.562096    241.36001    66.782845      46.7237      46.7237      46.7237           90           90           90     102002.7    600.20473 
  973000       972500   -10918.818    902.42609   -11821.244    4149.6567   -15970.901    90.805414    869.68656    546.85912    626.39693   -136.03703    23.938659   -96.974694      46.7237      46.7237      46.7237           90           90           90     102002.7    680.98087 
  974000       973500   -10898.281    904.05961   -11802.341    4164.9179   -15967.258    90.969785    1139.2509    536.30173    402.60137   -114.60451     125.8969   -139.24979      46.7237      46.7237      46.7237           90           90           90     102002.7      692.718 
  975000       974500   -10950.449    883.26768   -11833.717    4154.6002   -15988.317    88.877625    435.67171    937.38863    1064.3481    129.88659    285.33103   -95.970351      46.7237      46.7237      46.7237           90           90           90     102002.7    812.46947 
  976000       975500    -10926.92    901.00234   -11827.922    4146.1798   -15974.102    90.662151     325.0152    589.54518    754.15843   -36.879222     45.79665    136.29093      46.7237      46.7237      46.7237           90           90           90     102002.7     556.2396 
  977000       976500     -10924.4    900.82441   -11825.224    4136.0555    -15961.28    90.644248    748.43278    566.23658    669.55135    61.907777    116.44465   -117.92991      46.7237      46.7237      46.7237           90           90           90     102002.7     661.4069 
  978000       977500   -10894.591    916.89808   -11811.489    4175.6881   -15987.177    92.261639    575.16242    434.01621    920.38207   -52.118018   -21.277996   -30.258617      46.7237      46.7237      46.7237           90           90           90     102002.7     643.1869 
  979000       978500    -10927.01    884.50267   -11811.513    4140.8651   -15952.378    89.001894    869.70577     511.3544    582.40769    25.900284   -64.183452   -121.14817      46.7237      46.7237      46.7237           90           90           90     102002.7    654.48929 
  980000       979500   -10942.319    877.97977   -11820.299    4160.3304    -15980.63    88.345536    789.67145    552.00526    782.51802     22.93634   -172.20009   -188.12857      46.7237      46.7237      46.7237           90           90           90     102002.7    708.06491 
  981000       980500   -10915.357    910.16369    -11825.52    4144.3933   -15969.914       91.584    691.20584    355.35645    451.95202   -16.886267    177.44517     56.05488      46.7237      46.7237      46.7237           90           90           90     102002.7    499.50477 
  982000       981500   -10941.129     897.4997   -11838.628    4152.6497   -15991.278    90.309703    340.25684    638.74707    572.93907    -23.39321   -2.9293621      130.165      46.7237      46.7237      46.7237           90           90           90     102002.7    517.31433 
  983000       982500   -10896.082    911.80852   -11807.891     4164.285   -15972.176    91.749509    955.05436    826.71426     1572.664    39.288612    271.65376    92.500618      46.7237      46.7237      46.7237           90           90           90     102002.7    1118.1442 
  984000       983500   -10929.205    887.72324   -11816.928    4154.8356   -15971.764     89.32596    921.45377    848.04907    603.37358   -98.601955   -94.707859   -92.728188      46.7237      46.7237      46.7237           90           90           90     102002.7    790.95881 
  985000       984500   -10903.146     925.8777   -11829.024      4164.55   -15993.574    93.165201    589.38211     492.7437    524.25569    268.75879   -49.505309    37.855086      46.7237      46.7237      46.7237           90           90           90     102002.7     535.4605 
  986000       985500   -10929.858      892.265   -11822.123      4150.01   -15972.133    89.782969    1006.9128    730.12193    693.33016    93.697397   -54.251576  -0.53694315      46.7237      46.7237      46.7237           90           90           90     102002.7    810.12163 
  987000       986500   -10900.078     921.1201   -11821.198    4151.8184   -15973.017    92.686474    749.56166    771.22298    706.18001    48.029623    102.51861    -65.56943      46.7237      46.7237      46.7237           90           90           90     102002.7    742.32155 
  988000       987500   -10886.662    927.96984   -11814.632    4163.1167   -15977.749     93.37572    1151.6451    537.82404    766.93471   -82.463836   -204.83188   -133.16793      46.7237      46.7237      46.7237           90           90           90     102002.7    818.80129 
  989000       988500   -10912.439    894.35732   -11806.796     4161.702   -15968.498    89.993506    770.24877    503.88797    653.91824   -68.272112     297.6349   -100.46294      46.7237      46.7237      46.7237           90           90           90     102002.7      642.685 
  990000       989500   -10955.896    883.49715   -11839.393    4142.6598   -15982.053    88.900715    336.40798    777.08637    802.37188    127.48648    84.616747    205.69389      46.7237      46.7237      46.7237           90           90           90     102002.7    638.62207 
  991000       990500   -10888.692    915.29291   -11803.985     4135.291   -15939.276    92.100121    753.73503    958.33721    1344.1899     64.05482    157.19522   -147.07366      46.7237      46.7237      46.7237           90           90           90     102002.7     1018.754 
  992000       991500   -10922.768    879.22097   -11801.989    4139.9649   -15941.954     88.47043    977.11918    978.62163    695.81433   -316.30487   -254.40375   -36.594849      46.7237      46.7237      46.7237           90           90           90     102002.7    883.85171 
  993000       992500   -10893.421    913.27348   -11806.695    4159.3625   -15966.057    91.896918    730.47932    515.13204     554.2569   -189.99825   -18.204257   -25.535623      46.7237      46.7237      46.7237           90           90           90     102002.7    599.95609 
  994000       993500   -10894.558    912.66995   -11807.228    4160.6701   -15967.898    91.836189    975.37599    876.43757    622.11471   -124.43068    181.59605    31.700899      46.7237      46.7237      46.7237           90           90           90     102002.7    824.64276 
  995000       994500    -10919.41    901.15668   -11820.567    4162.4398   -15983.006    90.677682    796.51169    841.76318    453.56758    75.312815    9.7790653    17.775819      46.7237      46.7237      46.7237           90           90           90     102002.7    697.28082 
  996000       995500   -10923.545    910.22228   -11833.767    4123.6511   -15957.418    91.589896    525.56683     894.5558    501.51387    165.73013    41.042089   -204.71101      46.7237      46.7237      46.7237           90           90           90     102002.7     640.5455 
  997000       996500   -10892.871    917.27774   -11810.148    4152.4392   -15962.587    92.299842    1027.5576    1035.5248    1113.5886   -198.46379    276.87828   -104.97731      46.7237      46.7237      46.7237           90           90           90     102002.7    1058.8903 
  998000       997500   -10885.778    916.50647   -11802.285    4158.5993   -15960.884    92.222234   -6.7473159    682.93212    376.09521   -68.880737    -46.98075    115.26765      46.7237      46.7237      46.7237           90           90           90     102002.7       350.76 
  999000       998500   -10931.284    883.81966   -11815.104    4148.1821   -15963.286    88.933168     565.3034    421.01336    919.86056   -214.05226    117.24233   -18.019283      46.7237      46.7237      46.7237           90           90           90     102002.7    635.39244 
 1000000       999500   -10902.268    899.69715   -11801.965    4167.1738   -15969.139    90.530818    1141.7797    686.49379    779.83562    40.940596     107.9177     227.8062      46.7237      46.7237      46.7237           90           90           90     102002.7    869.36969 
 1000500      1000000   -10910.101    909.37801   -11819.479    4143.7092   -15963.189    91.504942    696.88433    898.92163    596.44866    95.969796   -224.03983     106.6496      46.7237      46.7237      46.7237           90           90           90     102002.7    730.75154 
Loop time of 2540.23 on 16 procs for 500000 steps with 3335 atoms

Performance: 17.006 ns/day, 1.411 hours/ns, 196.833 timesteps/s
99.8% CPU use with 16 MPI tasks x no OpenMP threads

MPI task timing breakdown:
Section |  min time  |  avg time  |  max time  |%varavg| %total
---------------------------------------------------------------
Pair    | 1074.2     | 1550.2     | 2088.5     | 836.2 | 61.03
Bond    | 97.114     | 184.08     | 247.46     | 342.4 |  7.25
Neigh   | 15.87      | 15.915     | 15.949     |   0.6 |  0.63
Comm    | 160.19     | 758.07     | 1319.9     |1349.4 | 29.84
Output  | 0.13667    | 0.14388    | 0.14458    |   0.5 |  0.01
Modify  | 23.976     | 24.827     | 26.137     |  12.6 |  0.98
Other   |            | 7.005      |            |       |  0.28

Nlocal:    208.438 ave 248 max 160 min
Histogram: 2 0 0 4 1 1 2 2 3 1
Nghost:    4195.19 ave 4237 max 4162 min
Histogram: 1 3 2 3 0 1 2 0 3 1
Neighs:    11463.1 ave 18956 max 5347 min
Histogram: 2 1 2 4 1 1 1 1 2 1

Total # of neighbors = 183409
Ave neighs/atom = 54.9952
Ave special neighs/atom = 3.45427
Neighbor list builds = 4062
Dangerous builds = 0
Total wall time: 1:16:52
