LAMMPS (30 Mar 2018)
Reading data file ...
  orthogonal box = (0 0 0) to (46.7237 46.7237 46.7237)
  2 by 2 by 4 MPI processor grid
  reading atoms ...
  3284 atoms
  scanning bonds ...
  5 = max bonds/atom
  scanning angles ...
  10 = max angles/atom
  scanning dihedrals ...
  32 = max dihedrals/atom
  scanning impropers ...
  3 = max impropers/atom
  reading bonds ...
  2064 bonds
  reading angles ...
  3696 angles
  reading dihedrals ...
  6240 dihedrals
  reading impropers ...
  1008 impropers
Finding 1-2 1-3 1-4 neighbors ...
  special bond factors lj:   0          0          0         
  special bond factors coul: 0          0          0         
  5 = max # of 1-2 neighbors
  8 = max # of 1-3 neighbors
  20 = max # of 1-4 neighbors
  19 = max # of special neighbors
Finding 1-2 1-3 1-4 neighbors ...
  special bond factors lj:   0          0          1         
  special bond factors coul: 1          1          1         
  5 = max # of 1-2 neighbors
  8 = max # of 1-3 neighbors
  19 = max # of special neighbors
WARNING: Using 'neigh_modify every 1 delay 0 check yes' setting during minimization (../min.cpp:168)
Neighbor list info ...
  update every 1 steps, delay 0 steps, check yes
  max neighbors/atom: 2000, page size: 100000
  master list distance cutoff = 16
  ghost atom cutoff = 16
  binsize = 8, bins = 6 6 6
  3 neighbor lists, perpetual/occasional/extra = 3 0 0
  (1) pair buck6d/coul/gauss/dsf, perpetual, skip from (3)
      attributes: half, newton on
      pair build: skip
      stencil: none
      bin: none
  (2) pair lj/cut, perpetual, skip from (3)
      attributes: half, newton on
      pair build: skip
      stencil: none
      bin: none
  (3) neighbor class addition, perpetual
      attributes: half, newton on
      pair build: half/bin/newton
      stencil: half/bin/3d/newton
      bin: standard
Setting up cg style minimization ...
  Unit style    : real
  Current step  : 0
WARNING: Inconsistent image flags (../domain.cpp:786)
Per MPI rank memory allocation (min/avg/max) = 23.02 | 23.48 | 23.92 Mbytes
Step Temp E_pair E_mol TotEng Press 
       0            0   -15882.797    6482.8914   -9399.9053    6326.9942 
     500            0   -16222.696    3770.7295   -12451.967   -1521.6422 
Loop time of 4.51393 on 16 procs for 500 steps with 3284 atoms

99.8% CPU use with 16 MPI tasks x no OpenMP threads

Minimization stats:
  Stopping criterion = max force evaluations
  Energy initial, next-to-last, final = 
        -9399.90534495     -12451.9179714     -12451.9667809
  Force two-norm initial, final = 2574.9 10.5898
  Force max component initial, final = 152.14 1.32211
  Final line search alpha, max atom move = 0.00707893 0.00935914
  Iterations, force evaluations = 500 1000

MPI task timing breakdown:
Section |  min time  |  avg time  |  max time  |%varavg| %total
---------------------------------------------------------------
Pair    | 2.6259     | 3.0844     | 3.6515     |  17.1 | 68.33
Bond    | 0.25552    | 0.36078    | 0.45952    |   9.3 |  7.99
Neigh   | 0.033071   | 0.033161   | 0.03323    |   0.0 |  0.73
Comm    | 0.36264    | 0.99051    | 1.4695     |  32.0 | 21.94
Output  | 0          | 0          | 0          |   0.0 |  0.00
Modify  | 0          | 0          | 0          |   0.0 |  0.00
Other   |            | 0.0451     |            |       |  1.00

Nlocal:    205.25 ave 228 max 183 min
Histogram: 1 0 3 3 1 2 3 0 1 2
Nghost:    4107.12 ave 4131 max 4082 min
Histogram: 2 0 1 4 2 0 2 2 0 3
Neighs:    11499.8 ave 15826 max 8492 min
Histogram: 4 2 0 2 2 2 0 1 1 2

Total # of neighbors = 183996
Ave neighs/atom = 56.028
Ave special neighs/atom = 3.50792
Neighbor list builds = 9
Dangerous builds = 0
Neighbor list info ...
  update every 1 steps, delay 10 steps, check yes
  max neighbors/atom: 2000, page size: 100000
  master list distance cutoff = 16
  ghost atom cutoff = 16
  binsize = 8, bins = 6 6 6
  3 neighbor lists, perpetual/occasional/extra = 3 0 0
  (1) pair buck6d/coul/gauss/dsf, perpetual, skip from (3)
      attributes: half, newton on
      pair build: skip
      stencil: none
      bin: none
  (2) pair lj/cut, perpetual, skip from (3)
      attributes: half, newton on
      pair build: skip
      stencil: none
      bin: none
  (3) neighbor class addition, perpetual
      attributes: half, newton on
      pair build: half/bin/newton
      stencil: half/bin/3d/newton
      bin: standard
Setting up Verlet run ...
  Unit style    : real
  Current step  : 500
  Time step     : 1
WARNING: Inconsistent image flags (../domain.cpp:786)
Per MPI rank memory allocation (min/avg/max) = 22.67 | 22.74 | 22.8 Mbytes
Step Temp PotEng TotEng Press Volume Lx Ly Lz 
     500           91   -12451.967   -11561.441    -1122.555     102002.7      46.7237      46.7237      46.7237 
    1000    76.626224   -11714.246   -10964.382    1.9293829     102002.7      46.7237      46.7237      46.7237 
    2000    91.610355   -11549.469    -10652.97    33.554421     102002.7      46.7237      46.7237      46.7237 
    3000    91.795205   -11601.972   -10703.664     169.7609     102002.7      46.7237      46.7237      46.7237 
    4000    89.655533   -11606.855   -10729.486    431.11041     102002.7      46.7237      46.7237      46.7237 
    5000    92.846486   -11579.583   -10670.987    137.13705     102002.7      46.7237      46.7237      46.7237 
    6000    89.603445   -11616.546   -10739.686     140.6203     102002.7      46.7237      46.7237      46.7237 
    7000    90.128328   -11588.152   -10706.156    362.86351     102002.7      46.7237      46.7237      46.7237 
    8000     89.21371   -11614.448   -10741.402    385.82189     102002.7      46.7237      46.7237      46.7237 
    9000    91.051922   -11616.298   -10725.264    197.80433     102002.7      46.7237      46.7237      46.7237 
   10000    89.191869   -11600.625   -10727.794    345.77953     102002.7      46.7237      46.7237      46.7237 
   11000    94.425266   -11597.941   -10673.895   -21.179743     102002.7      46.7237      46.7237      46.7237 
   12000    88.748962   -11622.484   -10753.987    186.30076     102002.7      46.7237      46.7237      46.7237 
   13000    90.253879   -11618.694   -10735.469    324.33154     102002.7      46.7237      46.7237      46.7237 
   14000    91.030312   -11603.789   -10712.967    281.91503     102002.7      46.7237      46.7237      46.7237 
   15000    88.926953    -11606.65   -10736.411     321.7513     102002.7      46.7237      46.7237      46.7237 
   16000     92.28372   -11629.142   -10726.054    248.78952     102002.7      46.7237      46.7237      46.7237 
   17000    93.285827   -11621.219   -10708.324    177.74074     102002.7      46.7237      46.7237      46.7237 
   18000    91.744052   -11615.485   -10717.678    270.07309     102002.7      46.7237      46.7237      46.7237 
   19000     92.30279   -11624.305   -10721.029    16.704837     102002.7      46.7237      46.7237      46.7237 
   20000      91.2259   -11628.518   -10735.781    390.65788     102002.7      46.7237      46.7237      46.7237 
   21000    91.670166   -11616.585   -10719.501    350.94161     102002.7      46.7237      46.7237      46.7237 
   22000    90.950242   -11650.563   -10760.524    363.89577     102002.7      46.7237      46.7237      46.7237 
   23000    91.657394   -11630.147   -10733.187    275.35544     102002.7      46.7237      46.7237      46.7237 
   24000    91.708293   -11640.458       -10743   -71.385326     102002.7      46.7237      46.7237      46.7237 
   25000    90.336293    -11611.61   -10727.579    486.00291     102002.7      46.7237      46.7237      46.7237 
   26000    91.185993   -11642.938   -10750.592    537.98932     102002.7      46.7237      46.7237      46.7237 
   27000    90.916134   -11616.676   -10726.971    98.884544     102002.7      46.7237      46.7237      46.7237 
   28000    90.677913   -11643.759   -10756.385    375.07155     102002.7      46.7237      46.7237      46.7237 
   29000    93.096122   -11648.151   -10737.112    88.069003     102002.7      46.7237      46.7237      46.7237 
   30000    89.268295   -11630.272   -10756.692    429.28267     102002.7      46.7237      46.7237      46.7237 
   31000    92.784371   -11618.281   -10710.293    318.18861     102002.7      46.7237      46.7237      46.7237 
   32000    89.857629   -11621.582   -10742.235    174.46994     102002.7      46.7237      46.7237      46.7237 
   33000    91.055781   -11626.202    -10735.13    98.744316     102002.7      46.7237      46.7237      46.7237 
   34000    89.914808   -11618.448   -10738.542    207.67096     102002.7      46.7237      46.7237      46.7237 
   35000    90.883192    -11638.82   -10749.437    328.33094     102002.7      46.7237      46.7237      46.7237 
   36000    92.267139   -11620.015   -10717.089    284.40785     102002.7      46.7237      46.7237      46.7237 
   37000    89.465119   -11628.161   -10752.655     305.7726     102002.7      46.7237      46.7237      46.7237 
   38000    92.694402   -11641.382   -10734.274    145.67052     102002.7      46.7237      46.7237      46.7237 
   39000    92.254206   -11613.007   -10710.208    -41.47241     102002.7      46.7237      46.7237      46.7237 
   40000    91.494319   -11642.829   -10747.466    45.974288     102002.7      46.7237      46.7237      46.7237 
   41000    89.675395   -11631.675   -10754.112    139.23367     102002.7      46.7237      46.7237      46.7237 
   42000    88.483813   -11617.618   -10751.715    35.347251     102002.7      46.7237      46.7237      46.7237 
   43000    89.676865   -11644.435   -10766.857      156.622     102002.7      46.7237      46.7237      46.7237 
   44000    91.380253   -11621.602   -10727.354    295.80114     102002.7      46.7237      46.7237      46.7237 
   45000    88.433459   -11645.419    -10780.01    462.24991     102002.7      46.7237      46.7237      46.7237 
   46000    91.117488   -11634.304   -10742.629    102.66147     102002.7      46.7237      46.7237      46.7237 
   47000    91.751767   -11613.034   -10715.152     271.3337     102002.7      46.7237      46.7237      46.7237 
   48000    90.604634   -11630.259   -10743.602    449.14552     102002.7      46.7237      46.7237      46.7237 
   49000    90.273285   -11615.364    -10731.95    195.36954     102002.7      46.7237      46.7237      46.7237 
   50000    91.131046    -11615.77   -10723.961    101.97642     102002.7      46.7237      46.7237      46.7237 
   51000    92.009621    -11623.06   -10722.653    39.418058     102002.7      46.7237      46.7237      46.7237 
   52000    90.349034   -11629.235   -10745.079    190.22796     102002.7      46.7237      46.7237      46.7237 
   53000     90.53656   -11633.871   -10747.881    63.878105     102002.7      46.7237      46.7237      46.7237 
   54000    90.567373   -11645.425   -10759.133   -65.795709     102002.7      46.7237      46.7237      46.7237 
   55000    92.967606   -11634.017   -10724.236    145.00464     102002.7      46.7237      46.7237      46.7237 
   56000    92.495725   -11624.433    -10719.27   -119.35958     102002.7      46.7237      46.7237      46.7237 
   57000    90.327594   -11644.216   -10760.271    236.64425     102002.7      46.7237      46.7237      46.7237 
   58000    91.003119    -11614.84   -10724.283    253.14382     102002.7      46.7237      46.7237      46.7237 
   59000    89.604344   -11624.573   -10747.705    154.65994     102002.7      46.7237      46.7237      46.7237 
   60000    91.240345   -11634.605   -10741.727    126.72505     102002.7      46.7237      46.7237      46.7237 
   61000    90.738632   -11610.904   -10722.935    109.88896     102002.7      46.7237      46.7237      46.7237 
   62000    91.686871   -11641.952   -10744.705    218.77647     102002.7      46.7237      46.7237      46.7237 
   63000     91.21666   -11647.025   -10754.379    -15.95307     102002.7      46.7237      46.7237      46.7237 
   64000    90.345603   -11639.226   -10755.104    21.950642     102002.7      46.7237      46.7237      46.7237 
   65000     91.17348   -11647.504    -10755.28    482.42864     102002.7      46.7237      46.7237      46.7237 
   66000    91.898045   -11632.557   -10733.243    229.50467     102002.7      46.7237      46.7237      46.7237 
   67000    91.529606   -11624.009     -10728.3    311.19948     102002.7      46.7237      46.7237      46.7237 
   68000    91.206264   -11633.737   -10741.192    90.095974     102002.7      46.7237      46.7237      46.7237 
   69000    90.122273   -11631.762   -10749.825    456.24434     102002.7      46.7237      46.7237      46.7237 
   70000    92.519075   -11625.991   -10720.599    329.27882     102002.7      46.7237      46.7237      46.7237 
   71000    92.573117   -11646.874   -10740.953    272.25372     102002.7      46.7237      46.7237      46.7237 
   72000    89.089643   -11624.596   -10752.765    405.66554     102002.7      46.7237      46.7237      46.7237 
   73000    90.092681   -11618.116   -10736.469    474.84217     102002.7      46.7237      46.7237      46.7237 
   74000    90.092714   -11658.553   -10776.906    358.40651     102002.7      46.7237      46.7237      46.7237 
   75000    91.172276   -11632.312   -10740.101    352.87791     102002.7      46.7237      46.7237      46.7237 
   76000    89.290289   -11628.084    -10754.29    491.74178     102002.7      46.7237      46.7237      46.7237 
   77000    90.157307   -11655.755   -10773.475    221.40359     102002.7      46.7237      46.7237      46.7237 
   78000    90.065628   -11650.887   -10769.505    428.77618     102002.7      46.7237      46.7237      46.7237 
   79000    90.183636   -11646.374   -10763.837    175.30354     102002.7      46.7237      46.7237      46.7237 
   80000    91.895613   -11627.175   -10727.885    131.73682     102002.7      46.7237      46.7237      46.7237 
   81000    91.601734   -11632.617   -10736.203    249.86369     102002.7      46.7237      46.7237      46.7237 
   82000     90.00351   -11652.422   -10771.648   -76.661785     102002.7      46.7237      46.7237      46.7237 
   83000    92.306146   -11641.057   -10737.749    287.54455     102002.7      46.7237      46.7237      46.7237 
   84000    90.471794   -11629.643   -10744.286    134.31189     102002.7      46.7237      46.7237      46.7237 
   85000    89.543076   -11655.113   -10778.844    105.16607     102002.7      46.7237      46.7237      46.7237 
   86000    91.325121   -11610.127   -10716.419    272.18803     102002.7      46.7237      46.7237      46.7237 
   87000    89.296297    -11624.49   -10750.636    100.72785     102002.7      46.7237      46.7237      46.7237 
   88000    89.677425   -11644.989   -10767.406    451.20989     102002.7      46.7237      46.7237      46.7237 
   89000    90.704449   -11643.814    -10756.18    341.93102     102002.7      46.7237      46.7237      46.7237 
   90000    90.168197   -11644.101   -10761.715   -39.255743     102002.7      46.7237      46.7237      46.7237 
   91000    89.952215   -11637.025   -10756.752    347.79914     102002.7      46.7237      46.7237      46.7237 
   92000    93.795063   -11644.328   -10726.449    -41.03737     102002.7      46.7237      46.7237      46.7237 
   93000    92.443284   -11666.418   -10761.768   -112.91179     102002.7      46.7237      46.7237      46.7237 
   94000     91.59146   -11623.322   -10727.008    262.76304     102002.7      46.7237      46.7237      46.7237 
   95000    90.927054   -11622.541   -10732.728    279.79202     102002.7      46.7237      46.7237      46.7237 
   96000    92.752708   -11630.689   -10723.011    33.195641     102002.7      46.7237      46.7237      46.7237 
   97000    91.050617    -11662.03   -10771.008    284.95243     102002.7      46.7237      46.7237      46.7237 
   98000    91.114453   -11640.712   -10749.066     50.03638     102002.7      46.7237      46.7237      46.7237 
   99000    92.342295   -11648.428   -10744.767   -21.284024     102002.7      46.7237      46.7237      46.7237 
  100000    92.031404   -11643.849    -10743.23    293.08427     102002.7      46.7237      46.7237      46.7237 
  101000    87.948791    -11644.65   -10783.983   -41.462666     102002.7      46.7237      46.7237      46.7237 
  102000    90.582691   -11636.786   -10750.344    108.40778     102002.7      46.7237      46.7237      46.7237 
  103000    91.068216   -11622.121   -10730.927    403.07708     102002.7      46.7237      46.7237      46.7237 
  104000    92.000704   -11624.454   -10724.135   -50.166958     102002.7      46.7237      46.7237      46.7237 
  105000    90.127685   -11658.395   -10776.405    136.60195     102002.7      46.7237      46.7237      46.7237 
  106000    91.172252    -11639.38   -10747.168    220.53796     102002.7      46.7237      46.7237      46.7237 
  107000    92.499011   -11624.769   -10719.574   -16.143302     102002.7      46.7237      46.7237      46.7237 
  108000    91.226312   -11660.248   -10767.507    342.73909     102002.7      46.7237      46.7237      46.7237 
  109000    94.621243   -11629.018   -10703.055    148.68064     102002.7      46.7237      46.7237      46.7237 
  110000     91.58562    -11651.39   -10755.133    42.151864     102002.7      46.7237      46.7237      46.7237 
  111000    90.402971   -11660.307   -10775.624    176.68551     102002.7      46.7237      46.7237      46.7237 
  112000     92.71749    -11637.38   -10730.046    389.11015     102002.7      46.7237      46.7237      46.7237 
  113000    94.430493   -11663.855   -10739.758    349.94866     102002.7      46.7237      46.7237      46.7237 
  114000    91.074972   -11646.838   -10755.578    411.04897     102002.7      46.7237      46.7237      46.7237 
  115000     89.05882    -11654.49   -10782.961    107.74007     102002.7      46.7237      46.7237      46.7237 
  116000    89.993687   -11629.469   -10748.791    152.81453     102002.7      46.7237      46.7237      46.7237 
  117000    89.453327   -11636.251   -10760.861    367.12216     102002.7      46.7237      46.7237      46.7237 
  118000    90.135787   -11631.117   -10749.048    187.02773     102002.7      46.7237      46.7237      46.7237 
  119000    91.349285   -11658.358   -10764.414    300.71018     102002.7      46.7237      46.7237      46.7237 
  120000    90.061872   -11631.711   -10750.365    320.60581     102002.7      46.7237      46.7237      46.7237 
  121000    92.580385   -11644.326   -10738.334     28.68681     102002.7      46.7237      46.7237      46.7237 
  122000    90.504378   -11644.476     -10758.8   -89.839082     102002.7      46.7237      46.7237      46.7237 
  123000    91.158173   -11661.206   -10769.132    239.38714     102002.7      46.7237      46.7237      46.7237 
  124000    93.662481   -11657.551    -10740.97    230.07796     102002.7      46.7237      46.7237      46.7237 
  125000    88.395164   -11663.649   -10798.614   -136.47681     102002.7      46.7237      46.7237      46.7237 
  126000    90.127651    -11658.59   -10776.601   -94.353809     102002.7      46.7237      46.7237      46.7237 
  127000    89.409225   -11646.898   -10771.939    23.032873     102002.7      46.7237      46.7237      46.7237 
  128000    89.713548   -11628.775   -10750.838    233.92151     102002.7      46.7237      46.7237      46.7237 
  129000     89.49282   -11632.993   -10757.217    84.260941     102002.7      46.7237      46.7237      46.7237 
  130000    92.943723   -11652.262   -10742.714    101.78153     102002.7      46.7237      46.7237      46.7237 
  131000    91.933555   -11641.344   -10741.683    342.27455     102002.7      46.7237      46.7237      46.7237 
  132000    90.341141   -11651.747   -10767.668     120.5147     102002.7      46.7237      46.7237      46.7237 
  133000    90.615055   -11661.888   -10775.129    110.56603     102002.7      46.7237      46.7237      46.7237 
  134000    89.419034   -11656.757   -10781.703    298.35167     102002.7      46.7237      46.7237      46.7237 
  135000    92.019715   -11644.001   -10743.496    129.26206     102002.7      46.7237      46.7237      46.7237 
  136000    91.079676   -11649.398   -10758.092    252.52248     102002.7      46.7237      46.7237      46.7237 
  137000    94.318889   -11635.892   -10712.887   -65.863804     102002.7      46.7237      46.7237      46.7237 
  138000    89.380679   -11637.592   -10762.913    62.778945     102002.7      46.7237      46.7237      46.7237 
  139000    90.835592   -11624.072   -10735.155    281.60913     102002.7      46.7237      46.7237      46.7237 
  140000      89.0987   -11616.442   -10744.523    129.78804     102002.7      46.7237      46.7237      46.7237 
  141000    91.667343   -11669.339   -10772.283    389.84155     102002.7      46.7237      46.7237      46.7237 
  142000    92.174198   -11640.943   -10738.926    639.02558     102002.7      46.7237      46.7237      46.7237 
  143000    90.965732   -11652.454   -10762.263    297.14009     102002.7      46.7237      46.7237      46.7237 
  144000    92.242866   -11640.152   -10737.464    161.25496     102002.7      46.7237      46.7237      46.7237 
  145000    94.452235   -11633.972   -10709.662    239.22065     102002.7      46.7237      46.7237      46.7237 
  146000    90.060743   -11636.229   -10754.894    373.61001     102002.7      46.7237      46.7237      46.7237 
  147000    91.893873   -11643.706   -10744.433    180.23277     102002.7      46.7237      46.7237      46.7237 
  148000    91.335953   -11608.348   -10714.534    231.31525     102002.7      46.7237      46.7237      46.7237 
  149000    90.506523   -11643.969   -10758.272    250.93488     102002.7      46.7237      46.7237      46.7237 
  150000    92.250645   -11622.394   -10719.629    395.31272     102002.7      46.7237      46.7237      46.7237 
  151000     89.94563    -11651.43   -10771.222    457.07804     102002.7      46.7237      46.7237      46.7237 
  152000    91.814961   -11634.971    -10736.47    229.78699     102002.7      46.7237      46.7237      46.7237 
  153000    91.142027   -11651.023   -10759.107    228.58614     102002.7      46.7237      46.7237      46.7237 
  154000    91.828728    -11660.98   -10762.344    257.91873     102002.7      46.7237      46.7237      46.7237 
  155000    90.353684   -11640.619   -10756.418   -99.684481     102002.7      46.7237      46.7237      46.7237 
  156000    90.942673   -11638.368   -10748.403    290.13423     102002.7      46.7237      46.7237      46.7237 
  157000    92.785018   -11645.118   -10737.124     94.65191     102002.7      46.7237      46.7237      46.7237 
  158000     90.64041   -11656.762   -10769.755   -240.49848     102002.7      46.7237      46.7237      46.7237 
  159000    90.066626   -11666.671   -10785.279    217.49152     102002.7      46.7237      46.7237      46.7237 
  160000    90.561396   -11630.729   -10744.495   -32.755776     102002.7      46.7237      46.7237      46.7237 
  161000    92.072234   -11654.069    -10753.05    252.58065     102002.7      46.7237      46.7237      46.7237 
  162000    90.503152   -11660.111   -10774.447    336.47632     102002.7      46.7237      46.7237      46.7237 
  163000    91.810204   -11641.338   -10742.884    372.25066     102002.7      46.7237      46.7237      46.7237 
  164000    89.116877    -11646.02   -10773.922    127.46608     102002.7      46.7237      46.7237      46.7237 
  165000    89.997675   -11631.482   -10750.765     226.5178     102002.7      46.7237      46.7237      46.7237 
  166000    94.182789   -11640.842   -10719.169    458.60911     102002.7      46.7237      46.7237      46.7237 
  167000    89.262045   -11665.674   -10792.156    174.34998     102002.7      46.7237      46.7237      46.7237 
  168000    90.218237   -11649.538   -10766.663    146.32529     102002.7      46.7237      46.7237      46.7237 
  169000    91.122474   -11654.156   -10762.432    -11.21984     102002.7      46.7237      46.7237      46.7237 
  170000    90.311815   -11636.063   -10752.271    255.31898     102002.7      46.7237      46.7237      46.7237 
  171000    89.282217   -11637.285   -10763.569    266.16425     102002.7      46.7237      46.7237      46.7237 
  172000    91.558175   -11666.838    -10770.85    336.39652     102002.7      46.7237      46.7237      46.7237 
  173000    91.359804   -11628.902   -10734.855    338.94423     102002.7      46.7237      46.7237      46.7237 
  174000    87.846783   -11632.094   -10772.425    375.33911     102002.7      46.7237      46.7237      46.7237 
  175000    91.551091   -11636.806   -10740.887    362.96195     102002.7      46.7237      46.7237      46.7237 
  176000    93.088332   -11651.249   -10740.286    353.51723     102002.7      46.7237      46.7237      46.7237 
  177000    90.675457   -11627.114   -10739.764    257.77708     102002.7      46.7237      46.7237      46.7237 
  178000    92.504099   -11664.362   -10759.117    70.227176     102002.7      46.7237      46.7237      46.7237 
  179000     90.96472   -11659.655   -10769.474    294.54569     102002.7      46.7237      46.7237      46.7237 
  180000    91.954466   -11654.676    -10754.81    386.21089     102002.7      46.7237      46.7237      46.7237 
  181000    90.205338    -11648.15   -10765.401    171.91761     102002.7      46.7237      46.7237      46.7237 
  182000    90.421883   -11640.069   -10755.201    216.66849     102002.7      46.7237      46.7237      46.7237 
  183000    89.593375   -11653.918   -10777.157    153.23574     102002.7      46.7237      46.7237      46.7237 
  184000    92.669732   -11669.304   -10762.438   -119.95983     102002.7      46.7237      46.7237      46.7237 
  185000     91.66466   -11643.667   -10746.637    395.16468     102002.7      46.7237      46.7237      46.7237 
  186000    90.802168   -11638.807   -10750.217    175.34896     102002.7      46.7237      46.7237      46.7237 
  187000    89.342152   -11650.797   -10776.495    79.144977     102002.7      46.7237      46.7237      46.7237 
  188000    90.387648   -11646.796   -10762.263    407.86757     102002.7      46.7237      46.7237      46.7237 
  189000    90.875389    -11670.62   -10781.313    79.710213     102002.7      46.7237      46.7237      46.7237 
  190000    89.650288   -11656.916   -10779.599    117.46644     102002.7      46.7237      46.7237      46.7237 
  191000    90.863435   -11669.741   -10780.551    574.57419     102002.7      46.7237      46.7237      46.7237 
  192000     89.41887   -11668.503    -10793.45    52.190411     102002.7      46.7237      46.7237      46.7237 
  193000    92.760823   -11656.129   -10748.372    326.16567     102002.7      46.7237      46.7237      46.7237 
  194000    91.870059   -11627.866   -10728.825    218.14729     102002.7      46.7237      46.7237      46.7237 
  195000    91.365884   -11652.747   -10758.641    88.148515     102002.7      46.7237      46.7237      46.7237 
  196000     91.94603   -11651.968   -10752.184    71.850371     102002.7      46.7237      46.7237      46.7237 
  197000    91.214836   -11669.911   -10777.282    242.58409     102002.7      46.7237      46.7237      46.7237 
  198000    93.084248   -11642.637   -10731.715    435.19842     102002.7      46.7237      46.7237      46.7237 
  199000    92.644779   -11669.726   -10763.104    131.75767     102002.7      46.7237      46.7237      46.7237 
  200000    91.192273   -11658.834   -10766.426    389.39853     102002.7      46.7237      46.7237      46.7237 
  201000    91.018336    -11672.16   -10781.454    349.28515     102002.7      46.7237      46.7237      46.7237 
  202000    91.096352   -11667.732   -10776.263    191.16409     102002.7      46.7237      46.7237      46.7237 
  203000     90.97768   -11685.314   -10795.007    193.12922     102002.7      46.7237      46.7237      46.7237 
  204000    91.090657   -11673.764   -10782.351    398.16894     102002.7      46.7237      46.7237      46.7237 
  205000    91.212548   -11671.157   -10778.551    305.85529     102002.7      46.7237      46.7237      46.7237 
  206000    90.977538   -11640.994   -10750.688    150.14496     102002.7      46.7237      46.7237      46.7237 
  207000    91.691247   -11661.681    -10764.39    192.12194     102002.7      46.7237      46.7237      46.7237 
  208000    89.347496   -11673.678   -10799.323    71.366966     102002.7      46.7237      46.7237      46.7237 
  209000    90.931557   -11647.015   -10757.159    193.44743     102002.7      46.7237      46.7237      46.7237 
  210000    88.060878   -11659.306   -10797.542    320.24576     102002.7      46.7237      46.7237      46.7237 
  211000    92.270639   -11665.732   -10762.772    121.81663     102002.7      46.7237      46.7237      46.7237 
  212000    89.171763   -11661.544   -10788.909    347.69909     102002.7      46.7237      46.7237      46.7237 
  213000    90.889818    -11653.24   -10763.792    132.33265     102002.7      46.7237      46.7237      46.7237 
  214000    89.583717   -11640.395   -10763.729    305.30846     102002.7      46.7237      46.7237      46.7237 
  215000    90.646196   -11654.767   -10767.703    222.73773     102002.7      46.7237      46.7237      46.7237 
  216000    92.039751   -11651.381   -10750.681     312.5837     102002.7      46.7237      46.7237      46.7237 
  217000    91.411678   -11669.919   -10775.364    360.92329     102002.7      46.7237      46.7237      46.7237 
  218000    91.825539   -11659.065   -10760.461    309.29472     102002.7      46.7237      46.7237      46.7237 
  219000    91.472836    -11641.98   -10746.827    64.791403     102002.7      46.7237      46.7237      46.7237 
  220000    93.719512    -11649.87   -10732.731    304.92371     102002.7      46.7237      46.7237      46.7237 
  221000    89.829065   -11642.719   -10763.652     230.9594     102002.7      46.7237      46.7237      46.7237 
  222000    91.643526    -11648.67   -10751.846    409.05905     102002.7      46.7237      46.7237      46.7237 
  223000    90.472215   -11631.717   -10746.356    300.20689     102002.7      46.7237      46.7237      46.7237 
  224000    91.655553   -11656.204   -10759.263    321.95439     102002.7      46.7237      46.7237      46.7237 
  225000    90.853338   -11647.779   -10758.688    307.71152     102002.7      46.7237      46.7237      46.7237 
  226000    91.376151     -11668.8   -10774.593    270.40362     102002.7      46.7237      46.7237      46.7237 
  227000    90.010803   -11664.314   -10783.468   -85.133928     102002.7      46.7237      46.7237      46.7237 
  228000    91.957839   -11668.913   -10769.013    364.62475     102002.7      46.7237      46.7237      46.7237 
  229000     89.52638   -11658.366   -10782.261    224.77938     102002.7      46.7237      46.7237      46.7237 
  230000     91.48771   -11653.687   -10758.389     87.18374     102002.7      46.7237      46.7237      46.7237 
  231000    91.139467   -11661.098   -10769.207    82.285555     102002.7      46.7237      46.7237      46.7237 
  232000    90.706067   -11651.977   -10764.327   -50.564078     102002.7      46.7237      46.7237      46.7237 
  233000    89.311515   -11667.386   -10793.384    183.15819     102002.7      46.7237      46.7237      46.7237 
  234000    89.715261   -11640.327   -10762.374     234.8685     102002.7      46.7237      46.7237      46.7237 
  235000    93.530583   -11651.775   -10736.485     252.0093     102002.7      46.7237      46.7237      46.7237 
  236000    90.544291   -11653.568   -10767.502    388.73348     102002.7      46.7237      46.7237      46.7237 
  237000    89.304189   -11664.824   -10790.894   -40.210021     102002.7      46.7237      46.7237      46.7237 
  238000    91.879696   -11654.634     -10755.5    363.19075     102002.7      46.7237      46.7237      46.7237 
  239000    90.059468   -11657.162   -10775.841    700.32141     102002.7      46.7237      46.7237      46.7237 
  240000    91.291832   -11641.157   -10747.775    356.36034     102002.7      46.7237      46.7237      46.7237 
  241000    90.698581   -11670.645   -10783.069   -18.961434     102002.7      46.7237      46.7237      46.7237 
  242000    92.673575   -11669.406   -10762.503    154.83264     102002.7      46.7237      46.7237      46.7237 
  243000     90.60784   -11670.252   -10783.563    123.43545     102002.7      46.7237      46.7237      46.7237 
  244000    90.521791   -11675.452   -10789.606    185.00903     102002.7      46.7237      46.7237      46.7237 
  245000    89.982608   -11656.115   -10775.545     84.10615     102002.7      46.7237      46.7237      46.7237 
  246000    92.094461   -11660.754   -10759.518    353.50424     102002.7      46.7237      46.7237      46.7237 
  247000    92.225718   -11666.749   -10764.228    257.72902     102002.7      46.7237      46.7237      46.7237 
  248000    90.808175   -11659.178    -10770.53    8.8930903     102002.7      46.7237      46.7237      46.7237 
  249000    91.770198    -11639.06   -10740.997    234.62528     102002.7      46.7237      46.7237      46.7237 
  250000     91.54809    -11660.17    -10764.28    277.34018     102002.7      46.7237      46.7237      46.7237 
  251000    91.525723   -11664.886   -10769.216    487.29053     102002.7      46.7237      46.7237      46.7237 
  252000    92.193088   -11672.326   -10770.125    516.91729     102002.7      46.7237      46.7237      46.7237 
  253000    89.718318   -11652.451   -10774.467    128.52867     102002.7      46.7237      46.7237      46.7237 
  254000    90.553453   -11661.275   -10775.119    401.92796     102002.7      46.7237      46.7237      46.7237 
  255000    89.886387     -11666.2   -10786.572    192.99848     102002.7      46.7237      46.7237      46.7237 
  256000     90.29582   -11651.466   -10767.831    254.79726     102002.7      46.7237      46.7237      46.7237 
  257000    89.541609   -11639.574    -10763.32    248.41069     102002.7      46.7237      46.7237      46.7237 
  258000    90.341557   -11656.902    -10772.82    302.32024     102002.7      46.7237      46.7237      46.7237 
  259000    92.230192   -11666.879   -10764.314    375.43841     102002.7      46.7237      46.7237      46.7237 
  260000    90.669982   -11670.657   -10783.361    118.24111     102002.7      46.7237      46.7237      46.7237 
  261000    92.593286   -11661.688    -10755.57     201.6687     102002.7      46.7237      46.7237      46.7237 
  262000    92.767315    -11655.62   -10747.799    487.20728     102002.7      46.7237      46.7237      46.7237 
  263000    89.078116   -11646.886   -10775.168    376.18721     102002.7      46.7237      46.7237      46.7237 
  264000    88.932786   -11657.821   -10787.524    367.61183     102002.7      46.7237      46.7237      46.7237 
  265000    90.972257   -11667.161   -10776.907    75.440085     102002.7      46.7237      46.7237      46.7237 
  266000    90.782927   -11655.605   -10767.203   -183.97516     102002.7      46.7237      46.7237      46.7237 
  267000    92.194771   -11646.687   -10744.469    345.38994     102002.7      46.7237      46.7237      46.7237 
  268000    91.359934   -11653.207   -10759.159    341.33701     102002.7      46.7237      46.7237      46.7237 
  269000    88.879965   -11677.339    -10807.56    201.32137     102002.7      46.7237      46.7237      46.7237 
  270000    91.403368   -11651.506   -10757.033    180.22532     102002.7      46.7237      46.7237      46.7237 
  271000    91.542328   -11662.655   -10766.822     47.91412     102002.7      46.7237      46.7237      46.7237 
  272000    91.759201   -11642.507   -10744.552    243.41002     102002.7      46.7237      46.7237      46.7237 
  273000    91.374238    -11668.03   -10773.842    111.88594     102002.7      46.7237      46.7237      46.7237 
  274000    92.379977   -11660.624   -10756.594    122.00257     102002.7      46.7237      46.7237      46.7237 
  275000    90.042004   -11660.203   -10779.052    190.89845     102002.7      46.7237      46.7237      46.7237 
  276000    92.024081   -11661.963   -10761.415    263.93309     102002.7      46.7237      46.7237      46.7237 
  277000     88.57138   -11629.953   -10763.193    120.36366     102002.7      46.7237      46.7237      46.7237 
  278000    90.400509   -11641.261   -10756.602    120.26357     102002.7      46.7237      46.7237      46.7237 
  279000    92.000337   -11686.776   -10786.461    352.87529     102002.7      46.7237      46.7237      46.7237 
  280000    92.798624   -11638.316   -10730.189    168.13417     102002.7      46.7237      46.7237      46.7237 
  281000     88.12483   -11641.412   -10779.022     178.5821     102002.7      46.7237      46.7237      46.7237 
  282000    90.463613   -11655.557    -10770.28    255.50788     102002.7      46.7237      46.7237      46.7237 
  283000    90.621312   -11654.688   -10767.868    353.67186     102002.7      46.7237      46.7237      46.7237 
  284000    90.003058   -11635.133   -10754.363    261.85181     102002.7      46.7237      46.7237      46.7237 
  285000    87.646245   -11664.256    -10806.55   -108.40786     102002.7      46.7237      46.7237      46.7237 
  286000    91.767283   -11648.094   -10750.059    375.16829     102002.7      46.7237      46.7237      46.7237 
  287000    91.601187   -11643.252   -10746.843    417.59058     102002.7      46.7237      46.7237      46.7237 
  288000    90.772166   -11659.203   -10770.906    361.47971     102002.7      46.7237      46.7237      46.7237 
  289000    91.614874   -11661.285   -10764.742     359.0612     102002.7      46.7237      46.7237      46.7237 
  290000    89.503625   -11649.973   -10774.091    275.07338     102002.7      46.7237      46.7237      46.7237 
  291000    91.415711   -11671.945   -10777.351    207.16667     102002.7      46.7237      46.7237      46.7237 
  292000    92.493358   -11654.021   -10748.881    719.97713     102002.7      46.7237      46.7237      46.7237 
  293000    88.788746   -11656.868   -10787.981    557.32704     102002.7      46.7237      46.7237      46.7237 
  294000    92.378162   -11639.295   -10735.282    314.75089     102002.7      46.7237      46.7237      46.7237 
  295000    93.058913   -11657.953   -10747.279    382.25776     102002.7      46.7237      46.7237      46.7237 
  296000    90.852677   -11657.309   -10768.225    383.42653     102002.7      46.7237      46.7237      46.7237 
  297000    91.595717   -11654.711   -10758.355    328.18785     102002.7      46.7237      46.7237      46.7237 
  298000     91.33723   -11629.719   -10735.893     282.3947     102002.7      46.7237      46.7237      46.7237 
  299000    90.269342   -11651.438   -10768.062    276.51027     102002.7      46.7237      46.7237      46.7237 
  300000    93.678203   -11642.442   -10725.707    36.260508     102002.7      46.7237      46.7237      46.7237 
  301000    91.516156   -11661.116   -10765.539   -58.520341     102002.7      46.7237      46.7237      46.7237 
  302000    90.101915   -11673.929   -10792.192    385.69902     102002.7      46.7237      46.7237      46.7237 
  303000    92.947733   -11664.286   -10754.699    265.58701     102002.7      46.7237      46.7237      46.7237 
  304000    89.156517   -11642.307   -10769.822    408.76617     102002.7      46.7237      46.7237      46.7237 
  305000     89.01698   -11652.792   -10781.672    521.78587     102002.7      46.7237      46.7237      46.7237 
  306000     90.87881   -11651.471   -10762.131    239.22894     102002.7      46.7237      46.7237      46.7237 
  307000    90.593754   -11632.319   -10745.769    338.35623     102002.7      46.7237      46.7237      46.7237 
  308000    91.876635   -11654.815    -10755.71     402.2053     102002.7      46.7237      46.7237      46.7237 
  309000    90.347299   -11643.846   -10759.708    698.95938     102002.7      46.7237      46.7237      46.7237 
  310000    92.019243   -11637.903   -10737.403    350.08856     102002.7      46.7237      46.7237      46.7237 
  311000    90.393466   -11640.885   -10756.295    274.62901     102002.7      46.7237      46.7237      46.7237 
  312000    93.859732   -11656.689   -10738.178    105.39517     102002.7      46.7237      46.7237      46.7237 
  313000    90.775454    -11649.22   -10760.891    80.945791     102002.7      46.7237      46.7237      46.7237 
  314000    92.140591   -11668.438   -10766.751   -46.327926     102002.7      46.7237      46.7237      46.7237 
  315000    88.745485   -11656.171   -10787.708    459.33365     102002.7      46.7237      46.7237      46.7237 
  316000    90.446447   -11656.786   -10771.677    10.154955     102002.7      46.7237      46.7237      46.7237 
  317000    90.906893   -11645.063   -10755.448     112.8262     102002.7      46.7237      46.7237      46.7237 
  318000     89.01414   -11639.434   -10768.341    456.90154     102002.7      46.7237      46.7237      46.7237 
  319000    89.883657   -11665.906   -10786.304    401.66635     102002.7      46.7237      46.7237      46.7237 
  320000    92.136457    -11656.98   -10755.333    208.88061     102002.7      46.7237      46.7237      46.7237 
  321000    92.050904   -11637.067   -10736.256    135.29775     102002.7      46.7237      46.7237      46.7237 
  322000    92.179195   -11650.296    -10748.23     183.9665     102002.7      46.7237      46.7237      46.7237 
  323000    91.514179   -11651.283   -10755.725    403.28735     102002.7      46.7237      46.7237      46.7237 
  324000    88.518344   -11664.685   -10798.445    220.05975     102002.7      46.7237      46.7237      46.7237 
  325000    91.325056   -11644.569   -10750.862    372.47428     102002.7      46.7237      46.7237      46.7237 
  326000    88.535404   -11660.355   -10793.948    198.32385     102002.7      46.7237      46.7237      46.7237 
  327000    92.004759   -11653.565   -10753.206    289.91278     102002.7      46.7237      46.7237      46.7237 
  328000    91.282328   -11670.057   -10776.769    17.029512     102002.7      46.7237      46.7237      46.7237 
  329000    92.693182   -11651.568   -10744.473   -88.171041     102002.7      46.7237      46.7237      46.7237 
  330000    88.516964   -11649.233   -10783.006    191.49842     102002.7      46.7237      46.7237      46.7237 
  331000    90.361927   -11649.819   -10765.537    243.81006     102002.7      46.7237      46.7237      46.7237 
  332000    91.585647   -11654.731   -10758.474    41.296565     102002.7      46.7237      46.7237      46.7237 
  333000    88.936482   -11637.182   -10766.849    396.53266     102002.7      46.7237      46.7237      46.7237 
  334000    91.815338   -11653.298   -10754.793    104.57054     102002.7      46.7237      46.7237      46.7237 
  335000    90.621339   -11646.318   -10759.497    322.70963     102002.7      46.7237      46.7237      46.7237 
  336000    92.545309    -11643.45   -10737.802    241.30301     102002.7      46.7237      46.7237      46.7237 
  337000     89.27597   -11646.163   -10772.508    102.28652     102002.7      46.7237      46.7237      46.7237 
  338000    91.146385   -11636.096   -10744.137    384.61626     102002.7      46.7237      46.7237      46.7237 
  339000    91.196294    -11637.68   -10745.233      469.026     102002.7      46.7237      46.7237      46.7237 
  340000    88.784376   -11656.526   -10787.682    110.40416     102002.7      46.7237      46.7237      46.7237 
  341000    89.151249   -11654.084    -10781.65    96.182083     102002.7      46.7237      46.7237      46.7237 
  342000    91.285433       -11632    -10738.68    200.24762     102002.7      46.7237      46.7237      46.7237 
  343000    91.496017   -11662.019   -10766.639   -140.26901     102002.7      46.7237      46.7237      46.7237 
  344000    90.480711   -11651.414    -10765.97    297.94071     102002.7      46.7237      46.7237      46.7237 
  345000    88.579619   -11619.188   -10752.348    620.20144     102002.7      46.7237      46.7237      46.7237 
  346000    90.305408   -11648.334   -10764.605    367.15449     102002.7      46.7237      46.7237      46.7237 
  347000    93.067094   -11674.102   -10763.347    321.64852     102002.7      46.7237      46.7237      46.7237 
  348000    89.298796   -11647.923   -10774.045    146.46596     102002.7      46.7237      46.7237      46.7237 
  349000    89.974347   -11658.147   -10777.658    186.53893     102002.7      46.7237      46.7237      46.7237 
  350000    92.649852   -11662.349   -10755.678    575.75295     102002.7      46.7237      46.7237      46.7237 
  351000    90.157581   -11659.217   -10776.935    467.84064     102002.7      46.7237      46.7237      46.7237 
  352000    88.357696   -11652.955   -10788.287    284.39521     102002.7      46.7237      46.7237      46.7237 
  353000    89.423757    -11634.66   -10759.559    412.39573     102002.7      46.7237      46.7237      46.7237 
  354000    90.963967   -11663.337   -10773.163    95.284418     102002.7      46.7237      46.7237      46.7237 
  355000    91.242231   -11673.965   -10781.068    22.302062     102002.7      46.7237      46.7237      46.7237 
  356000    90.175609   -11620.183   -10737.725    365.35279     102002.7      46.7237      46.7237      46.7237 
  357000    91.093577   -11650.761   -10759.319    388.34515     102002.7      46.7237      46.7237      46.7237 
  358000    88.676355   -11659.714   -10791.928    282.83964     102002.7      46.7237      46.7237      46.7237 
  359000    90.946383   -11666.013   -10776.011    274.28374     102002.7      46.7237      46.7237      46.7237 
  360000    90.687138   -11659.387   -10771.922    278.35349     102002.7      46.7237      46.7237      46.7237 
  361000     91.09654   -11664.505   -10773.034    60.112544     102002.7      46.7237      46.7237      46.7237 
  362000     90.84466   -11664.487   -10775.481    305.72943     102002.7      46.7237      46.7237      46.7237 
  363000      88.2566   -11660.495   -10796.816    364.84068     102002.7      46.7237      46.7237      46.7237 
  364000    91.762706   -11657.468   -10759.479     199.0445     102002.7      46.7237      46.7237      46.7237 
  365000    91.323659   -11633.426   -10739.733    290.49529     102002.7      46.7237      46.7237      46.7237 
  366000    92.144263   -11660.038   -10758.314   -58.450124     102002.7      46.7237      46.7237      46.7237 
  367000    90.392397   -11668.245   -10783.665    244.93798     102002.7      46.7237      46.7237      46.7237 
  368000     90.75115   -11622.887   -10734.796    395.15217     102002.7      46.7237      46.7237      46.7237 
  369000    90.913082   -11638.557   -10748.881    294.65883     102002.7      46.7237      46.7237      46.7237 
  370000    92.393355   -11680.459   -10776.298     132.1285     102002.7      46.7237      46.7237      46.7237 
  371000    93.227345   -11664.665   -10752.342    209.98719     102002.7      46.7237      46.7237      46.7237 
  372000    91.440205    -11667.99   -10773.156    291.83136     102002.7      46.7237      46.7237      46.7237 
  373000    88.238372   -11636.807   -10773.306    134.87204     102002.7      46.7237      46.7237      46.7237 
  374000    90.163899   -11633.218   -10750.874    535.82852     102002.7      46.7237      46.7237      46.7237 
  375000    90.118984   -11644.598   -10762.694    286.27068     102002.7      46.7237      46.7237      46.7237 
  376000    89.214501   -11669.989   -10796.936     171.7713     102002.7      46.7237      46.7237      46.7237 
  377000    93.148389   -11658.683   -10747.133    189.79562     102002.7      46.7237      46.7237      46.7237 
  378000    91.397231    -11645.96   -10751.547    356.01921     102002.7      46.7237      46.7237      46.7237 
  379000    89.553113   -11657.638   -10781.271    260.07672     102002.7      46.7237      46.7237      46.7237 
  380000    89.905569   -11641.831   -10762.015    393.41316     102002.7      46.7237      46.7237      46.7237 
  381000    91.508235   -11660.634   -10765.135    123.03136     102002.7      46.7237      46.7237      46.7237 
  382000    91.730068   -11630.451   -10732.781    372.73743     102002.7      46.7237      46.7237      46.7237 
  383000    91.730894   -11641.387   -10743.709    6.9925798     102002.7      46.7237      46.7237      46.7237 
  384000    88.769746   -11672.422   -10803.722    17.900917     102002.7      46.7237      46.7237      46.7237 
  385000    90.374215   -11638.861   -10754.459    307.47822     102002.7      46.7237      46.7237      46.7237 
  386000    91.485005   -11662.104   -10766.832    402.45908     102002.7      46.7237      46.7237      46.7237 
  387000    89.095922   -11654.429   -10782.537    351.67167     102002.7      46.7237      46.7237      46.7237 
  388000    91.955227   -11655.312   -10755.438   -28.729889     102002.7      46.7237      46.7237      46.7237 
  389000    92.853656    -11660.03   -10751.364     126.0439     102002.7      46.7237      46.7237      46.7237 
  390000    89.077576   -11663.861   -10792.148    244.48685     102002.7      46.7237      46.7237      46.7237 
  391000    91.826479   -11632.956   -10734.342    69.121801     102002.7      46.7237      46.7237      46.7237 
  392000    89.643087   -11652.915   -10775.668    429.73701     102002.7      46.7237      46.7237      46.7237 
  393000    92.333035   -11649.696   -10746.125    120.90754     102002.7      46.7237      46.7237      46.7237 
  394000    89.558956   -11647.479   -10771.056    88.552553     102002.7      46.7237      46.7237      46.7237 
  395000    90.411355   -11645.856   -10761.091    581.28687     102002.7      46.7237      46.7237      46.7237 
  396000    90.132294    -11653.04   -10771.005    319.22295     102002.7      46.7237      46.7237      46.7237 
  397000    91.732043   -11631.785   -10734.095    265.51782     102002.7      46.7237      46.7237      46.7237 
  398000    90.797221    -11671.86   -10783.318    278.09072     102002.7      46.7237      46.7237      46.7237 
  399000    92.221355   -11648.463   -10745.985    21.089245     102002.7      46.7237      46.7237      46.7237 
  400000    89.407631   -11655.535   -10780.592    -4.109588     102002.7      46.7237      46.7237      46.7237 
  401000    89.336047   -11638.892    -10764.65    312.89372     102002.7      46.7237      46.7237      46.7237 
  402000    91.856499   -11667.071   -10768.163    244.15784     102002.7      46.7237      46.7237      46.7237 
  403000    91.121042   -11661.756   -10770.046    93.176026     102002.7      46.7237      46.7237      46.7237 
  404000    92.277471   -11646.255   -10743.227    324.96498     102002.7      46.7237      46.7237      46.7237 
  405000    90.661923   -11644.634   -10757.416    260.90766     102002.7      46.7237      46.7237      46.7237 
  406000    93.262537   -11656.743   -10744.075    385.59178     102002.7      46.7237      46.7237      46.7237 
  407000       92.846   -11666.865   -10758.274    357.08875     102002.7      46.7237      46.7237      46.7237 
  408000    89.073479   -11659.996   -10788.323    683.78512     102002.7      46.7237      46.7237      46.7237 
  409000    91.158692   -11650.474   -10758.395    340.85323     102002.7      46.7237      46.7237      46.7237 
  410000    89.803585   -11655.821   -10777.003    136.65197     102002.7      46.7237      46.7237      46.7237 
  411000    94.037623   -11668.107   -10747.855    258.51024     102002.7      46.7237      46.7237      46.7237 
  412000    91.807093   -11626.755   -10728.331    308.57216     102002.7      46.7237      46.7237      46.7237 
  413000    89.433265   -11646.557   -10771.363    157.59028     102002.7      46.7237      46.7237      46.7237 
  414000     90.31671   -11669.295   -10785.456     180.0062     102002.7      46.7237      46.7237      46.7237 
  415000    88.296368   -11644.109   -10780.041    348.69174     102002.7      46.7237      46.7237      46.7237 
  416000    90.025655   -11639.677   -10758.686    127.78052     102002.7      46.7237      46.7237      46.7237 
  417000    91.660147   -11660.337   -10763.351    187.41652     102002.7      46.7237      46.7237      46.7237 
  418000    90.584958   -11654.688   -10768.224    415.84297     102002.7      46.7237      46.7237      46.7237 
  419000    91.584773    -11678.27   -10782.022    124.32268     102002.7      46.7237      46.7237      46.7237 
  420000    91.194932   -11662.621   -10770.187    75.888037     102002.7      46.7237      46.7237      46.7237 
  421000    90.287548   -11645.547   -10761.993     314.3581     102002.7      46.7237      46.7237      46.7237 
  422000    90.603362    -11661.96   -10775.316    485.92726     102002.7      46.7237      46.7237      46.7237 
  423000    92.100753   -11659.472   -10758.174     425.0353     102002.7      46.7237      46.7237      46.7237 
  424000    91.881907   -11623.112   -10723.955    73.969942     102002.7      46.7237      46.7237      46.7237 
  425000    90.249313   -11652.607   -10769.427    392.99254     102002.7      46.7237      46.7237      46.7237 
  426000    89.683667   -11640.589   -10762.945    408.73337     102002.7      46.7237      46.7237      46.7237 
  427000    89.136196   -11666.129   -10793.843    168.02183     102002.7      46.7237      46.7237      46.7237 
  428000    92.279201   -11654.585   -10751.541    367.14664     102002.7      46.7237      46.7237      46.7237 
  429000      92.2071   -11647.912   -10745.573    225.13936     102002.7      46.7237      46.7237      46.7237 
  430000    89.486632   -11649.654   -10773.938    409.14986     102002.7      46.7237      46.7237      46.7237 
  431000    90.027751   -11652.134   -10771.123    610.21826     102002.7      46.7237      46.7237      46.7237 
  432000    90.067423   -11649.236   -10767.836    312.75249     102002.7      46.7237      46.7237      46.7237 
  433000    89.580989   -11646.926   -10770.287    285.85307     102002.7      46.7237      46.7237      46.7237 
  434000    91.007543   -11651.819   -10761.219    722.96373     102002.7      46.7237      46.7237      46.7237 
  435000     89.93649   -11660.335   -10780.216    293.56423     102002.7      46.7237      46.7237      46.7237 
  436000    90.510504    -11647.56   -10761.825    141.28809     102002.7      46.7237      46.7237      46.7237 
  437000    88.333989   -11660.089   -10795.652    605.38516     102002.7      46.7237      46.7237      46.7237 
  438000    91.293748   -11654.155   -10760.755    165.93028     102002.7      46.7237      46.7237      46.7237 
  439000    89.567085   -11675.009   -10798.505    370.09422     102002.7      46.7237      46.7237      46.7237 
  440000    91.384987   -11661.126   -10766.832    434.53951     102002.7      46.7237      46.7237      46.7237 
  441000    90.366709     -11650.9   -10766.571    364.63126     102002.7      46.7237      46.7237      46.7237 
  442000     90.20302   -11639.979   -10757.253    228.35051     102002.7      46.7237      46.7237      46.7237 
  443000    92.785061   -11655.586   -10747.591    250.64493     102002.7      46.7237      46.7237      46.7237 
  444000    91.370648   -11658.677   -10764.524     129.5416     102002.7      46.7237      46.7237      46.7237 
  445000    89.227275   -11664.084   -10790.906    473.95091     102002.7      46.7237      46.7237      46.7237 
  446000     92.80478   -11652.493   -10744.306    474.28381     102002.7      46.7237      46.7237      46.7237 
  447000    90.053491     -11670.3   -10789.036    390.72087     102002.7      46.7237      46.7237      46.7237 
  448000    90.008834   -11647.564   -10766.738    280.39988     102002.7      46.7237      46.7237      46.7237 
  449000    89.739378   -11647.392   -10769.202    294.56734     102002.7      46.7237      46.7237      46.7237 
  450000     91.21721   -11634.042    -10741.39    375.84361     102002.7      46.7237      46.7237      46.7237 
  451000     90.50366   -11650.101   -10764.432    125.51057     102002.7      46.7237      46.7237      46.7237 
  452000    91.223836   -11652.972   -10760.255    264.83276     102002.7      46.7237      46.7237      46.7237 
  453000    90.847046   -11665.054   -10776.025    86.751357     102002.7      46.7237      46.7237      46.7237 
  454000     89.80081   -11668.393   -10789.602    333.32553     102002.7      46.7237      46.7237      46.7237 
  455000    91.503209   -11664.886   -10769.436    467.75374     102002.7      46.7237      46.7237      46.7237 
  456000    91.392738   -11669.561   -10775.191    192.29669     102002.7      46.7237      46.7237      46.7237 
  457000    91.584099   -11673.589   -10777.347    114.41964     102002.7      46.7237      46.7237      46.7237 
  458000    90.667188   -11628.477   -10741.208    205.63121     102002.7      46.7237      46.7237      46.7237 
  459000     90.31166   -11642.665   -10758.875    612.88631     102002.7      46.7237      46.7237      46.7237 
  460000    92.694608   -11637.295   -10730.186    209.56322     102002.7      46.7237      46.7237      46.7237 
  461000    93.436595   -11665.518   -10751.148    288.50468     102002.7      46.7237      46.7237      46.7237 
  462000    90.351915   -11659.094    -10774.91    383.48952     102002.7      46.7237      46.7237      46.7237 
  463000    91.247526   -11649.539    -10756.59    242.00666     102002.7      46.7237      46.7237      46.7237 
  464000    92.087479   -11676.676   -10775.508    304.64058     102002.7      46.7237      46.7237      46.7237 
  465000    92.072368   -11673.055   -10772.035      482.617     102002.7      46.7237      46.7237      46.7237 
  466000    92.434497   -11654.859   -10750.295    145.01601     102002.7      46.7237      46.7237      46.7237 
  467000    87.519577   -11649.602   -10793.136    284.97843     102002.7      46.7237      46.7237      46.7237 
  468000    89.490081   -11666.451   -10790.701    323.58807     102002.7      46.7237      46.7237      46.7237 
  469000    93.709101   -11660.181   -10743.144    295.49934     102002.7      46.7237      46.7237      46.7237 
  470000    87.615794   -11641.045   -10783.637    330.06937     102002.7      46.7237      46.7237      46.7237 
  471000    89.442304   -11633.176   -10757.893    237.48539     102002.7      46.7237      46.7237      46.7237 
  472000    89.861109   -11647.404   -10768.024    210.84054     102002.7      46.7237      46.7237      46.7237 
  473000    91.721079    -11637.11   -10739.527    459.85096     102002.7      46.7237      46.7237      46.7237 
  474000    90.458965   -11646.682   -10761.451    103.48243     102002.7      46.7237      46.7237      46.7237 
  475000    92.643666   -11637.021    -10730.41    427.82889     102002.7      46.7237      46.7237      46.7237 
  476000    92.556748   -11631.317   -10725.556    557.56163     102002.7      46.7237      46.7237      46.7237 
  477000    90.146401   -11643.806   -10761.634     398.1219     102002.7      46.7237      46.7237      46.7237 
  478000    91.656313   -11638.073   -10741.124    438.91216     102002.7      46.7237      46.7237      46.7237 
  479000    90.826905   -11641.142    -10752.31    495.94268     102002.7      46.7237      46.7237      46.7237 
  480000    93.405513   -11642.165   -10728.098    266.04353     102002.7      46.7237      46.7237      46.7237 
  481000    89.165452    -11666.14   -10793.567    702.28386     102002.7      46.7237      46.7237      46.7237 
  482000    91.005022   -11649.921   -10759.346    383.91603     102002.7      46.7237      46.7237      46.7237 
  483000    90.517493    -11651.12   -10765.316    523.74399     102002.7      46.7237      46.7237      46.7237 
  484000    90.205659   -11657.506   -10774.753    519.70732     102002.7      46.7237      46.7237      46.7237 
  485000    92.839099   -11630.369   -10721.845    206.48259     102002.7      46.7237      46.7237      46.7237 
  486000    95.060829   -11662.809   -10732.544    447.24672     102002.7      46.7237      46.7237      46.7237 
  487000    91.165595   -11645.937    -10753.79    380.36755     102002.7      46.7237      46.7237      46.7237 
  488000    90.460525   -11643.408   -10758.162    156.43171     102002.7      46.7237      46.7237      46.7237 
  489000    90.378739   -11637.173   -10752.727    440.11058     102002.7      46.7237      46.7237      46.7237 
  490000    92.378554   -11663.266   -10759.249    487.06838     102002.7      46.7237      46.7237      46.7237 
  491000    88.764992   -11653.054     -10784.4    117.52265     102002.7      46.7237      46.7237      46.7237 
  492000    91.452671   -11668.929   -10773.974    233.75133     102002.7      46.7237      46.7237      46.7237 
  493000    91.415732   -11664.488   -10769.894    421.03799     102002.7      46.7237      46.7237      46.7237 
  494000    91.964752   -11638.951   -10738.984     304.7501     102002.7      46.7237      46.7237      46.7237 
  495000    91.246287   -11648.734   -10755.798    236.42878     102002.7      46.7237      46.7237      46.7237 
  496000    91.313412   -11657.008   -10763.415    248.38218     102002.7      46.7237      46.7237      46.7237 
  497000    91.130169   -11641.481   -10749.681    395.50421     102002.7      46.7237      46.7237      46.7237 
  498000    93.336408   -11641.525   -10728.135    272.37321     102002.7      46.7237      46.7237      46.7237 
  499000    92.810739   -11661.281   -10753.035    245.83559     102002.7      46.7237      46.7237      46.7237 
  500000    90.753805   -11639.292   -10751.176    242.44105     102002.7      46.7237      46.7237      46.7237 
  500500    91.989524   -11668.765   -10768.556    137.31821     102002.7      46.7237      46.7237      46.7237 
Loop time of 1898.29 on 16 procs for 500000 steps with 3284 atoms

Performance: 22.757 ns/day, 1.055 hours/ns, 263.394 timesteps/s
99.8% CPU use with 16 MPI tasks x no OpenMP threads

MPI task timing breakdown:
Section |  min time  |  avg time  |  max time  |%varavg| %total
---------------------------------------------------------------
Pair    | 891.22     | 1199.2     | 1476.5     | 470.9 | 63.17
Bond    | 142.58     | 174.95     | 197.57     | 124.7 |  9.22
Neigh   | 14.817     | 14.857     | 14.892     |   0.6 |  0.78
Comm    | 201.87     | 492.25     | 827.22     | 777.8 | 25.93
Output  | 0.021505   | 0.022414   | 0.026851   |   0.8 |  0.00
Modify  | 8.9472     | 10.103     | 11.792     |  26.5 |  0.53
Other   |            | 6.92       |            |       |  0.36

Nlocal:    205.25 ave 233 max 162 min
Histogram: 1 1 1 0 2 1 4 1 2 3
Nghost:    4117.06 ave 4153 max 4078 min
Histogram: 1 1 2 1 2 3 2 1 1 2
Neighs:    11465.7 ave 16798 max 5758 min
Histogram: 2 0 2 2 1 2 3 2 1 1

Total # of neighbors = 183451
Ave neighs/atom = 55.8621
Ave special neighs/atom = 3.50792
Neighbor list builds = 4146
Dangerous builds = 0
Neighbor list info ...
  update every 1 steps, delay 10 steps, check yes
  max neighbors/atom: 2000, page size: 100000
  master list distance cutoff = 16
  ghost atom cutoff = 16
  binsize = 8, bins = 6 6 6
  3 neighbor lists, perpetual/occasional/extra = 3 0 0
  (1) pair buck6d/coul/gauss/dsf, perpetual, skip from (3)
      attributes: half, newton on
      pair build: skip
      stencil: none
      bin: none
  (2) pair lj/cut, perpetual, skip from (3)
      attributes: half, newton on
      pair build: skip
      stencil: none
      bin: none
  (3) neighbor class addition, perpetual
      attributes: half, newton on
      pair build: half/bin/newton
      stencil: half/bin/3d/newton
      bin: standard
Setting up Verlet run ...
  Unit style    : real
  Current step  : 500500
  Time step     : 1
WARNING: Inconsistent image flags (../domain.cpp:786)
Per MPI rank memory allocation (min/avg/max) = 22.8 | 23.28 | 23.44 Mbytes
Step Time TotEng KinEng PotEng E_mol E_pair Temp Pxx Pyy Pzz Pxy Pxz Pyz Cella Cellb Cellc CellAlpha CellBeta CellGamma Volume Press 
  500500       500000   -10768.556    900.20943   -11668.765    4130.8761   -15799.642    91.989524    457.51985   -219.06097    173.49574     89.07474    107.16587    37.208247      46.7237      46.7237      46.7237           90           90           90     102002.7    137.31821 
  501000       500500   -10779.278      855.311   -11634.589    4145.1319   -15779.721    87.401498    528.31313    545.80611    288.72321   -133.47523    29.249965   -70.418429      46.7237      46.7237      46.7237           90           90           90     102002.7    454.28082 
  502000       501500   -10753.929    902.25229   -11656.181    4144.1384   -15800.319    92.198278    178.53864    6.0627213    5.2083531   -99.292173    22.429331   -10.760371      46.7237      46.7237      46.7237           90           90           90     102002.7    63.269905 
  503000       502500   -10760.454    894.03188   -11654.486    4151.9712   -15806.457     91.35826    270.95617    389.31164    331.81058    79.120018    -54.41066   -19.669297      46.7237      46.7237      46.7237           90           90           90     102002.7     330.6928 
  504000       503500    -10797.83    866.61282   -11664.443    4149.5668   -15814.009    88.556394    596.03207    401.76943    591.73359    97.456707    109.52818   -163.69555      46.7237      46.7237      46.7237           90           90           90     102002.7    529.84503 
  505000       504500   -10744.413    910.66278   -11655.075    4133.0963   -15788.172    93.057719    247.82444    410.26326    412.97679    121.94358    177.07796   -53.762469      46.7237      46.7237      46.7237           90           90           90     102002.7     357.0215 
  506000       505500   -10770.152    883.57737    -11653.73     4144.548   -15798.278    90.289947   -115.73206    93.428028   -89.123406    23.880166    57.040254   -31.086589      46.7237      46.7237      46.7237           90           90           90     102002.7   -37.142479 
  507000       506500   -10770.982    890.61564   -11661.598    4143.7802   -15805.378    91.009165    138.85702    772.32797    -16.08381    194.66796    263.93876    1.1530222      46.7237      46.7237      46.7237           90           90           90     102002.7    298.36706 
  508000       507500   -10780.424    886.03739   -11666.462    4136.6215   -15803.083    90.541329    399.53514    562.01968    320.20599    31.362217   -13.126108    50.687733      46.7237      46.7237      46.7237           90           90           90     102002.7     427.2536 
  509000       508500   -10778.554    872.20109   -11650.756    4136.1742    -15786.93    89.127442    669.08115    182.33445    467.63915   -105.43386    62.561343    69.991674      46.7237      46.7237      46.7237           90           90           90     102002.7    439.68492 
  510000       509500   -10785.484    879.17007   -11664.655    4135.9972   -15800.652    89.839579    149.07181    161.81798    337.49627    208.35109    153.02776    86.706912      46.7237      46.7237      46.7237           90           90           90     102002.7    216.12868 
  511000       510500   -10759.405    895.89192   -11655.297    4140.6074   -15795.904    91.548332    182.81808   -122.29818    90.633782    201.99922   -101.97143    28.783733      46.7237      46.7237      46.7237           90           90           90     102002.7    50.384561 
  512000       511500   -10760.349     880.2952   -11640.644    4150.6259    -15791.27    89.954553    516.22328   -153.58086    485.85623    190.26514   -60.043088   -31.065966      46.7237      46.7237      46.7237           90           90           90     102002.7    282.83289 
  513000       512500   -10715.385    904.13277   -11619.518    4168.4564   -15787.974    92.390438    328.80555    144.21092    425.21141   -60.176904    167.23635   -229.61113      46.7237      46.7237      46.7237           90           90           90     102002.7    299.40929 
  514000       513500   -10770.562    871.44626   -11642.008    4133.6339   -15775.642    89.050308    457.39435    103.38161    301.76284    47.086747    59.639193   -91.358745      46.7237      46.7237      46.7237           90           90           90     102002.7    287.51293 
  515000       514500   -10763.671    876.12652   -11639.798    4152.7805   -15792.578    89.528569    248.25476    394.75859    399.07756      -30.654    150.90913   -53.030709      46.7237      46.7237      46.7237           90           90           90     102002.7    347.36364 
  516000       515500   -10750.808    910.51685   -11661.325     4129.665    -15790.99    93.042807    260.21403     239.5341     459.0755    33.056671   -16.235824   -55.615501      46.7237      46.7237      46.7237           90           90           90     102002.7    319.60787 
  517000       516500   -10755.293    886.78728   -11642.081    4138.3744   -15780.455    90.617957     471.8246    289.83726    528.67039   -2.9790185    98.508026   -61.758458      46.7237      46.7237      46.7237           90           90           90     102002.7    430.11075 
  518000       517500   -10766.274    879.47067   -11645.745    4130.6677   -15776.412    89.870297    756.43742    72.996818    393.16844   -21.603927   -47.006188   -216.65783      46.7237      46.7237      46.7237           90           90           90     102002.7    407.53423 
  519000       518500   -10745.914    894.01533   -11639.929    4151.3887   -15791.318    91.356569    659.90123    164.89877      171.755    92.328842   -164.83514    91.554196      46.7237      46.7237      46.7237           90           90           90     102002.7      332.185 
  520000       519500   -10763.042    899.53431   -11662.576    4138.5438    -15801.12    91.920536    255.96807    42.865429    481.09567    125.59022   -51.380844    149.52288      46.7237      46.7237      46.7237           90           90           90     102002.7    259.97639 
  521000       520500   -10763.172    901.15309   -11664.326    4135.2697   -15799.595    92.085954    191.50829     12.46292    227.07665    23.008575    154.98225   -111.85232      46.7237      46.7237      46.7237           90           90           90     102002.7    143.68262 
  522000       521500   -10772.433    876.48377   -11648.917    4140.4382   -15789.355    89.565075    259.45834    150.90241    512.43263     177.9043   -51.710614   -85.365169      46.7237      46.7237      46.7237           90           90           90     102002.7    307.59779 
  523000       522500   -10760.297     898.4083   -11658.705    4144.2787   -15802.984    91.805473    254.38948   -133.77301    481.34436   -9.1201464    229.78065   -232.54098      46.7237      46.7237      46.7237           90           90           90     102002.7    200.65361 
  524000       523500   -10733.175    900.88153   -11634.056    4137.4369   -15771.493    92.058204    362.25824   -143.89773   -36.102462     21.13644    157.21077    38.924963      46.7237      46.7237      46.7237           90           90           90     102002.7    60.752683 
  525000       524500   -10791.748    864.28564   -11656.034     4133.332   -15789.366    88.318587    545.84593    34.545147    515.41287    199.49466   -107.79387     127.9885      46.7237      46.7237      46.7237           90           90           90     102002.7    365.26798 
  526000       525500   -10777.424    884.47776   -11661.902    4121.7772   -15783.679    90.381955    220.50507   -73.590855    893.63284    143.25488    254.73435    65.660299      46.7237      46.7237      46.7237           90           90           90     102002.7    346.84902 
  527000       526500   -10722.554    910.57404   -11633.128    4163.1323    -15796.26    93.048651    278.63362    141.70824    342.30471    101.33378    216.25963    168.87766      46.7237      46.7237      46.7237           90           90           90     102002.7    254.21552 
  528000       527500   -10757.082    900.19882   -11657.281    4149.7474   -15807.029     91.98844    139.08806    -103.8639    42.050335   -43.250455   -32.686997   -148.21655      46.7237      46.7237      46.7237           90           90           90     102002.7    25.758165 
  529000       528500   -10770.219    883.98416   -11654.203      4157.66   -15811.863    90.331516    312.71108    523.06051     405.6477   -38.426057    251.89622   -81.528929      46.7237      46.7237      46.7237           90           90           90     102002.7    413.80643 
  530000       529500   -10752.366    896.15434    -11648.52    4150.3931   -15798.913    91.575148    652.51244    59.655691   -130.41826    71.280627   -3.4309636    -105.9044      46.7237      46.7237      46.7237           90           90           90     102002.7    193.91662 
  531000       530500   -10737.257    894.55006   -11631.807    4171.2244   -15803.032    91.411211    477.01482    67.631797    431.77273   -42.585685   -35.749881    322.93667      46.7237      46.7237      46.7237           90           90           90     102002.7    325.47312 
  532000       531500   -10764.244    881.39048   -11645.635    4143.4245   -15789.059    90.066476    751.97905    81.430382    572.11873    -89.02025    7.9460902    53.598996      46.7237      46.7237      46.7237           90           90           90     102002.7    468.50939 
  533000       532500   -10744.844    887.26832   -11632.112     4158.528    -15790.64    90.667114    41.760994    355.41436    368.60056       128.64    12.721551    28.820733      46.7237      46.7237      46.7237           90           90           90     102002.7    255.25864 
  534000       533500   -10756.596    890.71678   -11647.313    4126.9604   -15774.273    91.019501     480.1176    690.46683    294.26968    104.08553    78.996708    40.402167      46.7237      46.7237      46.7237           90           90           90     102002.7     488.2847 
  535000       534500   -10755.778    888.04152    -11643.82    4159.2193   -15803.039    90.746125    472.56398   -131.24375     647.6898   -53.939388   -162.52442      63.0668      46.7237      46.7237      46.7237           90           90           90     102002.7    329.67001 
  536000       535500   -10783.526    868.94373    -11652.47    4150.7748   -15803.245    88.794583    29.057662     48.01424    666.32467   -76.930538   -90.490883    214.33493      46.7237      46.7237      46.7237           90           90           90     102002.7    247.79886 
  537000       536500   -10750.685    901.84252   -11652.527    4158.5203   -15811.047    92.156404    395.07737    237.23968    417.07881   -53.364909    85.217602   -253.78992      46.7237      46.7237      46.7237           90           90           90     102002.7    349.79862 
  538000       537500   -10737.009    898.70847   -11635.717    4173.8255   -15809.543    91.836146   -58.411129    42.734408    358.31068   -142.33425   -162.41837   -142.82233      46.7237      46.7237      46.7237           90           90           90     102002.7    114.21132 
  539000       538500   -10762.984    898.31637   -11661.301    4152.3227   -15813.623    91.796079    70.142431    138.12843     2.357732   -77.526794    119.73724   -92.709317      46.7237      46.7237      46.7237           90           90           90     102002.7    70.209531 
  540000       539500   -10773.705    872.40478    -11646.11    4143.7669   -15789.877    89.148256     161.6676    652.71131    418.97447    76.026932   -66.593171    70.120499      46.7237      46.7237      46.7237           90           90           90     102002.7     411.1178 
  541000       540500   -10737.315    900.94328   -11638.258    4154.9873   -15793.245    92.064514    302.32515    415.53587   -171.27089   -50.609294   -176.98311     98.25562      46.7237      46.7237      46.7237           90           90           90     102002.7    182.19671 
  542000       541500   -10771.191     875.4057   -11646.596    4157.5417   -15804.138     89.45491   -86.726779    -160.5228    90.590326    57.553992   -95.956847    213.18286      46.7237      46.7237      46.7237           90           90           90     102002.7   -52.219752 
  543000       542500     -10768.6     895.1079   -11663.707    4139.7002   -15803.408    91.468215    177.51634   -120.24687    319.71073   -39.896933   -18.322283   -123.66295      46.7237      46.7237      46.7237           90           90           90     102002.7    125.66007 
  544000       543500   -10739.598    893.74883   -11633.347    4156.6233    -15789.97    91.329337    444.77252    232.36087    32.946279    76.776554    20.807401   -34.159194      46.7237      46.7237      46.7237           90           90           90     102002.7    236.69322 
  545000       544500   -10762.505    878.17256   -11640.678    4155.9009   -15796.579    89.737647    28.264271    120.94103     458.3077      211.215    267.06774   -106.92452      46.7237      46.7237      46.7237           90           90           90     102002.7    202.50433 
  546000       545500   -10759.702    899.75971   -11659.462    4138.7037   -15798.165    91.943569    440.34591   -67.658111      39.7004    20.789457   -197.75509    185.08447      46.7237      46.7237      46.7237           90           90           90     102002.7    137.46273 
  547000       546500    -10744.46    897.25762   -11641.718    4135.7955   -15777.513    91.687889    369.93235    318.84152    543.77181    212.99652     14.16931   -29.716428      46.7237      46.7237      46.7237           90           90           90     102002.7    410.84856 
  548000       547500   -10767.914     895.9765   -11663.891    4136.8528   -15800.744    91.556975    23.200342    569.94549    1001.8751    165.56636     208.1427    117.82264      46.7237      46.7237      46.7237           90           90           90     102002.7    531.67364 
  549000       548500   -10759.051    880.78685   -11639.838    4147.0216   -15786.859    90.004793    129.38258    -32.61993     410.2852    267.47619    64.170873    60.361688      46.7237      46.7237      46.7237           90           90           90     102002.7    169.01595 
  550000       549500    -10724.48    914.68187   -11639.162    4150.1184    -15789.28    93.468417     150.4951    248.36235    151.13115    19.167224    84.764778   -59.927716      46.7237      46.7237      46.7237           90           90           90     102002.7    183.32953 
  551000       550500   -10795.151    867.19726   -11662.348     4144.842    -15807.19    88.616117     482.2612    5.2338155     206.3176    236.06945    365.66477   -272.70785      46.7237      46.7237      46.7237           90           90           90     102002.7    231.27087 
  552000       551500   -10762.531    887.35926    -11649.89    4161.1289   -15811.019    90.676407    72.851717   -56.206237    182.64821    71.392848   -78.247928    142.34885      46.7237      46.7237      46.7237           90           90           90     102002.7    66.431229 
  553000       552500   -10756.867    891.60015   -11648.467    4168.2745   -15816.742     91.10977    311.51413    31.857399     368.1334    12.700055   -212.00199    64.177591      46.7237      46.7237      46.7237           90           90           90     102002.7    237.16831 
  554000       553500    -10753.51    902.49466   -11656.004    4152.4262   -15808.431    92.223045    17.793213   -308.57886    417.48419    107.11286   -73.739525   -41.989618      46.7237      46.7237      46.7237           90           90           90     102002.7    42.232849 
  555000       554500   -10783.539    897.16201   -11680.701    4143.0347   -15823.736    91.678118    548.45901    126.08755    154.40109    153.30255    222.19637   -41.802168      46.7237      46.7237      46.7237           90           90           90     102002.7    276.31588 
[...]
  936000       935500   -10783.355    893.25032   -11676.606    4141.4473   -15818.053    91.278395   -236.15422    97.977586   -129.95729   -178.11713    8.6061208    275.72132      46.7237      46.7237      46.7237           90           90           90     102002.7   -89.377975 
  937000       936500   -10797.004     889.3965     -11686.4    4135.1711   -15821.571    90.884585   -132.38103   -152.00724    107.74175    162.06511    1.6429864    141.85414      46.7237      46.7237      46.7237           90           90           90     102002.7   -58.882174 
  938000       937500   -10759.933    892.02355   -11651.956    4140.6071   -15792.564    91.153036    454.13575   -77.329147    718.61334   -45.297264   -97.224558   -142.67479      46.7237      46.7237      46.7237           90           90           90     102002.7    365.13998 
  939000       938500   -10775.317    897.65849   -11672.976    4129.2812   -15802.257    91.728852    404.69042   -76.755052     285.1116   -67.404143    85.102436   -71.158199      46.7237      46.7237      46.7237           90           90           90     102002.7    204.34899 
  940000       939500   -10765.403    895.68792   -11661.091    4148.4923   -15809.583    91.527486    295.21388    820.55931    606.33102    67.824363    28.121552   -178.00331      46.7237      46.7237      46.7237           90           90           90     102002.7    574.03474 
  941000       940500   -10739.209    898.44953   -11637.659    4146.7705    -15784.43    91.809686    213.19478    257.44446    412.99508   -158.30934    -15.37938    49.267843      46.7237      46.7237      46.7237           90           90           90     102002.7    294.54477 
  942000       941500   -10742.686    895.87519   -11638.561    4160.0418   -15798.603    91.546623   -146.11121    64.074512      152.481    143.01761   -135.56836    22.465388      46.7237      46.7237      46.7237           90           90           90     102002.7    23.481433 
  943000       942500    -10769.44    885.88762   -11655.327    4150.4238   -15805.751    90.526025    176.15172    243.76022    599.84291   -88.703311   -146.03255    159.16434      46.7237      46.7237      46.7237           90           90           90     102002.7    339.91828 
  944000       943500   -10758.214    890.47002   -11648.684    4165.2129   -15813.897    90.994286    40.301578   -40.593536     460.5896   -65.681731    12.287618    74.261989      46.7237      46.7237      46.7237           90           90           90     102002.7    153.43255 
  945000       944500   -10768.837    891.41486   -11660.252    4130.0602   -15790.312    91.090835    99.357092    202.72613    360.35369   -105.15704    32.817146     19.27376      46.7237      46.7237      46.7237           90           90           90     102002.7    220.81231 
  946000       945500   -10820.638    867.69734   -11688.336    4130.7723   -15819.108    88.667218    18.305113     247.1701    546.14019    239.90036    161.11391     5.681333      46.7237      46.7237      46.7237           90           90           90     102002.7    270.53847 
  947000       946500   -10766.175    882.81177   -11648.987    4145.0931    -15794.08    90.211713    30.852283    4.1438139    273.57528    45.530472    138.87484    283.30984      46.7237      46.7237      46.7237           90           90           90     102002.7    102.85713 
  948000       947500   -10764.304    887.38653    -11651.69    4157.9957   -15809.686    90.679193    157.72946   -403.93575    192.26022    26.332654   -86.832383    137.63387      46.7237      46.7237      46.7237           90           90           90     102002.7   -17.982026 
  949000       948500    -10768.18    885.51757   -11653.698     4138.968   -15792.666     90.48821    262.73468   -164.24354    21.058775   -37.361795   -132.46224    158.08461      46.7237      46.7237      46.7237           90           90           90     102002.7    39.849974 
  950000       949500   -10754.046    902.79315   -11656.839    4144.9921   -15801.831    92.253546    92.436711   -316.54785     139.0831    236.75875    27.618176   -212.97999      46.7237      46.7237      46.7237           90           90           90     102002.7   -28.342678 
  951000       950500   -10764.522    897.55342   -11662.076    4139.7995   -15801.875    91.718115    106.22715   -123.31254     341.2814   -41.965315   -177.85314    5.1251792      46.7237      46.7237      46.7237           90           90           90     102002.7    108.06534 
  952000       951500   -10765.917      895.732   -11661.649    4142.0148   -15803.664     91.53199    226.73196    163.14914     510.9958   -85.051481    174.85741   -127.66436      46.7237      46.7237      46.7237           90           90           90     102002.7     300.2923 
  953000       952500   -10772.607    894.02322    -11666.63    4143.9413   -15810.571    91.357376    123.95284    312.23108    607.39531    -104.3621    188.07821   -47.993496      46.7237      46.7237      46.7237           90           90           90     102002.7    347.85974 
  954000       953500   -10748.953    893.27837   -11642.231    4144.3003   -15786.531    91.281262    532.61865    139.33013    522.25443    6.7332167    -224.3983    22.391595      46.7237      46.7237      46.7237           90           90           90     102002.7    398.06773 
  955000       954500   -10781.396    893.98123   -11675.377    4143.2021   -15818.579    91.353084     1.031605     101.3601    760.17307    132.27101      85.3176   -39.752686      46.7237      46.7237      46.7237           90           90           90     102002.7    287.52159 
  956000       955500   -10763.463    901.98662   -11665.449    4176.2559   -15841.705    92.171129   -26.121811   -159.49841    384.41323   -204.94004    -39.56694   -159.88379      46.7237      46.7237      46.7237           90           90           90     102002.7    66.264336 
  957000       956500    -10768.33      884.024   -11652.354    4168.6183   -15820.972    90.335587    345.33921    -143.9186     -29.4804   -42.874244    46.749577   -222.72813      46.7237      46.7237      46.7237           90           90           90     102002.7    57.313402 
  958000       957500   -10754.474    900.26021   -11654.734    4162.1208   -15816.855    91.994713    14.973949    445.63954    427.67394   -168.61554      339.001   -83.292363      46.7237      46.7237      46.7237           90           90           90     102002.7    296.09581 
  959000       958500   -10752.778    890.59313   -11643.371    4154.1005   -15797.472    91.006866    84.781437    548.18808    233.63261   -84.145066   -32.366913   -19.023173      46.7237      46.7237      46.7237           90           90           90     102002.7    288.86738 
  960000       959500   -10802.696    872.76346   -11675.459    4148.0425   -15823.502    89.184908    106.16352     299.0568   -55.383887    89.261012   -203.15234    56.953566      46.7237      46.7237      46.7237           90           90           90     102002.7    116.61215 
  961000       960500   -10752.408     891.8142   -11644.222    4159.9046   -15804.127    91.131643   -193.88333    463.90452   -231.36673   -9.8155483   -180.45816   -19.251048      46.7237      46.7237      46.7237           90           90           90     102002.7    12.884822 
  962000       961500   -10805.028    869.53247   -11674.561    4140.0052   -15814.566    88.854744    211.42867    30.476159    185.45958   -11.273846    198.25186   -29.660567      46.7237      46.7237      46.7237           90           90           90     102002.7     142.4548 
  963000       962500   -10793.122    890.51799    -11683.64    4127.9906   -15811.631    90.999188    201.60113    262.01269    -32.21807   -214.47791   -275.11115   -99.243498      46.7237      46.7237      46.7237           90           90           90     102002.7    143.79858 
  964000       963500   -10722.758    931.59482   -11654.353    4141.9308   -15796.284    95.196697    125.84517    133.12914    361.29915     15.53399    -38.27854    137.54199      46.7237      46.7237      46.7237           90           90           90     102002.7    206.75782 
  965000       964500   -10776.207    896.22288    -11672.43     4141.609   -15814.039    91.582151    328.83048     122.0041    561.31985    319.94686   -81.514163   -9.9367076      46.7237      46.7237      46.7237           90           90           90     102002.7    337.38481 
  966000       965500   -10760.611    890.20805   -11650.819    4147.1632   -15797.982    90.967515   -27.322514    286.94954    316.46649    13.577662    222.34806   -230.67502      46.7237      46.7237      46.7237           90           90           90     102002.7    192.03117 
  967000       966500   -10768.519    886.78222   -11655.302    4151.3513   -15806.653     90.61744   -98.538389    60.690832    446.98005   -129.86584    96.020937   -27.203161      46.7237      46.7237      46.7237           90           90           90     102002.7     136.3775 
  968000       967500   -10754.776     900.1721   -11654.948    4142.2581   -15797.207    91.985709    320.68484    142.18437    482.30418    249.27231    146.07474   -82.491937      46.7237      46.7237      46.7237           90           90           90     102002.7     315.0578 
  969000       968500   -10791.416    878.83148   -11670.247    4148.3773   -15818.624     89.80498   -28.744449    191.96432   -123.69439    76.413903   -56.008042    107.28074      46.7237      46.7237      46.7237           90           90           90     102002.7    13.175161 
  970000       969500   -10771.945    888.94858   -11660.893     4138.168   -15799.061    90.838814    -172.2149    400.79828    503.31521    100.50528    112.73776    129.27338      46.7237      46.7237      46.7237           90           90           90     102002.7     243.9662 
  971000       970500   -10723.969    915.64567   -11639.615    4157.9396   -15797.555    93.566905    105.60508    117.44355   -15.263916    97.492096    106.81801    133.08914      46.7237      46.7237      46.7237           90           90           90     102002.7    69.261573 
  972000       971500   -10786.616    884.23301   -11670.849    4155.4053   -15826.255    90.356945    109.40684    503.48803   -52.579596   -61.415761    29.474872    5.6793686      46.7237      46.7237      46.7237           90           90           90     102002.7    186.77176 
  973000       972500   -10746.495    905.36247   -11651.858    4158.0637   -15809.921    92.516097    493.54708   -35.840227    -154.5685   -32.868058   -2.7385353   -199.03815      46.7237      46.7237      46.7237           90           90           90     102002.7    101.04612 
  974000       973500   -10774.016    896.45214   -11670.469    4135.8304   -15806.299    91.605579    -120.0821   -85.362702    63.769019    -17.51969   -91.323162    59.931164      46.7237      46.7237      46.7237           90           90           90     102002.7   -47.225263 
  975000       974500   -10777.164    905.02033   -11682.185     4134.678   -15816.863    92.481135    424.14897    539.87582    189.70926   -65.710067    10.987533    157.38099      46.7237      46.7237      46.7237           90           90           90     102002.7    384.57802 
  976000       975500   -10783.571    877.19996   -11660.771    4140.2724   -15801.043     89.63826   -52.162718     153.6923    448.64756    26.751567   -69.856736   -120.79069      46.7237      46.7237      46.7237           90           90           90     102002.7    183.39238 
  977000       976500   -10769.399    901.93632   -11671.335    4142.5337   -15813.869     92.16599   -119.16895    26.201705    192.39353     104.0932    148.56192   -168.75484      46.7237      46.7237      46.7237           90           90           90     102002.7    33.142094 
  978000       977500   -10755.815    893.85278   -11649.667     4144.237   -15793.904    91.339959    452.04651    116.26768    116.68864    63.037847   -78.781368   -24.649268      46.7237      46.7237      46.7237           90           90           90     102002.7    228.33427 
  979000       978500   -10779.003    879.05394   -11658.057    4159.8017   -15817.859    89.827712   -231.99238   -142.05922    194.87228    111.64108    171.03622    240.65651      46.7237      46.7237      46.7237           90           90           90     102002.7   -59.726439 
  980000       979500   -10752.883    915.13674    -11668.02    4139.8093   -15807.829    93.514898     168.8265    2.3366559    73.247287   -34.545546   -20.105435   -119.61089      46.7237      46.7237      46.7237           90           90           90     102002.7    81.470147 
  981000       980500   -10767.894    878.94396   -11646.838    4162.4148   -15809.253    89.816474    404.05518    279.11523    355.41904   -107.31159    -108.6637   -141.18928      46.7237      46.7237      46.7237           90           90           90     102002.7    346.19649 
  982000       981500   -10794.131     874.6312   -11668.762    4135.9575   -15804.719    89.375767    373.51919    520.87733     37.83037   -211.27517    121.75826   -263.05044      46.7237      46.7237      46.7237           90           90           90     102002.7     310.7423 
  983000       982500   -10772.889    876.09945   -11648.989    4166.5583   -15815.547    89.525803    197.41796    114.25604    119.85775   -48.271485      143.802   -183.12733      46.7237      46.7237      46.7237           90           90           90     102002.7    143.84392 
  984000       983500   -10761.186    888.12796   -11649.314    4130.2643   -15779.578    90.754958    745.12173    416.96686    372.12632   -73.812578   -49.971935    128.11324      46.7237      46.7237      46.7237           90           90           90     102002.7    511.40497 
  985000       984500   -10788.624    883.84532    -11672.47    4131.6617   -15804.132    90.317329    89.714098    604.95649    344.68893    110.55711     46.63776   -118.81671      46.7237      46.7237      46.7237           90           90           90     102002.7    346.45317 
  986000       985500   -10759.227    892.98674   -11652.214    4155.7941   -15808.008    91.251461    415.75329   -409.53326    372.55431   -14.534567   -131.74174   -87.017242      46.7237      46.7237      46.7237           90           90           90     102002.7    126.25811 
  987000       986500   -10761.892    895.81648   -11657.708     4149.698   -15807.406    91.540623    224.51155    242.49057    610.27699   -20.908564   -74.682583   -127.21944      46.7237      46.7237      46.7237           90           90           90     102002.7    359.09304 
  988000       987500   -10767.892    893.58335   -11661.476    4143.0237   -15804.499    91.312427    278.93782   -31.902433    712.67835    101.94837    81.453463    182.89555      46.7237      46.7237      46.7237           90           90           90     102002.7    319.90458 
  989000       988500   -10769.962    883.77423   -11653.736    4157.3628   -15811.099    90.310064    211.72767   -150.65935    161.24048    5.2751126    -40.95776    62.765701      46.7237      46.7237      46.7237           90           90           90     102002.7    74.102935 
  990000       989500   -10781.637    885.44833   -11667.085    4153.4145     -15820.5    90.481135    300.86257    82.135992    370.54723    102.97768    2.6416672   -247.29597      46.7237      46.7237      46.7237           90           90           90     102002.7    251.18193 
  991000       990500    -10731.56    918.02249   -11649.582    4155.3151   -15804.897    93.809784    211.70671   -177.57431    237.25885    -66.46337    299.64385    56.401906      46.7237      46.7237      46.7237           90           90           90     102002.7    90.463751 
  992000       991500   -10746.905    907.92532    -11654.83     4142.731   -15797.561    92.777986    312.55085    529.34415    140.31698    21.178672   -104.45846    75.548089      46.7237      46.7237      46.7237           90           90           90     102002.7    327.40399 
  993000       992500   -10776.477    877.58063   -11654.058     4146.751   -15800.809    89.677159    312.98266    -116.0272    421.86967    113.84311   -318.32552    137.61608      46.7237      46.7237      46.7237           90           90           90     102002.7    206.27504 
  994000       993500   -10730.665    919.42215   -11650.088    4169.2216   -15819.309    93.952811    507.14976    92.287036      109.755    4.0977222     118.3404      19.2287      46.7237      46.7237      46.7237           90           90           90     102002.7    236.39726 
  995000       994500   -10785.121     873.5135   -11658.635     4160.786   -15819.421    89.261553    253.29405    23.921897    214.50979    77.959008   -12.722786  0.042866584      46.7237      46.7237      46.7237           90           90           90     102002.7    163.90858 
  996000       995500    -10734.82    907.88686   -11642.707    4151.2882   -15793.995    92.774057    696.14178    76.862649    762.06332    256.06018      118.519    10.219631      46.7237      46.7237      46.7237           90           90           90     102002.7    511.68925 
  997000       996500   -10778.569    886.55152   -11665.121    4143.4859   -15808.607    90.593867    84.151998    64.900202    8.9856848    223.86186    46.697707    267.10033      46.7237      46.7237      46.7237           90           90           90     102002.7    52.679295 
  998000       997500   -10745.722    910.38889   -11656.111    4143.2773   -15799.388    93.029731    671.28743    215.08178    160.01933    99.097359   -150.34671   -121.28209      46.7237      46.7237      46.7237           90           90           90     102002.7    348.79618 
  999000       998500   -10769.266     883.9159   -11653.182    4146.0034   -15799.186    90.324541    130.91879    66.824999    509.56922   -14.329602   -41.490948   -85.266872      46.7237      46.7237      46.7237           90           90           90     102002.7      235.771 
 1000000       999500   -10761.304    891.94255   -11653.246    4138.4423   -15791.688    91.144758     473.2256    117.48071    179.12108    147.89267   -148.32661    83.070482      46.7237      46.7237      46.7237           90           90           90     102002.7    256.60913 
 1000500      1000000   -10766.717     891.0333    -11657.75    4137.3202   -15795.071    91.051845    189.26484    160.47806    692.79225 -0.090251759   -41.329311   -135.18574      46.7237      46.7237      46.7237           90           90           90     102002.7    347.51172 
Loop time of 2372.18 on 16 procs for 500000 steps with 3284 atoms

Performance: 18.211 ns/day, 1.318 hours/ns, 210.777 timesteps/s
99.8% CPU use with 16 MPI tasks x no OpenMP threads

MPI task timing breakdown:
Section |  min time  |  avg time  |  max time  |%varavg| %total
---------------------------------------------------------------
Pair    | 1174.1     | 1520       | 1949.3     | 561.7 | 64.07
Bond    | 117.95     | 184.28     | 233.57     | 267.6 |  7.77
Neigh   | 15.071     | 15.13      | 15.168     |   0.9 |  0.64
Comm    | 153.6      | 619.77     | 1030.7     | 981.7 | 26.13
Output  | 0.13482    | 0.14201    | 0.14267    |   0.5 |  0.01
Modify  | 24.819     | 25.683     | 26.944     |  10.9 |  1.08
Other   |            | 7.205      |            |       |  0.30

Nlocal:    205.25 ave 229 max 171 min
Histogram: 2 1 2 0 0 1 2 2 1 5
Nghost:    4117.31 ave 4145 max 4091 min
Histogram: 2 2 2 3 0 1 1 0 1 4
Neighs:    11469.9 ave 17108 max 6870 min
Histogram: 3 1 1 2 1 4 1 0 2 1

Total # of neighbors = 183519
Ave neighs/atom = 55.8828
Ave special neighs/atom = 3.50792
Neighbor list builds = 4106
Dangerous builds = 0
Total wall time: 1:11:15
