LAMMPS (30 Mar 2018)
Reading data file ...
  orthogonal box = (0 0 0) to (46.7237 46.7237 46.7237)
  2 by 3 by 4 MPI processor grid
  reading atoms ...
  2103 atoms
  scanning bonds ...
  5 = max bonds/atom
  scanning angles ...
  10 = max angles/atom
  scanning dihedrals ...
  32 = max dihedrals/atom
  scanning impropers ...
  3 = max impropers/atom
  reading bonds ...
  2064 bonds
  reading angles ...
  3696 angles
  reading dihedrals ...
  6240 dihedrals
  reading impropers ...
  1008 impropers
Finding 1-2 1-3 1-4 neighbors ...
  special bond factors lj:   0          0          0         
  special bond factors coul: 0          0          0         
  5 = max # of 1-2 neighbors
  8 = max # of 1-3 neighbors
  20 = max # of 1-4 neighbors
  19 = max # of special neighbors
Finding 1-2 1-3 1-4 neighbors ...
  special bond factors lj:   0          0          1         
  special bond factors coul: 1          1          1         
  5 = max # of 1-2 neighbors
  8 = max # of 1-3 neighbors
  19 = max # of special neighbors
WARNING: Using 'neigh_modify every 1 delay 0 check yes' setting during minimization (../min.cpp:168)
Neighbor list info ...
  update every 1 steps, delay 0 steps, check yes
  max neighbors/atom: 2000, page size: 100000
  master list distance cutoff = 16
  ghost atom cutoff = 16
  binsize = 8, bins = 6 6 6
  3 neighbor lists, perpetual/occasional/extra = 3 0 0
  (1) pair buck6d/coul/gauss/dsf, perpetual, skip from (3)
      attributes: half, newton on
      pair build: skip
      stencil: none
      bin: none
  (2) pair lj/cut, perpetual, skip from (3)
      attributes: half, newton on
      pair build: skip
      stencil: none
      bin: none
  (3) neighbor class addition, perpetual
      attributes: half, newton on
      pair build: half/bin/newton
      stencil: half/bin/3d/newton
      bin: standard
Setting up cg style minimization ...
  Unit style    : real
  Current step  : 0
WARNING: Inconsistent image flags (../domain.cpp:786)
Per MPI rank memory allocation (min/avg/max) = 22.89 | 23.3 | 24.44 Mbytes
Step Temp E_pair E_mol TotEng Press 
       0            0   -12637.394    6482.8914   -6154.5028    6063.8516 
     501            0   -12781.504    3718.4239   -9063.0799   -666.46734 
Loop time of 1.3448 on 24 procs for 501 steps with 2103 atoms

99.5% CPU use with 24 MPI tasks x no OpenMP threads

Minimization stats:
  Stopping criterion = max force evaluations
  Energy initial, next-to-last, final = 
        -6154.50279666     -9063.01222186     -9063.07993468
  Force two-norm initial, final = 2574.41 11.9931
  Force max component initial, final = 151.984 1.69828
  Final line search alpha, max atom move = 0.00310733 0.00527712
  Iterations, force evaluations = 501 1001

MPI task timing breakdown:
Section |  min time  |  avg time  |  max time  |%varavg| %total
---------------------------------------------------------------
Pair    | 0.51955    | 0.71315    | 0.9266     |  13.6 | 53.03
Bond    | 0.11585    | 0.15784    | 0.20932    |   5.8 | 11.74
Neigh   | 0.011947   | 0.012728   | 0.013629   |   0.6 |  0.95
Comm    | 0.20408    | 0.43834    | 0.64537    |  18.0 | 32.60
Output  | 0          | 0          | 0          |   0.0 |  0.00
Modify  | 0          | 0          | 0          |   0.0 |  0.00
Other   |            | 0.02274    |            |       |  1.69

Nlocal:    87.625 ave 101 max 65 min
Histogram: 2 0 0 3 2 3 3 3 3 5
Nghost:    2332.29 ave 2504 max 2235 min
Histogram: 13 3 0 0 0 0 0 0 0 8
Neighs:    7644.17 ave 11211 max 5010 min
Histogram: 5 1 2 4 3 2 2 1 2 2

Total # of neighbors = 183460
Ave neighs/atom = 87.2373
Ave special neighs/atom = 5.47789
Neighbor list builds = 15
Dangerous builds = 0
Neighbor list info ...
  update every 1 steps, delay 10 steps, check yes
  max neighbors/atom: 2000, page size: 100000
  master list distance cutoff = 16
  ghost atom cutoff = 16
  binsize = 8, bins = 6 6 6
  3 neighbor lists, perpetual/occasional/extra = 3 0 0
  (1) pair buck6d/coul/gauss/dsf, perpetual, skip from (3)
      attributes: half, newton on
      pair build: skip
      stencil: none
      bin: none
  (2) pair lj/cut, perpetual, skip from (3)
      attributes: half, newton on
      pair build: skip
      stencil: none
      bin: none
  (3) neighbor class addition, perpetual
      attributes: half, newton on
      pair build: half/bin/newton
      stencil: half/bin/3d/newton
      bin: standard
Setting up Verlet run ...
  Unit style    : real
  Current step  : 501
  Time step     : 1
WARNING: Inconsistent image flags (../domain.cpp:786)
Per MPI rank memory allocation (min/avg/max) = 22.54 | 22.71 | 23.32 Mbytes
Step Temp PotEng TotEng Press Volume Lx Ly Lz 
     501          110   -9063.0799    -8373.857   -357.59368     102002.7      46.7237      46.7237      46.7237 
    1000    94.177356   -8451.4645   -7861.3809   -689.80637     102002.7      46.7237      46.7237      46.7237 
    2000    117.37881   -8359.2797   -7623.8237   -717.27586     102002.7      46.7237      46.7237      46.7237 
    3000    110.09496   -8317.3099    -7627.492   -639.17775     102002.7      46.7237      46.7237      46.7237 
    4000    108.17822    -8342.579   -7664.7707   -576.85662     102002.7      46.7237      46.7237      46.7237 
    5000    110.65237   -8341.0077   -7647.6972   -844.73654     102002.7      46.7237      46.7237      46.7237 
    6000    111.46494   -8317.8819   -7619.4802   -497.64135     102002.7      46.7237      46.7237      46.7237 
    7000    108.70992    -8344.276   -7663.1363   -745.85751     102002.7      46.7237      46.7237      46.7237 
    8000    108.71953   -8339.4265   -7658.2265   -840.63168     102002.7      46.7237      46.7237      46.7237 
    9000    110.11275   -8341.1991   -7651.2698   -714.99887     102002.7      46.7237      46.7237      46.7237 
   10000    109.25809   -8364.5767   -7680.0023   -646.72191     102002.7      46.7237      46.7237      46.7237 
   11000    112.16083   -8376.1619   -7673.3999    -975.4723     102002.7      46.7237      46.7237      46.7237 
   12000    107.45946   -8352.1091   -7678.8044   -598.21091     102002.7      46.7237      46.7237      46.7237 
   13000    109.38515   -8347.4251   -7662.0547    -265.6292     102002.7      46.7237      46.7237      46.7237 
   14000    110.26674    -8335.473   -7644.5788   -585.30336     102002.7      46.7237      46.7237      46.7237 
   15000    113.50219   -8364.6969   -7653.5305   -775.77461     102002.7      46.7237      46.7237      46.7237 
   16000    111.33493   -8318.0787   -7620.4916   -691.02721     102002.7      46.7237      46.7237      46.7237 
   17000    108.33164   -8343.9215    -7665.152   -885.84092     102002.7      46.7237      46.7237      46.7237 
   18000    111.69175   -8339.2927   -7639.4698   -748.63121     102002.7      46.7237      46.7237      46.7237 
   19000    109.46737   -8374.2572   -7688.3716   -679.40134     102002.7      46.7237      46.7237      46.7237 
   20000    110.55677    -8359.185   -7666.4735    -751.6071     102002.7      46.7237      46.7237      46.7237 
   21000    109.12113   -8323.0121    -7639.296   -771.98331     102002.7      46.7237      46.7237      46.7237 
   22000     108.9305   -8355.2298    -7672.708   -610.80295     102002.7      46.7237      46.7237      46.7237 
   23000    109.75119   -8339.2417   -7651.5778   -694.51073     102002.7      46.7237      46.7237      46.7237 
   24000    108.29329     -8353.72   -7675.1908   -673.48652     102002.7      46.7237      46.7237      46.7237 
   25000    109.69978   -8349.7227   -7662.3809   -593.62666     102002.7      46.7237      46.7237      46.7237 
   26000    109.04366   -8360.0759   -7676.8451   -400.01287     102002.7      46.7237      46.7237      46.7237 
   27000    108.02685   -8347.0734   -7670.2137    -698.4171     102002.7      46.7237      46.7237      46.7237 
   28000    111.16967   -8342.2141   -7645.6624   -683.24437     102002.7      46.7237      46.7237      46.7237 
   29000    108.53978   -8365.5323   -7685.4587   -971.02757     102002.7      46.7237      46.7237      46.7237 
   30000    112.23612   -8331.1271   -7627.8934   -478.38334     102002.7      46.7237      46.7237      46.7237 
   31000    108.98628   -8354.5147   -7671.6435   -545.10454     102002.7      46.7237      46.7237      46.7237 
   32000    110.33436   -8323.3898   -7632.0719   -849.67163     102002.7      46.7237      46.7237      46.7237 
   33000     110.7606   -8366.0612   -7672.0726   -793.07966     102002.7      46.7237      46.7237      46.7237 
   34000    108.31319   -8338.4645   -7659.8106   -640.05709     102002.7      46.7237      46.7237      46.7237 
   35000    111.71718   -8348.8933   -7648.9111   -678.50861     102002.7      46.7237      46.7237      46.7237 
   36000    112.08039    -8348.661    -7646.403   -753.00403     102002.7      46.7237      46.7237      46.7237 
   37000    109.04425   -8327.8634   -7644.6288   -733.85069     102002.7      46.7237      46.7237      46.7237 
   38000    107.18593     -8343.29   -7671.6991   -745.12585     102002.7      46.7237      46.7237      46.7237 
   39000    109.43597   -8336.5625   -7650.8736   -715.70034     102002.7      46.7237      46.7237      46.7237 
   40000    111.31472   -8341.1658   -7643.7053   -784.17145     102002.7      46.7237      46.7237      46.7237 
   41000    104.63585   -8336.6484   -7681.0354   -638.50728     102002.7      46.7237      46.7237      46.7237 
   42000    113.00871   -8358.7097   -7650.6352   -646.15614     102002.7      46.7237      46.7237      46.7237 
   43000    113.94643   -8339.4705   -7625.5206   -288.73622     102002.7      46.7237      46.7237      46.7237 
   44000    108.47813   -8315.9438   -7636.2565   -860.82991     102002.7      46.7237      46.7237      46.7237 
   45000    111.71034   -8339.3526   -7639.4133   -464.62325     102002.7      46.7237      46.7237      46.7237 
   46000    108.20066   -8348.0109   -7670.0621   -720.47558     102002.7      46.7237      46.7237      46.7237 
   47000    109.50088   -8330.8855   -7644.7899   -1025.0459     102002.7      46.7237      46.7237      46.7237 
   48000    112.50556   -8340.3969    -7635.475   -845.84875     102002.7      46.7237      46.7237      46.7237 
   49000    109.74997   -8342.5002    -7654.844    -955.0871     102002.7      46.7237      46.7237      46.7237 
   50000    108.53872   -8333.2512   -7653.1842   -644.04825     102002.7      46.7237      46.7237      46.7237 
   51000    110.41621   -8342.0128   -7650.1821   -758.63425     102002.7      46.7237      46.7237      46.7237 
   52000    112.11848   -8309.8064   -7607.3098   -717.61513     102002.7      46.7237      46.7237      46.7237 
   53000    111.08657   -8351.2904   -7655.2594   -944.30091     102002.7      46.7237      46.7237      46.7237 
   54000    108.01525   -8320.2701    -7643.483    -700.4329     102002.7      46.7237      46.7237      46.7237 
   55000    109.64645   -8343.6802   -7656.6725   -611.80243     102002.7      46.7237      46.7237      46.7237 
   56000    108.28143   -8336.3903   -7657.9354   -623.09417     102002.7      46.7237      46.7237      46.7237 
   57000    111.24122   -8325.0988   -7628.0988   -905.65025     102002.7      46.7237      46.7237      46.7237 
   58000    111.64982   -8356.2725   -7656.7124   -1061.2996     102002.7      46.7237      46.7237      46.7237 
   59000    108.00686   -8322.1848   -7645.4502   -507.43496     102002.7      46.7237      46.7237      46.7237 
   60000    110.62982   -8337.4466   -7644.2775     -621.793     102002.7      46.7237      46.7237      46.7237 
   61000    109.88993   -8324.1582   -7635.6249   -691.16426     102002.7      46.7237      46.7237      46.7237 
   62000    112.43134   -8336.7412   -7632.2844   -667.95525     102002.7      46.7237      46.7237      46.7237 
   63000    105.79571   -8325.7207   -7662.8405   -848.17944     102002.7      46.7237      46.7237      46.7237 
   64000    110.82636   -8331.2324   -7636.8318   -944.65663     102002.7      46.7237      46.7237      46.7237 
   65000    109.71954   -8326.7985   -7639.3329   -597.86624     102002.7      46.7237      46.7237      46.7237 
   66000    111.33273   -8331.8757   -7634.3023    -610.2171     102002.7      46.7237      46.7237      46.7237 
   67000    110.63718   -8350.8435   -7657.6282    -832.5182     102002.7      46.7237      46.7237      46.7237 
   68000    110.27331   -8342.9964    -7652.061   -872.42808     102002.7      46.7237      46.7237      46.7237 
   69000    112.48952    -8338.518   -7633.6965    -701.9796     102002.7      46.7237      46.7237      46.7237 
   70000     109.0213   -8329.9225   -7646.8319   -605.66753     102002.7      46.7237      46.7237      46.7237 
   71000    110.76868   -8330.3282    -7636.289    -718.0655     102002.7      46.7237      46.7237      46.7237 
   72000    106.83944   -8330.9266   -7661.5066   -884.10479     102002.7      46.7237      46.7237      46.7237 
   73000    110.21188   -8336.3233   -7645.7728   -564.35946     102002.7      46.7237      46.7237      46.7237 
   74000    106.07971   -8340.2425   -7675.5828   -476.86396     102002.7      46.7237      46.7237      46.7237 
   75000    112.33502   -8350.3291   -7646.4758   -979.89208     102002.7      46.7237      46.7237      46.7237 
   76000     108.6807   -8323.4789   -7642.5223   -423.46571     102002.7      46.7237      46.7237      46.7237 
   77000    111.93394    -8325.515   -7624.1747   -893.62483     102002.7      46.7237      46.7237      46.7237 
   78000    107.81786   -8348.5457   -7672.9953   -758.97811     102002.7      46.7237      46.7237      46.7237 
   79000     106.1713   -8330.9738   -7665.7402   -750.94133     102002.7      46.7237      46.7237      46.7237 
   80000    113.16427   -8335.0184   -7625.9692   -966.16961     102002.7      46.7237      46.7237      46.7237 
   81000    111.71991   -8336.3444   -7636.3452   -572.09223     102002.7      46.7237      46.7237      46.7237 
   82000    107.40432   -8330.8227   -7657.8635   -835.60499     102002.7      46.7237      46.7237      46.7237 
   83000    110.19642   -8336.7208   -7646.2671   -738.35528     102002.7      46.7237      46.7237      46.7237 
   84000    107.87923   -8302.1873   -7626.2524   -912.23641     102002.7      46.7237      46.7237      46.7237 
   85000    110.48359   -8346.5592   -7654.3063   -863.10201     102002.7      46.7237      46.7237      46.7237 
   86000    109.26498   -8334.0894   -7649.4718   -614.93674     102002.7      46.7237      46.7237      46.7237 
   87000     112.0629   -8340.6869   -7638.5386   -717.48324     102002.7      46.7237      46.7237      46.7237 
   88000    109.52163   -8337.5704   -7651.3448   -795.53131     102002.7      46.7237      46.7237      46.7237 
   89000    108.96301   -8338.5691   -7655.8436   -671.06438     102002.7      46.7237      46.7237      46.7237 
   90000     108.2102   -8327.1264   -7649.1178   -841.31626     102002.7      46.7237      46.7237      46.7237 
   91000    110.54613   -8317.3393   -7624.6945   -705.98706     102002.7      46.7237      46.7237      46.7237 
   92000    112.16073   -8325.7883    -7623.027   -821.56752     102002.7      46.7237      46.7237      46.7237 
   93000    109.73547   -8351.8851   -7664.3196   -438.10708     102002.7      46.7237      46.7237      46.7237 
   94000    110.14283   -8333.8781   -7643.7602   -905.46003     102002.7      46.7237      46.7237      46.7237 
   95000    111.17356    -8346.834    -7650.258    -675.1698     102002.7      46.7237      46.7237      46.7237 
   96000    109.84347   -8354.2658   -7666.0237   -621.42298     102002.7      46.7237      46.7237      46.7237 
   97000    110.85836   -8358.9713   -7664.3702   -679.63291     102002.7      46.7237      46.7237      46.7237 
   98000    110.75184   -8339.4392   -7645.5055   -712.39975     102002.7      46.7237      46.7237      46.7237 
   99000    108.27999   -8317.6018   -7639.1559   -619.76979     102002.7      46.7237      46.7237      46.7237 
  100000    110.98881   -8319.5309   -7624.1124   -649.94183     102002.7      46.7237      46.7237      46.7237 
  101000    108.83574   -8339.4238   -7657.4957   -648.16819     102002.7      46.7237      46.7237      46.7237 
  102000    109.12682   -8363.4742   -7679.7224   -501.64192     102002.7      46.7237      46.7237      46.7237 
  103000     108.0038   -8315.9254     -7639.21   -563.82729     102002.7      46.7237      46.7237      46.7237 
  104000    109.97659   -8331.8752    -7642.799   -351.87693     102002.7      46.7237      46.7237      46.7237 
  105000    106.56546   -8333.7492    -7666.046    -814.2199     102002.7      46.7237      46.7237      46.7237 
  106000    111.90205   -8348.1649   -7647.0244   -692.18282     102002.7      46.7237      46.7237      46.7237 
  107000    110.64867    -8310.613   -7617.3257   -882.53271     102002.7      46.7237      46.7237      46.7237 
  108000    110.21625   -8347.5295   -7656.9517   -760.09527     102002.7      46.7237      46.7237      46.7237 
  109000     112.3344   -8330.3066   -7626.4572   -660.00375     102002.7      46.7237      46.7237      46.7237 
  110000    110.59204   -8323.3815   -7630.4491   -674.72872     102002.7      46.7237      46.7237      46.7237 
  111000    109.86001   -8322.4704   -7634.1247   -1133.3587     102002.7      46.7237      46.7237      46.7237 
  112000    107.11741   -8336.2943   -7665.1327   -592.20866     102002.7      46.7237      46.7237      46.7237 
  113000      112.508   -8329.5846   -7624.6474   -667.75342     102002.7      46.7237      46.7237      46.7237 
  114000    111.48401   -8308.9283   -7610.4071   -937.83494     102002.7      46.7237      46.7237      46.7237 
  115000    111.61176   -8349.2894   -7649.9678   -784.99031     102002.7      46.7237      46.7237      46.7237 
  116000    109.41233   -8321.4926   -7635.9518   -980.18433     102002.7      46.7237      46.7237      46.7237 
  117000    108.36741   -8331.9859   -7652.9922    -902.1908     102002.7      46.7237      46.7237      46.7237 
  118000    108.95993   -8335.8697   -7653.1635   -694.64596     102002.7      46.7237      46.7237      46.7237 
  119000    114.57566   -8334.7879   -7616.8954   -1029.1327     102002.7      46.7237      46.7237      46.7237 
  120000    112.21798   -8365.4809   -7662.3608   -696.84098     102002.7      46.7237      46.7237      46.7237 
  121000     112.3618   -8343.1573   -7639.1362   -927.36496     102002.7      46.7237      46.7237      46.7237 
  122000    110.07934   -8338.8237   -7649.1037   -717.15818     102002.7      46.7237      46.7237      46.7237 
  123000    110.92515   -8342.4236    -7647.404   -697.78321     102002.7      46.7237      46.7237      46.7237 
  124000    113.62171   -8339.6581   -7627.7428   -566.55474     102002.7      46.7237      46.7237      46.7237 
  125000    110.87993   -8307.0936   -7612.3574   -326.63829     102002.7      46.7237      46.7237      46.7237 
  126000    110.79914   -8334.3254   -7640.0954   -589.94834     102002.7      46.7237      46.7237      46.7237 
  127000    109.87697   -8350.3235   -7661.8715    -835.2719     102002.7      46.7237      46.7237      46.7237 
  128000    110.41815   -8338.4003   -7646.5574   -969.14777     102002.7      46.7237      46.7237      46.7237 
  129000     113.3366   -8338.0905   -7627.9616   -603.87418     102002.7      46.7237      46.7237      46.7237 
  130000    110.42923   -8340.6558   -7648.7435   -763.89432     102002.7      46.7237      46.7237      46.7237 
  131000    109.67763   -8331.1421    -7643.939    -553.7488     102002.7      46.7237      46.7237      46.7237 
  132000    112.08247   -8315.9827   -7613.7117   -557.17213     102002.7      46.7237      46.7237      46.7237 
  133000    109.54184   -8354.5321   -7668.1799   -902.96326     102002.7      46.7237      46.7237      46.7237 
  134000    109.92608   -8332.2657   -7643.5059   -647.43767     102002.7      46.7237      46.7237      46.7237 
  135000     112.1037   -8347.6688   -7645.2649   -835.47272     102002.7      46.7237      46.7237      46.7237 
  136000    112.86735   -8329.9809   -7622.7921   -850.01031     102002.7      46.7237      46.7237      46.7237 
  137000    109.01876   -8351.8818    -7668.807   -781.09179     102002.7      46.7237      46.7237      46.7237 
  138000      110.908   -8320.0159   -7625.1038   -573.41061     102002.7      46.7237      46.7237      46.7237 
  139000    110.27777   -8315.5439   -7624.5806   -372.11482     102002.7      46.7237      46.7237      46.7237 
  140000    108.98116   -8317.3695   -7634.5303   -479.26619     102002.7      46.7237      46.7237      46.7237 
  141000     109.5307   -8354.9337   -7668.6513    -568.8865     102002.7      46.7237      46.7237      46.7237 
  142000    109.91224   -8313.8802   -7625.2072   -427.34448     102002.7      46.7237      46.7237      46.7237 
  143000    108.20301   -8333.7624   -7655.7988   -849.07693     102002.7      46.7237      46.7237      46.7237 
  144000    111.64621   -8323.9898   -7624.4524    -488.6221     102002.7      46.7237      46.7237      46.7237 
  145000    110.11374   -8346.8374   -7656.9019   -489.50729     102002.7      46.7237      46.7237      46.7237 
  146000    109.47192   -8321.6166   -7635.7025   -688.14932     102002.7      46.7237      46.7237      46.7237 
  147000    111.17868   -8340.8724   -7644.2643   -573.42956     102002.7      46.7237      46.7237      46.7237 
  148000    109.45586   -8347.2222   -7661.4087   -604.87878     102002.7      46.7237      46.7237      46.7237 
  149000     103.7115   -8326.9817   -7677.1604   -836.57292     102002.7      46.7237      46.7237      46.7237 
  150000    110.98043   -8339.1099    -7643.744   -796.81459     102002.7      46.7237      46.7237      46.7237 
  151000    107.64478   -8342.7735   -7668.3076   -834.90876     102002.7      46.7237      46.7237      46.7237 
  152000    110.13364   -8332.9073   -7642.8471   -995.37028     102002.7      46.7237      46.7237      46.7237 
  153000    116.50229   -8336.1587   -7606.1946   -626.13483     102002.7      46.7237      46.7237      46.7237 
  154000    108.59185   -8318.0989    -7637.699   -755.52093     102002.7      46.7237      46.7237      46.7237 
  155000    112.75758   -8342.8036   -7636.3027   -851.02892     102002.7      46.7237      46.7237      46.7237 
  156000    110.11741   -8346.1836   -7656.2251   -931.72503     102002.7      46.7237      46.7237      46.7237 
  157000    107.83163   -8345.9826    -7670.346   -699.33361     102002.7      46.7237      46.7237      46.7237 
  158000     111.5196   -8337.6971   -7638.9529   -597.16143     102002.7      46.7237      46.7237      46.7237 
  159000    108.69026    -8339.223   -7658.2065   -1062.6077     102002.7      46.7237      46.7237      46.7237 
  160000    109.32026   -8361.7518   -7676.7879   -506.07651     102002.7      46.7237      46.7237      46.7237 
  161000    106.39278   -8318.9254   -7652.3041   -745.74093     102002.7      46.7237      46.7237      46.7237 
  162000    113.22709   -8304.7353   -7595.2925   -625.56822     102002.7      46.7237      46.7237      46.7237 
  163000    107.80797   -8331.8107   -7656.3223   -735.75008     102002.7      46.7237      46.7237      46.7237 
  164000    109.41027   -8376.1526   -7690.6247   -881.41121     102002.7      46.7237      46.7237      46.7237 
  165000    108.68628   -8317.4191   -7636.4275   -726.84532     102002.7      46.7237      46.7237      46.7237 
  166000    108.38309   -8322.6422   -7643.5502   -577.71967     102002.7      46.7237      46.7237      46.7237 
  167000     108.5667   -8315.1919   -7634.9496   -866.89604     102002.7      46.7237      46.7237      46.7237 
  168000    106.75772   -8336.9673   -7668.0594   -746.17738     102002.7      46.7237      46.7237      46.7237 
  169000    109.58558   -8326.0036   -7639.3774   -861.87989     102002.7      46.7237      46.7237      46.7237 
  170000    109.93336   -8313.2043    -7624.399   -686.32381     102002.7      46.7237      46.7237      46.7237 
  171000    111.41175   -8325.9162   -7627.8477   -672.84977     102002.7      46.7237      46.7237      46.7237 
  172000    108.30202   -8330.8536   -7652.2696   -669.16829     102002.7      46.7237      46.7237      46.7237 
  173000    109.66599   -8341.6242   -7654.4941   -622.77414     102002.7      46.7237      46.7237      46.7237 
  174000    108.24452   -8321.0495   -7642.8258    -1083.323     102002.7      46.7237      46.7237      46.7237 
  175000    107.86311   -8331.5683   -7655.7345     -649.284     102002.7      46.7237      46.7237      46.7237 
  176000      110.525   -8306.1118   -7613.5995   -912.43585     102002.7      46.7237      46.7237      46.7237 
  177000    109.14542   -8332.1634    -7648.295   -672.47026     102002.7      46.7237      46.7237      46.7237 
  178000     112.4194   -8323.6321   -7619.2501   -681.23373     102002.7      46.7237      46.7237      46.7237 
  179000    110.26852   -8320.9037   -7629.9984   -1016.6097     102002.7      46.7237      46.7237      46.7237 
  180000    109.88716   -8316.8376   -7628.3217   -478.71303     102002.7      46.7237      46.7237      46.7237 
  181000    110.71641   -8291.7664   -7598.0547    -843.1184     102002.7      46.7237      46.7237      46.7237 
  182000    108.17986   -8337.1009   -7659.2824    -722.7985     102002.7      46.7237      46.7237      46.7237 
  183000    110.10889   -8349.3714   -7659.4662   -687.01273     102002.7      46.7237      46.7237      46.7237 
  184000    112.34871   -8332.9647   -7629.0256   -841.70083     102002.7      46.7237      46.7237      46.7237 
  185000     111.3003   -8345.0432   -7647.6731   -682.88088     102002.7      46.7237      46.7237      46.7237 
  186000    111.35578    -8331.194   -7633.4762    -627.9922     102002.7      46.7237      46.7237      46.7237 
  187000    110.45654   -8330.8818   -7638.7983   -747.76228     102002.7      46.7237      46.7237      46.7237 
  188000     109.2394    -8353.028   -7668.5707   -566.71253     102002.7      46.7237      46.7237      46.7237 
  189000    108.36286   -8325.8827   -7646.9176   -610.04825     102002.7      46.7237      46.7237      46.7237 
  190000    114.94995   -8352.1652   -7631.9276   -411.97311     102002.7      46.7237      46.7237      46.7237 
  191000    111.71726   -8365.4927   -7665.5101   -927.08476     102002.7      46.7237      46.7237      46.7237 
  192000      111.588   -8314.4359   -7615.2631   -363.94249     102002.7      46.7237      46.7237      46.7237 
  193000    109.43593   -8334.6319   -7648.9433   -597.43857     102002.7      46.7237      46.7237      46.7237 
  194000    111.98706   -8335.8876   -7634.2145   -1084.9013     102002.7      46.7237      46.7237      46.7237 
  195000    108.32091   -8351.4333    -7672.731   -650.66276     102002.7      46.7237      46.7237      46.7237 
  196000    107.89759   -8302.1749    -7626.125   -922.81353     102002.7      46.7237      46.7237      46.7237 
  197000    109.84481   -8342.6949   -7654.4444   -836.74956     102002.7      46.7237      46.7237      46.7237 
  198000    108.18886   -8329.2348   -7651.3599   -994.67643     102002.7      46.7237      46.7237      46.7237 
  199000    106.26645   -8313.1294   -7647.2997   -857.07199     102002.7      46.7237      46.7237      46.7237 
  200000    109.83375   -8321.5752    -7633.394   -677.94714     102002.7      46.7237      46.7237      46.7237 
  201000    108.44087   -8311.7939     -7632.34   -999.35174     102002.7      46.7237      46.7237      46.7237 
  202000     106.4999   -8334.6401   -7667.3477   -668.03124     102002.7      46.7237      46.7237      46.7237 
  203000    107.56368   -8330.7476   -7656.7899   -581.01939     102002.7      46.7237      46.7237      46.7237 
  204000     107.6775   -8351.6616   -7676.9907   -828.88594     102002.7      46.7237      46.7237      46.7237 
  205000    111.15841   -8337.7266   -7641.2455   -788.74973     102002.7      46.7237      46.7237      46.7237 
  206000    110.32348   -8334.5713   -7643.3216   -632.31127     102002.7      46.7237      46.7237      46.7237 
  207000    110.49167   -8314.4758   -7622.1723   -594.62043     102002.7      46.7237      46.7237      46.7237 
  208000    108.59041   -8327.7813   -7647.3904    -713.7954     102002.7      46.7237      46.7237      46.7237 
  209000    114.05485   -8333.4706   -7618.8413    -694.4896     102002.7      46.7237      46.7237      46.7237 
  210000     111.3291   -8349.9385   -7652.3879   -317.73678     102002.7      46.7237      46.7237      46.7237 
  211000    111.35581   -8352.2511   -7654.5332   -726.11637     102002.7      46.7237      46.7237      46.7237 
  212000    109.28722   -8324.1358   -7639.3789   -661.55247     102002.7      46.7237      46.7237      46.7237 
  213000    112.70193   -8327.7649   -7621.6126    -797.7715     102002.7      46.7237      46.7237      46.7237 
  214000    109.12505   -8332.3504   -7648.6096    -873.8808     102002.7      46.7237      46.7237      46.7237 
  215000    111.58409   -8309.6583     -7610.51   -789.45489     102002.7      46.7237      46.7237      46.7237 
  216000    110.61985   -8322.7281   -7629.6215   -1104.5618     102002.7      46.7237      46.7237      46.7237 
  217000    109.86501   -8333.4338   -7645.0567     -409.687     102002.7      46.7237      46.7237      46.7237 
  218000    111.77586   -8337.2238   -7636.8739   -763.57454     102002.7      46.7237      46.7237      46.7237 
  219000    109.27659   -8360.7393    -7676.049   -662.87219     102002.7      46.7237      46.7237      46.7237 
  220000    108.90651   -8327.4456   -7645.0741   -866.39207     102002.7      46.7237      46.7237      46.7237 
  221000    111.31717   -8315.0437   -7617.5678   -638.24362     102002.7      46.7237      46.7237      46.7237 
  222000    108.00319   -8336.1999   -7659.4883   -658.62056     102002.7      46.7237      46.7237      46.7237 
  223000     110.1285    -8346.986    -7656.958   -696.65841     102002.7      46.7237      46.7237      46.7237 
  224000    110.65897   -8338.1537   -7644.8019   -914.58545     102002.7      46.7237      46.7237      46.7237 
  225000    109.38673   -8321.7116   -7636.3313   -693.05899     102002.7      46.7237      46.7237      46.7237 
  226000    111.82409   -8347.9994   -7647.3474   -847.21572     102002.7      46.7237      46.7237      46.7237 
  227000    109.75025   -8319.2686   -7631.6105   -959.69318     102002.7      46.7237      46.7237      46.7237 
  228000    109.11678   -8341.8642   -7658.1752   -813.53625     102002.7      46.7237      46.7237      46.7237 
  229000    114.12673   -8326.1051   -7611.0255   -722.04303     102002.7      46.7237      46.7237      46.7237 
  230000    108.65559   -8316.0179   -7635.2186     -608.794     102002.7      46.7237      46.7237      46.7237 
  231000    107.43331   -8302.2921   -7629.1513   -628.57205     102002.7      46.7237      46.7237      46.7237 
  232000    109.76559    -8336.096   -7648.3419   -814.00321     102002.7      46.7237      46.7237      46.7237 
  233000    108.43959   -8335.0153   -7655.5694   -356.79294     102002.7      46.7237      46.7237      46.7237 
  234000    108.92418   -8341.2283   -7658.7461    -437.6865     102002.7      46.7237      46.7237      46.7237 
  235000    110.07466   -8349.6638   -7659.9731   -493.53074     102002.7      46.7237      46.7237      46.7237 
  236000    110.24908   -8320.0679   -7629.2843   -524.80124     102002.7      46.7237      46.7237      46.7237 
  237000    110.59055   -8315.1218   -7622.1987   -706.38681     102002.7      46.7237      46.7237      46.7237 
  238000    110.92456   -8298.0444   -7603.0285   -581.67742     102002.7      46.7237      46.7237      46.7237 
  239000    112.46615   -8340.4317   -7635.7568   -589.83348     102002.7      46.7237      46.7237      46.7237 
  240000    108.07059   -8351.7783   -7674.6444   -777.80131     102002.7      46.7237      46.7237      46.7237 
  241000    107.01979   -8330.0126   -7659.4627   -300.92172     102002.7      46.7237      46.7237      46.7237 
  242000    111.46391   -8329.2182   -7630.8229   -410.56313     102002.7      46.7237      46.7237      46.7237 
  243000    107.60154   -8327.3666   -7653.1716   -777.71216     102002.7      46.7237      46.7237      46.7237 
  244000    108.68465   -8323.6095   -7642.6282   -633.65642     102002.7      46.7237      46.7237      46.7237 
  245000    111.94074   -8329.4083   -7628.0254   -612.37657     102002.7      46.7237      46.7237      46.7237 
  246000    108.90304   -8336.3914   -7654.0417   -624.27723     102002.7      46.7237      46.7237      46.7237 
  247000    112.04449   -8308.6967   -7606.6637   -549.12401     102002.7      46.7237      46.7237      46.7237 
  248000     109.3553   -8328.1427   -7642.9593   -881.97616     102002.7      46.7237      46.7237      46.7237 
  249000    109.41118   -8313.8205    -7628.287   -607.01151     102002.7      46.7237      46.7237      46.7237 
  250000    107.97658   -8315.6024   -7639.0575   -655.51121     102002.7      46.7237      46.7237      46.7237 
  251000    111.48936   -8340.2623   -7641.7076   -737.63864     102002.7      46.7237      46.7237      46.7237 
  252000    113.29246   -8311.9099   -7602.0576   -530.27062     102002.7      46.7237      46.7237      46.7237 
  253000    111.49688   -8329.2189   -7630.6171   -848.41813     102002.7      46.7237      46.7237      46.7237 
  254000    108.38863    -8329.163   -7650.0364   -557.26031     102002.7      46.7237      46.7237      46.7237 
  255000    111.74543   -8290.6396   -7590.4805   -761.44442     102002.7      46.7237      46.7237      46.7237 
  256000    111.85417   -8333.6374   -7632.7969   -957.54352     102002.7      46.7237      46.7237      46.7237 
  257000    107.66422   -8342.2537    -7667.666   -496.95807     102002.7      46.7237      46.7237      46.7237 
  258000    111.15157   -8319.5493   -7623.1111    -867.0064     102002.7      46.7237      46.7237      46.7237 
  259000    110.75534   -8362.3398   -7668.3841   -866.99119     102002.7      46.7237      46.7237      46.7237 
  260000    109.87354   -8332.8034   -7644.3729   -793.35203     102002.7      46.7237      46.7237      46.7237 
  261000    110.51268   -8326.8766   -7634.4414   -816.18651     102002.7      46.7237      46.7237      46.7237 
  262000    107.25132   -8328.2826    -7656.282   -582.18448     102002.7      46.7237      46.7237      46.7237 
  263000    110.80482   -8336.8854   -7642.6198   -926.96206     102002.7      46.7237      46.7237      46.7237 
  264000    109.97718   -8328.4108   -7639.3309   -676.98567     102002.7      46.7237      46.7237      46.7237 
  265000    109.75964   -8312.1199    -7624.403    -705.3048     102002.7      46.7237      46.7237      46.7237 
  266000    111.66881   -8327.2655   -7627.5864   -490.11329     102002.7      46.7237      46.7237      46.7237 
  267000    107.99329    -8310.918   -7634.2684   -716.94383     102002.7      46.7237      46.7237      46.7237 
  268000    108.68845   -8323.6729   -7642.6677     -998.911     102002.7      46.7237      46.7237      46.7237 
  269000     110.6597   -8326.5947   -7633.2383   -721.65319     102002.7      46.7237      46.7237      46.7237 
  270000    107.72567   -8316.7987    -7641.826   -880.52607     102002.7      46.7237      46.7237      46.7237 
  271000    108.91714   -8335.5052   -7653.0671   -939.69811     102002.7      46.7237      46.7237      46.7237 
  272000    110.64365   -8325.1368    -7631.881   -886.79979     102002.7      46.7237      46.7237      46.7237 
  273000    109.70933   -8347.9833   -7660.5817   -765.16191     102002.7      46.7237      46.7237      46.7237 
  274000    108.35997   -8298.6979   -7619.7509   -711.05997     102002.7      46.7237      46.7237      46.7237 
  275000    105.52276    -8330.893    -7669.723    -699.7159     102002.7      46.7237      46.7237      46.7237 
  276000    110.01608   -8328.3951   -7639.0715   -620.39637     102002.7      46.7237      46.7237      46.7237 
  277000    112.73671   -8316.1808   -7609.8106   -737.45655     102002.7      46.7237      46.7237      46.7237 
  278000    111.00277   -8328.6474   -7633.1415    -599.2423     102002.7      46.7237      46.7237      46.7237 
  279000    108.49578    -8308.308     -7628.51   -798.75722     102002.7      46.7237      46.7237      46.7237 
  280000    109.65156   -8338.0786   -7651.0389   -745.61065     102002.7      46.7237      46.7237      46.7237 
  281000    109.11001   -8325.2862   -7641.6397   -576.09417     102002.7      46.7237      46.7237      46.7237 
  282000    111.93184   -8327.1633   -7625.8361   -622.53993     102002.7      46.7237      46.7237      46.7237 
  283000    114.09492   -8324.9534   -7610.0731   -634.94189     102002.7      46.7237      46.7237      46.7237 
  284000     110.6324   -8297.4527   -7604.2674   -696.70317     102002.7      46.7237      46.7237      46.7237 
  285000    111.36352   -8319.2273   -7621.4611   -646.99646     102002.7      46.7237      46.7237      46.7237 
  286000    107.98821   -8339.9418   -7663.3241   -602.18834     102002.7      46.7237      46.7237      46.7237 
  287000    107.63122   -8331.6493   -7657.2684    -598.3537     102002.7      46.7237      46.7237      46.7237 
  288000    110.48103   -8338.9751   -7646.7382    -488.0144     102002.7      46.7237      46.7237      46.7237 
  289000    109.72675   -8357.3296   -7669.8188   -660.91891     102002.7      46.7237      46.7237      46.7237 
  290000    108.05244   -8338.4309   -7661.4107    -553.8899     102002.7      46.7237      46.7237      46.7237 
  291000    111.29755   -8342.4544   -7645.1015   -693.60716     102002.7      46.7237      46.7237      46.7237 
  292000    107.59219   -8323.7515   -7649.6151   -823.52973     102002.7      46.7237      46.7237      46.7237 
  293000    109.25052   -8340.2668   -7655.7399   -652.79275     102002.7      46.7237      46.7237      46.7237 
  294000    110.64287   -8305.0654   -7611.8145   -950.03163     102002.7      46.7237      46.7237      46.7237 
  295000    111.00259   -8310.4323   -7614.9275   -499.21194     102002.7      46.7237      46.7237      46.7237 
  296000      107.037   -8306.3365   -7635.6787   -688.74982     102002.7      46.7237      46.7237      46.7237 
  297000    108.59103   -8305.8266   -7625.4318   -786.41077     102002.7      46.7237      46.7237      46.7237 
  298000    110.72641   -8306.7095   -7612.9351   -722.11625     102002.7      46.7237      46.7237      46.7237 
  299000    110.57961   -8332.8734   -7640.0189   -517.89364     102002.7      46.7237      46.7237      46.7237 
  300000    109.04992   -8354.0902   -7670.8202   -766.86902     102002.7      46.7237      46.7237      46.7237 
  301000    109.26858   -8318.3957   -7633.7557   -692.46222     102002.7      46.7237      46.7237      46.7237 
  302000    108.28987   -8291.3661   -7612.8583   -553.77164     102002.7      46.7237      46.7237      46.7237 
  303000     111.7664    -8323.152   -7622.8614   -439.44034     102002.7      46.7237      46.7237      46.7237 
  304000    110.34925   -8316.3878   -7624.9766   -624.88337     102002.7      46.7237      46.7237      46.7237 
  305000    111.14348   -8326.7648   -7630.3773   -873.87008     102002.7      46.7237      46.7237      46.7237 
  306000    108.55136   -8322.3213   -7642.1752   -315.74746     102002.7      46.7237      46.7237      46.7237 
  307000    110.82298   -8310.1018   -7615.7224   -412.26885     102002.7      46.7237      46.7237      46.7237 
  308000    110.56283   -8335.7619   -7643.0126   -749.28193     102002.7      46.7237      46.7237      46.7237 
  309000    110.66229   -8328.3498   -7634.9772   -440.38544     102002.7      46.7237      46.7237      46.7237 
  310000    112.43609    -8306.127   -7601.6404    -853.8552     102002.7      46.7237      46.7237      46.7237 
  311000    110.91016   -8320.4139   -7625.4883   -540.58515     102002.7      46.7237      46.7237      46.7237 
  312000    111.51264   -8300.8046    -7602.104   -599.95979     102002.7      46.7237      46.7237      46.7237 
  313000    110.85542    -8315.287   -7620.7044   -531.87802     102002.7      46.7237      46.7237      46.7237 
  314000    113.00588    -8329.057   -7621.0003   -886.08593     102002.7      46.7237      46.7237      46.7237 
  315000    108.94763   -8301.0877   -7618.4585   -774.29504     102002.7      46.7237      46.7237      46.7237 
  316000    111.43385   -8327.5556   -7629.3487   -770.33449     102002.7      46.7237      46.7237      46.7237 
  317000    113.51423   -8324.8934   -7613.6515   -747.42289     102002.7      46.7237      46.7237      46.7237 
  318000    109.03328   -8296.2678    -7613.102    -829.2573     102002.7      46.7237      46.7237      46.7237 
  319000    109.06726   -8346.2446   -7662.8659   -738.64995     102002.7      46.7237      46.7237      46.7237 
  320000    108.11939   -8308.0121   -7630.5724   -1107.7181     102002.7      46.7237      46.7237      46.7237 
  321000    111.41271   -8288.3686   -7590.2942   -416.49243     102002.7      46.7237      46.7237      46.7237 
  322000    108.21911   -8328.0628   -7649.9983    -919.0654     102002.7      46.7237      46.7237      46.7237 
  323000    111.45701   -8321.9814   -7623.6294   -938.60359     102002.7      46.7237      46.7237      46.7237 
  324000    114.35684   -8317.7337   -7601.2123   -670.26099     102002.7      46.7237      46.7237      46.7237 
  325000    112.29609   -8335.1598   -7631.5504   -885.28765     102002.7      46.7237      46.7237      46.7237 
  326000    111.99116   -8324.3701   -7622.6713   -894.92093     102002.7      46.7237      46.7237      46.7237 
  327000    108.97442    -8315.661    -7632.864   -717.12733     102002.7      46.7237      46.7237      46.7237 
  328000    111.56122   -8334.6238   -7635.6188   -508.26776     102002.7      46.7237      46.7237      46.7237 
  329000    112.04588   -8326.9135   -7624.8718   -807.27541     102002.7      46.7237      46.7237      46.7237 
  330000    108.36755   -8318.5422   -7639.5477   -926.23183     102002.7      46.7237      46.7237      46.7237 
  331000    109.66624   -8339.6024   -7652.4707   -717.51728     102002.7      46.7237      46.7237      46.7237 
  332000    109.50537    -8321.648   -7635.5243   -639.60575     102002.7      46.7237      46.7237      46.7237 
  333000    111.02276   -8318.5768   -7622.9456   -780.65476     102002.7      46.7237      46.7237      46.7237 
  334000    108.94183   -8312.6983   -7630.1055   -731.28546     102002.7      46.7237      46.7237      46.7237 
  335000    111.37405   -8340.4505   -7642.6182    -659.5723     102002.7      46.7237      46.7237      46.7237 
  336000    111.72752   -8326.5718   -7626.5248    -694.1922     102002.7      46.7237      46.7237      46.7237 
  337000    110.92451   -8324.4553   -7629.4398   -726.96655     102002.7      46.7237      46.7237      46.7237 
  338000    109.49112   -8331.4365   -7645.4021   -727.79314     102002.7      46.7237      46.7237      46.7237 
  339000    109.28034   -8353.4658    -7668.752   -721.65519     102002.7      46.7237      46.7237      46.7237 
  340000    110.64976   -8331.9256   -7638.6315   -659.32986     102002.7      46.7237      46.7237      46.7237 
  341000    109.05231   -8318.7925   -7635.5075   -1155.6456     102002.7      46.7237      46.7237      46.7237 
  342000    105.98495   -8336.1891   -7672.1231   -568.67172     102002.7      46.7237      46.7237      46.7237 
  343000    109.83924   -8351.7316    -7663.516   -520.67725     102002.7      46.7237      46.7237      46.7237 
  344000    110.96055   -8322.8293   -7627.5879   -679.92925     102002.7      46.7237      46.7237      46.7237 
  345000    110.01335   -8343.5519   -7654.2454   -293.68893     102002.7      46.7237      46.7237      46.7237 
  346000    111.18615   -8313.0785   -7616.4235   -971.89302     102002.7      46.7237      46.7237      46.7237 
  347000    108.36687   -8322.1106   -7643.1204   -715.04378     102002.7      46.7237      46.7237      46.7237 
  348000    109.29936   -8330.3385   -7645.5055   -588.98273     102002.7      46.7237      46.7237      46.7237 
  349000    112.35006   -8328.4116   -7624.4641   -724.39114     102002.7      46.7237      46.7237      46.7237 
  350000    109.28445    -8335.732   -7650.9925   -485.06298     102002.7      46.7237      46.7237      46.7237 
  351000    112.93473   -8330.2481   -7622.6371    -701.7682     102002.7      46.7237      46.7237      46.7237 
  352000    111.27116   -8312.9515   -7615.7639   -805.00246     102002.7      46.7237      46.7237      46.7237 
  353000    109.23691   -8317.3956   -7632.9539   -482.80607     102002.7      46.7237      46.7237      46.7237 
  354000    107.66043   -8354.9933   -7680.4294   -775.93007     102002.7      46.7237      46.7237      46.7237 
  355000    108.20213   -8321.5441   -7643.5861   -706.55471     102002.7      46.7237      46.7237      46.7237 
  356000    111.02974   -8294.9687   -7599.2938   -573.46152     102002.7      46.7237      46.7237      46.7237 
  357000    111.41662   -8337.7721   -7639.6732   -759.71451     102002.7      46.7237      46.7237      46.7237 
  358000    111.05095   -8328.5623   -7632.7545   -483.26892     102002.7      46.7237      46.7237      46.7237 
  359000    113.94999   -8315.2721   -7601.2999   -676.88185     102002.7      46.7237      46.7237      46.7237 
  360000    112.43375   -8342.8155   -7638.3436   -516.74013     102002.7      46.7237      46.7237      46.7237 
  361000    109.19709   -8329.5791    -7645.387   -790.61578     102002.7      46.7237      46.7237      46.7237 
  362000    107.98725   -8343.6948   -7667.0831   -775.16378     102002.7      46.7237      46.7237      46.7237 
  363000    112.72335   -8332.3665   -7626.0801   -711.74781     102002.7      46.7237      46.7237      46.7237 
  364000    109.36451   -8337.7489   -7652.5077   -461.36666     102002.7      46.7237      46.7237      46.7237 
  365000    111.76146   -8325.5625   -7625.3029   -623.01898     102002.7      46.7237      46.7237      46.7237 
  366000    109.12652   -8337.4133   -7653.6633   -647.31655     102002.7      46.7237      46.7237      46.7237 
  367000    110.06117   -8344.5356   -7654.9294   -831.50572     102002.7      46.7237      46.7237      46.7237 
  368000     109.6875   -8308.2083   -7620.9434   -699.63488     102002.7      46.7237      46.7237      46.7237 
  369000    109.35697   -8322.8252   -7637.6313   -681.68957     102002.7      46.7237      46.7237      46.7237 
  370000    106.98231    -8345.032   -7674.7169   -859.65075     102002.7      46.7237      46.7237      46.7237 
  371000    110.56839   -8326.7409   -7633.9567    -559.2475     102002.7      46.7237      46.7237      46.7237 
  372000    107.27263   -8350.8809   -7678.7468   -760.38692     102002.7      46.7237      46.7237      46.7237 
  373000    110.76195   -8345.0231   -7651.0261   -707.60873     102002.7      46.7237      46.7237      46.7237 
  374000    113.75092   -8323.1354   -7610.4105   -602.68282     102002.7      46.7237      46.7237      46.7237 
  375000    108.23958   -8343.0104   -7664.8178   -933.95495     102002.7      46.7237      46.7237      46.7237 
  376000    109.42233   -8335.4088   -7649.8054   -827.12654     102002.7      46.7237      46.7237      46.7237 
  377000    107.10496   -8343.6602   -7672.5767   -635.44772     102002.7      46.7237      46.7237      46.7237 
  378000    108.41814   -8331.8628   -7652.5514   -782.59087     102002.7      46.7237      46.7237      46.7237 
  379000    112.53064   -8320.0062   -7614.9272   -934.58482     102002.7      46.7237      46.7237      46.7237 
  380000    111.30043   -8352.4656   -7655.0946    -1087.119     102002.7      46.7237      46.7237      46.7237 
  381000    109.03586   -8286.8155   -7603.6336   -997.74043     102002.7      46.7237      46.7237      46.7237 
  382000    111.01896   -8318.1097   -7622.5024   -543.77349     102002.7      46.7237      46.7237      46.7237 
  383000    109.50491   -8332.1876   -7646.0668   -540.28472     102002.7      46.7237      46.7237      46.7237 
  384000    106.86252   -8333.4288   -7663.8643   -694.55941     102002.7      46.7237      46.7237      46.7237 
  385000    109.72177   -8316.5107   -7629.0311   -871.08403     102002.7      46.7237      46.7237      46.7237 
  386000    112.25876   -8319.3878   -7616.0123   -869.60415     102002.7      46.7237      46.7237      46.7237 
  387000    109.82837   -8334.0822   -7645.9347   -667.14149     102002.7      46.7237      46.7237      46.7237 
  388000     110.7617   -8350.7306   -7656.7351   -519.27452     102002.7      46.7237      46.7237      46.7237 
  389000    112.32636   -8307.3607   -7603.5616   -714.14216     102002.7      46.7237      46.7237      46.7237 
  390000     107.9214   -8325.2452   -7649.0461   -799.29424     102002.7      46.7237      46.7237      46.7237 
  391000    108.67429   -8341.3562   -7660.4397   -505.68065     102002.7      46.7237      46.7237      46.7237 
  392000    111.48159   -8319.6485   -7621.1425   -677.00782     102002.7      46.7237      46.7237      46.7237 
  393000    110.32268   -8316.6472   -7625.4025   -831.75948     102002.7      46.7237      46.7237      46.7237 
  394000    108.96391   -8322.2354   -7639.5043   -783.64618     102002.7      46.7237      46.7237      46.7237 
  395000    108.75992   -8327.7643   -7646.3114   -505.71237     102002.7      46.7237      46.7237      46.7237 
  396000    111.48043    -8319.921   -7621.4222   -673.57853     102002.7      46.7237      46.7237      46.7237 
  397000    111.41589   -8322.7977   -7624.7033   -664.36703     102002.7      46.7237      46.7237      46.7237 
  398000    110.32071    -8326.077   -7634.8447   -567.20472     102002.7      46.7237      46.7237      46.7237 
  399000    109.95597   -8340.1367   -7651.1897   -359.87151     102002.7      46.7237      46.7237      46.7237 
  400000    106.13559   -8343.8008    -7678.791   -411.23974     102002.7      46.7237      46.7237      46.7237 
  401000    108.10393   -8323.3732   -7646.0304   -669.40215     102002.7      46.7237      46.7237      46.7237 
  402000    111.11535   -8324.5389   -7628.3276   -682.91433     102002.7      46.7237      46.7237      46.7237 
  403000    110.45158   -8322.3186   -7630.2662   -668.64054     102002.7      46.7237      46.7237      46.7237 
  404000    109.44051   -8321.8324   -7636.1151   -881.33181     102002.7      46.7237      46.7237      46.7237 
  405000    109.36917   -8324.8781   -7639.6078   -955.28367     102002.7      46.7237      46.7237      46.7237 
  406000    108.39218   -8340.3874   -7661.2385   -578.62802     102002.7      46.7237      46.7237      46.7237 
  407000    110.60998   -8329.6431   -7636.5983   -926.77079     102002.7      46.7237      46.7237      46.7237 
  408000    112.59195     -8341.74   -7636.2768   -975.05782     102002.7      46.7237      46.7237      46.7237 
  409000     109.8295   -8328.6629   -7640.5083   -918.03141     102002.7      46.7237      46.7237      46.7237 
  410000    111.07959   -8343.6205   -7647.6333   -766.21751     102002.7      46.7237      46.7237      46.7237 
  411000    115.21038   -8355.7347   -7633.8653   -1065.9618     102002.7      46.7237      46.7237      46.7237 
  412000    110.09501   -8350.2111   -7660.3929    -911.9176     102002.7      46.7237      46.7237      46.7237 
  413000    106.46909   -8334.5304    -7667.431   -849.21404     102002.7      46.7237      46.7237      46.7237 
  414000    113.83335   -8329.3565   -7616.1152   -785.51263     102002.7      46.7237      46.7237      46.7237 
  415000    111.46236   -8331.5841   -7633.1985   -874.41397     102002.7      46.7237      46.7237      46.7237 
  416000    108.99065   -8360.6107   -7677.7121   -809.73742     102002.7      46.7237      46.7237      46.7237 
  417000    112.27464   -8360.2729   -7656.7979   -753.23336     102002.7      46.7237      46.7237      46.7237 
  418000     112.8023   -8333.5719   -7626.7907   -769.11929     102002.7      46.7237      46.7237      46.7237 
  419000    111.92358   -8340.1808   -7638.9054   -903.58852     102002.7      46.7237      46.7237      46.7237 
  420000    111.68737   -8348.6676   -7648.8722   -525.87747     102002.7      46.7237      46.7237      46.7237 
  421000    107.37536   -8344.2995   -7671.5217    -831.3473     102002.7      46.7237      46.7237      46.7237 
  422000    111.17658   -8332.5606   -7635.9657   -660.33561     102002.7      46.7237      46.7237      46.7237 
  423000    110.46458    -8312.023   -7619.8892   -578.03807     102002.7      46.7237      46.7237      46.7237 
  424000     109.9501    -8337.755   -7648.8448   -1066.0431     102002.7      46.7237      46.7237      46.7237 
  425000    110.17749   -8305.5027   -7615.1677   -657.37554     102002.7      46.7237      46.7237      46.7237 
  426000    108.76894   -8337.9548   -7656.4453   -650.61033     102002.7      46.7237      46.7237      46.7237 
  427000    108.82257   -8318.5088   -7636.6633   -637.06002     102002.7      46.7237      46.7237      46.7237 
  428000    111.35081   -8322.5746   -7624.8879   -656.59234     102002.7      46.7237      46.7237      46.7237 
  429000    107.97108   -8330.5994    -7654.089   -669.61291     102002.7      46.7237      46.7237      46.7237 
  430000    108.50302   -8317.1553    -7637.312   -381.99528     102002.7      46.7237      46.7237      46.7237 
  431000    111.27769   -8302.2732   -7605.0447   -693.20007     102002.7      46.7237      46.7237      46.7237 
  432000    111.85814    -8332.686   -7631.8206   -516.82837     102002.7      46.7237      46.7237      46.7237 
  433000    107.32084   -8320.6092    -7648.173   -709.22351     102002.7      46.7237      46.7237      46.7237 
  434000     115.9701   -8342.9895     -7616.36   -842.97091     102002.7      46.7237      46.7237      46.7237 
  435000    108.38677   -8305.0172   -7625.9023   -573.60415     102002.7      46.7237      46.7237      46.7237 
  436000     112.0558   -8325.6276   -7623.5238   -646.29993     102002.7      46.7237      46.7237      46.7237 
  437000    112.07684   -8310.1339   -7607.8982    -476.5827     102002.7      46.7237      46.7237      46.7237 
  438000    109.23987   -8338.9868   -7654.5266   -445.91089     102002.7      46.7237      46.7237      46.7237 
  439000    106.33441    -8328.544   -7662.2884    -906.1107     102002.7      46.7237      46.7237      46.7237 
  440000    110.62014   -8318.2533   -7625.1448   -690.87002     102002.7      46.7237      46.7237      46.7237 
  441000    113.66641   -8298.9217   -7586.7263   -511.11896     102002.7      46.7237      46.7237      46.7237 
  442000    109.67824   -8330.8433   -7643.6364   -654.64981     102002.7      46.7237      46.7237      46.7237 
  443000    108.28274   -8317.7079   -7639.2448   -653.40159     102002.7      46.7237      46.7237      46.7237 
  444000    110.27855   -8339.3669   -7648.3988   -864.11671     102002.7      46.7237      46.7237      46.7237 
  445000    111.02646   -8337.5321   -7641.8777   -715.22472     102002.7      46.7237      46.7237      46.7237 
  446000    110.16644   -8337.4927   -7647.2269   -743.34744     102002.7      46.7237      46.7237      46.7237 
  447000    111.17085   -8305.5689   -7609.0099   -690.94524     102002.7      46.7237      46.7237      46.7237 
  448000    107.99338   -8312.0398   -7635.3898   -664.22138     102002.7      46.7237      46.7237      46.7237 
  449000    108.98981   -8335.8498   -7652.9565   -897.41885     102002.7      46.7237      46.7237      46.7237 
  450000    108.53887   -8315.0909   -7635.0229    -868.3552     102002.7      46.7237      46.7237      46.7237 
  451000     111.0281    -8335.149   -7639.4844   -843.62212     102002.7      46.7237      46.7237      46.7237 
  452000    111.76287   -8310.4239   -7610.1555   -985.73402     102002.7      46.7237      46.7237      46.7237 
  453000    109.07832    -8329.626   -7646.1781   -1019.9941     102002.7      46.7237      46.7237      46.7237 
  454000    106.06244   -8303.0819   -7638.5304   -875.98996     102002.7      46.7237      46.7237      46.7237 
  455000    109.62934   -8334.7526   -7647.8521   -615.03051     102002.7      46.7237      46.7237      46.7237 
  456000    108.57741   -8303.4117   -7623.1023   -866.79721     102002.7      46.7237      46.7237      46.7237 
  457000    107.35147   -8313.5855   -7640.9573   -533.23701     102002.7      46.7237      46.7237      46.7237 
  458000    109.78008   -8299.9084   -7612.0635   -637.16353     102002.7      46.7237      46.7237      46.7237 
  459000    108.63521   -8307.9906    -7627.319    -804.9528     102002.7      46.7237      46.7237      46.7237 
  460000    109.00472   -8314.8902   -7631.9033   -723.09276     102002.7      46.7237      46.7237      46.7237 
  461000    109.39651   -8303.9915   -7618.5498   -900.90129     102002.7      46.7237      46.7237      46.7237 
  462000    107.26073    -8335.965   -7663.9054   -548.32044     102002.7      46.7237      46.7237      46.7237 
  463000     111.7267    -8321.575   -7621.5331    -818.3847     102002.7      46.7237      46.7237      46.7237 
  464000    106.85866   -8329.1455   -7659.6052   -684.00258     102002.7      46.7237      46.7237      46.7237 
  465000    108.97321   -8325.1523   -7642.3629   -946.30991     102002.7      46.7237      46.7237      46.7237 
  466000    110.00469   -8319.3539   -7630.1016    -837.7567     102002.7      46.7237      46.7237      46.7237 
  467000    110.40311   -8295.9304   -7604.1818   -780.30932     102002.7      46.7237      46.7237      46.7237 
  468000    109.99353   -8336.2885   -7647.1061   -653.05993     102002.7      46.7237      46.7237      46.7237 
  469000     108.1244   -8315.2766   -7637.8056   -671.32077     102002.7      46.7237      46.7237      46.7237 
  470000    109.94193   -8319.7566   -7630.8975     -544.799     102002.7      46.7237      46.7237      46.7237 
  471000    107.78179   -8298.0263   -7622.7019   -901.39542     102002.7      46.7237      46.7237      46.7237 
  472000    111.92478   -8312.6182   -7611.3353   -467.44519     102002.7      46.7237      46.7237      46.7237 
  473000    106.62985   -8321.7737    -7653.667   -781.97047     102002.7      46.7237      46.7237      46.7237 
  474000    108.71157   -8316.1102   -7634.9602   -878.93307     102002.7      46.7237      46.7237      46.7237 
  475000    111.40085   -8336.7414   -7638.7412   -967.14214     102002.7      46.7237      46.7237      46.7237 
  476000    112.04508   -8339.2119   -7637.1753   -1019.4867     102002.7      46.7237      46.7237      46.7237 
  477000    110.46379   -8349.1481   -7657.0193   -730.23992     102002.7      46.7237      46.7237      46.7237 
  478000    112.26377   -8294.2762   -7590.8693   -949.08401     102002.7      46.7237      46.7237      46.7237 
  479000    111.50533   -8321.4508    -7622.796   -825.21622     102002.7      46.7237      46.7237      46.7237 
  480000    109.34372   -8310.8605   -7625.7496   -774.77793     102002.7      46.7237      46.7237      46.7237 
  481000    113.34034    -8324.111   -7613.9587   -910.86629     102002.7      46.7237      46.7237      46.7237 
  482000    111.47977   -8333.4309   -7634.9363   -678.53469     102002.7      46.7237      46.7237      46.7237 
  483000    106.58319   -8337.7483    -7669.934   -838.18077     102002.7      46.7237      46.7237      46.7237 
  484000    111.49545   -8322.3282   -7623.7353   -737.28274     102002.7      46.7237      46.7237      46.7237 
  485000    112.04566   -8317.0937   -7615.0534   -702.91857     102002.7      46.7237      46.7237      46.7237 
  486000    110.06075   -8296.6358   -7607.0322    -823.5701     102002.7      46.7237      46.7237      46.7237 
  487000    109.14562   -8312.4852   -7628.6156   -670.75746     102002.7      46.7237      46.7237      46.7237 
  488000    112.17008   -8291.0248    -7588.205   -775.14548     102002.7      46.7237      46.7237      46.7237 
  489000    112.21599   -8327.2639   -7624.1564   -666.06916     102002.7      46.7237      46.7237      46.7237 
  490000    108.62196   -8307.9502   -7627.3616   -790.30907     102002.7      46.7237      46.7237      46.7237 
  491000    108.15009   -8323.9158   -7646.2838   -655.40838     102002.7      46.7237      46.7237      46.7237 
  492000     111.4002   -8314.4253   -7616.4292   -837.73608     102002.7      46.7237      46.7237      46.7237 
  493000     107.3174    -8317.326   -7644.9114    -652.5034     102002.7      46.7237      46.7237      46.7237 
  494000    108.86726   -8329.8528   -7647.7272   -781.25494     102002.7      46.7237      46.7237      46.7237 
  495000    108.94938   -8339.0207   -7656.3806   -581.75262     102002.7      46.7237      46.7237      46.7237 
  496000    109.11013   -8302.8428   -7619.1955   -540.05829     102002.7      46.7237      46.7237      46.7237 
  497000    111.09115    -8326.113   -7630.0533   -661.45918     102002.7      46.7237      46.7237      46.7237 
  498000    105.55449   -8337.1449   -7675.7761   -799.99745     102002.7      46.7237      46.7237      46.7237 
  499000    114.87436   -8328.2836   -7608.5196   -879.09602     102002.7      46.7237      46.7237      46.7237 
  500000    109.29431   -8331.0218   -7646.2205   -412.38317     102002.7      46.7237      46.7237      46.7237 
  500501    109.61047   -8319.1464   -7632.3641   -527.43776     102002.7      46.7237      46.7237      46.7237 
Loop time of 613.123 on 24 procs for 500000 steps with 2103 atoms

Performance: 70.459 ns/day, 0.341 hours/ns, 815.497 timesteps/s
99.4% CPU use with 24 MPI tasks x no OpenMP threads

MPI task timing breakdown:
Section |  min time  |  avg time  |  max time  |%varavg| %total
---------------------------------------------------------------
Pair    | 220.32     | 314.51     | 397.54     | 252.2 | 51.30
Bond    | 63.255     | 78.499     | 94.115     |  88.9 | 12.80
Neigh   | 3.5015     | 3.5259     | 3.5418     |   0.8 |  0.58
Comm    | 129.46     | 208.13     | 301.38     | 294.2 | 33.95
Output  | 0.37355    | 0.37387    | 0.37851    |   0.2 |  0.06
Modify  | 3.8537     | 4.2266     | 4.5577     |   8.8 |  0.69
Other   |            | 3.855      |            |       |  0.63

Nlocal:    87.625 ave 119 max 61 min
Histogram: 2 3 2 3 2 5 4 1 1 1
Nghost:    2379.21 ave 2540 max 2281 min
Histogram: 7 5 4 0 0 0 0 0 4 4
Neighs:    7640.38 ave 13543 max 3541 min
Histogram: 1 2 4 5 6 3 0 2 0 1

Total # of neighbors = 183369
Ave neighs/atom = 87.194
Ave special neighs/atom = 5.47789
Neighbor list builds = 4401
Dangerous builds = 0
Neighbor list info ...
  update every 1 steps, delay 10 steps, check yes
  max neighbors/atom: 2000, page size: 100000
  master list distance cutoff = 16
  ghost atom cutoff = 16
  binsize = 8, bins = 6 6 6
  3 neighbor lists, perpetual/occasional/extra = 3 0 0
  (1) pair buck6d/coul/gauss/dsf, perpetual, skip from (3)
      attributes: half, newton on
      pair build: skip
      stencil: none
      bin: none
  (2) pair lj/cut, perpetual, skip from (3)
      attributes: half, newton on
      pair build: skip
      stencil: none
      bin: none
  (3) neighbor class addition, perpetual
      attributes: half, newton on
      pair build: half/bin/newton
      stencil: half/bin/3d/newton
      bin: standard
Setting up Verlet run ...
  Unit style    : real
  Current step  : 500501
  Time step     : 1
WARNING: Inconsistent image flags (../domain.cpp:786)
Per MPI rank memory allocation (min/avg/max) = 23.94 | 24.48 | 24.6 Mbytes
Step Time TotEng KinEng PotEng E_mol E_pair Temp Pxx Pyy Pzz Pxy Pxz Pyz Cella Cellb Cellc CellAlpha CellBeta CellGamma Volume Press 
  500501       500000   -7632.3641    686.78223   -8319.1464    4267.4712   -12586.618    109.61047   -607.56978   -566.66337   -408.08014    292.41553   -158.89937    37.259743      46.7237      46.7237      46.7237           90           90           90     102002.7   -527.43776 
  501000       500499   -7633.5683    679.15571    -8312.724    4294.7448   -12607.469    108.39328   -697.62635   -551.21769   -617.78949   -181.35518   -102.57509   -290.99017      46.7237      46.7237      46.7237           90           90           90     102002.7   -622.21118 
  502000       501499   -7630.3446    690.85977   -8321.2043    4280.1227   -12601.327    110.26124   -438.22768    -489.7876     -490.567     146.7041   -100.21927    160.88948      46.7237      46.7237      46.7237           90           90           90     102002.7   -472.86076 
  503000       502499   -7629.2629    689.31567   -8318.5786    4270.4448   -12589.023    110.01481   -448.20347   -760.35584   -1241.2313    153.81262     94.34085   -38.291665      46.7237      46.7237      46.7237           90           90           90     102002.7   -816.59685 
  504000       503499   -7615.6314    688.13458    -8303.766     4296.913   -12600.679     109.8263   -906.72097   -761.51736   -924.50504   -182.29671    87.047038   -268.53975      46.7237      46.7237      46.7237           90           90           90     102002.7   -864.24779 
  505000       504499   -7649.6796    690.70381   -8340.3834    4279.3453   -12619.729    110.23635   -673.64175   -414.58297    -462.2402    63.418507    63.289234    54.682614      46.7237      46.7237      46.7237           90           90           90     102002.7   -516.82164 
  506000       505499    -7652.194    679.85098    -8332.045    4265.3403   -12597.385    108.50424   -1179.1439    -1013.469   -937.79415   -95.673616   -111.89388    135.24937      46.7237      46.7237      46.7237           90           90           90     102002.7    -1043.469 
  507000       506499   -7604.1044    700.13349   -8304.2379    4290.0382   -12594.276    111.74133   -376.57536   -221.60559   -183.62599      199.662   -37.655617    73.599547      46.7237      46.7237      46.7237           90           90           90     102002.7   -260.60231 
  508000       507499   -7609.8422    705.93015   -8315.7724    4286.6288   -12602.401    112.66648   -362.65953   -769.92006   -561.35612    256.63291    24.233588   -61.263132      46.7237      46.7237      46.7237           90           90           90     102002.7   -564.64524 
  509000       508499   -7603.7446    719.07024   -8322.8148     4269.225    -12592.04    114.76364   -645.52421   -524.06636   -494.74342   -104.17884   -42.353599   -228.88403      46.7237      46.7237      46.7237           90           90           90     102002.7     -554.778 
  510000       509499   -7622.9217    694.82228    -8317.744    4287.4782   -12605.222    110.89366   -492.02433   -531.52332   -224.44871   -59.543147    179.97817    43.673239      46.7237      46.7237      46.7237           90           90           90     102002.7   -415.99879 
  511000       510499   -7652.7621    675.40575   -8328.1679      4269.27   -12597.438    107.79478   -1191.8614   -1146.6496     -583.546    11.797192   -60.964868    181.16846      46.7237      46.7237      46.7237           90           90           90     102002.7   -974.01899 
  512000       511499   -7645.4882    680.49421   -8325.9824     4256.619   -12582.601     108.6069   -750.30434   -1064.5897   -632.06979   -213.58193   -22.841218   -238.09621      46.7237      46.7237      46.7237           90           90           90     102002.7   -815.65462 
  513000       512499   -7619.8842    701.44016   -8321.3244    4260.7794   -12582.104    111.94987   -999.97717   -831.48858   -491.95079    33.301058    106.31975    194.86529      46.7237      46.7237      46.7237           90           90           90     102002.7   -774.47218 
  514000       513499   -7646.9913    688.73186   -8335.7232    4246.2972    -12582.02    109.92163   -482.54903   -480.75167   -653.87183   -49.720158   -204.48706    43.155766      46.7237      46.7237      46.7237           90           90           90     102002.7   -539.05751 
  515000       514499   -7622.1333    682.25456   -8304.3879    4290.0255   -12594.413    108.88785   -1241.8627   -617.75179   -1218.5491    59.564119   -237.50906    151.97264      46.7237      46.7237      46.7237           90           90           90     102002.7   -1026.0545 
  516000       515499   -7612.1602    702.10532   -8314.2655     4288.976   -12603.242    112.05604   -377.98097    -474.2418   -753.81504    79.281791   -86.917075    148.15057      46.7237      46.7237      46.7237           90           90           90     102002.7   -535.34594 
  517000       516499    -7640.124    682.58107   -8322.7051    4281.2664   -12603.972    108.93996   -1194.2281    -498.8156   -749.56105    76.112666   -87.479156   -148.39418      46.7237      46.7237      46.7237           90           90           90     102002.7   -814.20159 
  518000       517499   -7619.2393    706.62487   -8325.8642    4285.7642   -12611.628    112.77735   -956.76531   -446.64687   -925.63967     53.77549    148.59451   -138.74142      46.7237      46.7237      46.7237           90           90           90     102002.7   -776.35062 
  519000       518499   -7642.6034    678.81571   -8321.4192    4280.4403   -12601.859    108.33901   -579.59646   -397.40493   -847.13085    41.241512   -46.533262    106.81503      46.7237      46.7237      46.7237           90           90           90     102002.7   -608.04408 
  520000       519499    -7630.711    681.11761   -8311.8286    4275.7647   -12587.593     108.7064   -825.19212   -319.68681   -877.26388   -26.747951    201.67143   -41.635977      46.7237      46.7237      46.7237           90           90           90     102002.7    -674.0476 
  521000       520499   -7640.1944    684.14877   -8324.3431    4297.9154   -12622.259    109.19017   -501.03877   -583.46677   -1274.8351    26.024047    79.243054   -231.55461      46.7237      46.7237      46.7237           90           90           90     102002.7   -786.44687 
  522000       521499   -7610.4774     704.4274   -8314.9048    4275.0905   -12589.995    112.42664   -990.12828   -566.22913   -1079.9103    277.38587   -44.646374   -22.595855      46.7237      46.7237      46.7237           90           90           90     102002.7   -878.75589 
  523000       522499   -7647.5064    678.13017   -8325.6366    4295.9519   -12621.588     108.2296   -875.14599   -466.86108   -914.10616   -50.049884   -155.25843   -93.182663      46.7237      46.7237      46.7237           90           90           90     102002.7   -752.03774 
  524000       523499   -7620.4937    691.15879   -8311.6525     4279.762   -12591.415    110.30897   -718.75936   -675.18406   -728.30587    4.9830518    -86.72865    89.649448      46.7237      46.7237      46.7237           90           90           90     102002.7   -707.41643 
  525000       524499   -7591.4585    698.92611   -8290.3847    4305.3632   -12595.748    111.54863   -577.29255   -1078.4203   -1272.0417   -88.727128   -122.12963   -154.01545      46.7237      46.7237      46.7237           90           90           90     102002.7   -975.91818 
  526000       525499   -7630.4847    674.67426   -8305.1589     4293.272   -12598.431    107.67804   -1026.1966   -823.56788   -934.67032    38.243887    146.32803   -188.02506      46.7237      46.7237      46.7237           90           90           90     102002.7   -928.14493 
  527000       526499   -7612.8508    688.19964   -8301.0504     4290.069   -12591.119    109.83669   -521.54839    -948.6688   -1029.4242     105.6512    122.14807   -349.09132      46.7237      46.7237      46.7237           90           90           90     102002.7   -833.21379 
  528000       527499   -7631.6003    675.03458   -8306.6349    4298.9366   -12605.572    107.73554   -877.66049    -728.5761   -609.97815    28.054188    31.729945   -17.822676      46.7237      46.7237      46.7237           90           90           90     102002.7   -738.73824 
  529000       528499   -7628.2464    687.54115   -8315.7875    4293.3239   -12609.111    109.73159   -510.04655   -679.84422   -1391.0043   -34.107598   -16.022132   -103.34222      46.7237      46.7237      46.7237           90           90           90     102002.7   -860.29837 
  530000       529499   -7628.6616    680.69733   -8309.3589    4317.3682   -12626.727    108.63932   -767.21927   -831.88753   -838.03051   -81.458995   -120.93183    168.54353      46.7237      46.7237      46.7237           90           90           90     102002.7    -812.3791 
  531000       530499   -7654.7248    687.36333   -8342.0881    4289.3697   -12631.458    109.70321   -693.63986   -1004.4532   -391.77537   -45.974765    79.606643   -78.908474      46.7237      46.7237      46.7237           90           90           90     102002.7   -696.62282 
  532000       531499    -7649.791    678.77585   -8328.5669    4290.9389   -12619.506    108.33265   -874.26487   -585.59352   -866.81971    24.102862    34.958583   -71.799475      46.7237      46.7237      46.7237           90           90           90     102002.7   -775.55937 
  533000       532499   -7633.3646    686.26625   -8319.6308    4281.9413   -12601.572    109.52812   -779.43864   -762.55599   -894.11157    36.533564   -145.47307    171.55581      46.7237      46.7237      46.7237           90           90           90     102002.7    -812.0354 
  534000       533499   -7635.1476      694.339   -8329.4866    4274.2623   -12603.749    110.81653   -850.85383   -1035.4719   -654.46699    141.43756    117.27276   -51.769989      46.7237      46.7237      46.7237           90           90           90     102002.7   -846.93092 
  535000       534499   -7649.6898    689.17447   -8338.8642    4285.4576   -12624.322    109.99227   -949.32145   -673.84479   -780.96369    126.24671   -70.282391    55.703484      46.7237      46.7237      46.7237           90           90           90     102002.7   -801.37664 
  536000       535499   -7622.6554    709.61048   -8332.2658    4277.2786   -12609.544    113.25386   -781.71545   -1042.5835   -873.33899    128.18483    -249.4975   -128.59528      46.7237      46.7237      46.7237           90           90           90     102002.7   -899.21265 
  537000       536499   -7614.9382    707.27213   -8322.2104    4280.6329   -12602.843    112.88066    -365.7575   -757.49959   -471.35265   -123.48062   -194.90822   -153.78295      46.7237      46.7237      46.7237           90           90           90     102002.7   -531.53658 
  538000       537499   -7650.6434    684.58381   -8335.2272    4257.9325    -12593.16     109.2596   -1053.4146   -793.12955   -496.07181   -62.942984    52.443757   -148.05221      46.7237      46.7237      46.7237           90           90           90     102002.7     -780.872 
  539000       538499   -7646.4913     691.2518   -8337.7431    4262.5356   -12600.279    110.32381   -719.78593   -796.52915   -747.87452    128.63392    23.034818   -264.20764      46.7237      46.7237      46.7237           90           90           90     102002.7   -754.72986 
  540000       539499   -7646.0738    687.23111   -8333.3049    4299.0422   -12632.347    109.68211   -974.99857   -933.88648   -471.28839    397.58585    -11.83717    6.7740311      46.7237      46.7237      46.7237           90           90           90     102002.7   -793.39115 
  541000       540499   -7645.5123     672.0211   -8317.5334    4275.6873   -12593.221    107.25459   -899.54935   -669.87536   -793.81347    44.298454   -23.676243   -70.317328      46.7237      46.7237      46.7237           90           90           90     102002.7   -787.74606 
  542000       541499   -7627.4548    685.00828   -8312.4631    4297.6043   -12610.067    109.32735   -1018.8621   -419.51582   -425.80416    162.05202    210.56947   -83.342751      46.7237      46.7237      46.7237           90           90           90     102002.7   -621.39403 
  543000       542499   -7622.2179    717.18812   -8339.4061     4283.232   -12622.638    114.46325   -982.30151   -1103.3655   -1073.9479    25.139691   -400.47561    110.20859      46.7237      46.7237      46.7237           90           90           90     102002.7    -1053.205 
  544000       543499   -7663.3694    684.34957    -8347.719    4268.1528   -12615.872    109.22222   -484.95213   -653.99023   -778.25691   -72.609663   -139.15217   -133.48095      46.7237      46.7237      46.7237           90           90           90     102002.7   -639.06642 
  545000       544499    -7629.106    714.28199    -8343.388    4279.0283   -12622.416    113.99943   -649.49682   -580.54373   -870.01283    15.919665   -17.500561    -227.2571      46.7237      46.7237      46.7237           90           90           90     102002.7   -700.01779 
  546000       545499   -7651.9044    696.05972   -8347.9642    4254.5082   -12602.472    111.09116   -1004.2431   -827.39868   -937.32163    30.224096     130.6197    200.90147      46.7237      46.7237      46.7237           90           90           90     102002.7    -922.9878 
  547000       546499   -7708.0943    660.63069    -8368.725    4254.2884   -12623.013    105.43668    -826.5765    -465.3099   -493.61784   -37.964236   -44.300158    56.101285      46.7237      46.7237      46.7237           90           90           90     102002.7   -595.16808 
  548000       547499   -7639.9772    695.39697   -8335.3742    4293.6703   -12629.044    110.98538   -462.58274   -794.06075   -1110.8412   -84.700062    27.865101    140.46488      46.7237      46.7237      46.7237           90           90           90     102002.7   -789.16155 
  549000       548499   -7629.9073    692.30586   -8322.2132    4307.5546   -12629.768    110.49204   -503.12864   -820.13212    -825.1846    -59.33366    12.435304   -40.627926      46.7237      46.7237      46.7237           90           90           90     102002.7   -716.14845 
  550000       549499    -7644.205    697.50275   -8341.7078    4261.7618    -12603.47    111.32146   -789.59844   -237.57324   -397.32543   -15.679672    318.30857     155.5244      46.7237      46.7237      46.7237           90           90           90     102002.7   -474.83237 
  551000       550499   -7641.5824     686.3962   -8327.9786    4288.4178   -12616.396    109.54886   -671.55193   -866.46154   -771.60403    67.613814    -57.82093    220.66634      46.7237      46.7237      46.7237           90           90           90     102002.7    -769.8725 
  552000       551499   -7631.1308    688.28894   -8319.4198    4283.9337   -12603.353    109.85094   -805.21044   -345.44572    -150.0577   -21.187375    34.212562   -72.464151      46.7237      46.7237      46.7237           90           90           90     102002.7   -433.57129 
  553000       552499   -7610.6709    696.67497   -8307.3459    4307.6926   -12615.038    111.18935    -561.5598   -626.04289   -247.75546    -65.50341    237.01845   -113.16042      46.7237      46.7237      46.7237           90           90           90     102002.7   -478.45272 
  554000       553499   -7648.8758    681.75832   -8330.6341    4317.3586   -12647.993    108.80865   -967.76193   -287.58327   -139.03439    191.23615    -214.7221   -25.318313      46.7237      46.7237      46.7237           90           90           90     102002.7    -464.7932 
  555000       554499   -7640.0918    702.81733   -8342.9091    4256.0719   -12598.981    112.16967   -972.24925   -560.50926   -229.97002    141.25278     92.79941    365.45234      46.7237      46.7237      46.7237           90           90           90     102002.7   -587.57618 
[...]
  936000       935499   -7654.9764    704.13839   -8359.1147    4246.6858   -12605.801    112.38051   -821.08569   -915.56454   -296.34811   -82.828627    -118.8051   -84.422809      46.7237      46.7237      46.7237           90           90           90     102002.7   -677.66612 
  937000       936499    -7621.782    683.11383   -8304.8958    4311.9669   -12616.863    109.02499   -1345.2352   -496.70586    -390.6331    272.77058    4.2846914   -101.42841      46.7237      46.7237      46.7237           90           90           90     102002.7   -744.19138 
  938000       937499   -7647.0905       700.68   -8347.7705    4268.4996    -12616.27    111.82855   -834.42355   -944.58869   -657.07868     42.98517   0.96507138    13.221869      46.7237      46.7237      46.7237           90           90           90     102002.7   -812.03031 
  939000       938499   -7624.0896    690.54838    -8314.638    4279.0424    -12593.68    110.21155   -656.13153   -1060.5554   -878.84382   -188.11797   -171.85008   -241.16182      46.7237      46.7237      46.7237           90           90           90     102002.7   -865.17693 
  940000       939499   -7647.7373     672.3293   -8320.0666    4280.9659   -12601.032    107.30378   -950.58908   -533.48326   -1058.2706     145.1089   -58.937708    143.15685      46.7237      46.7237      46.7237           90           90           90     102002.7   -847.44765 
  941000       940499    -7655.595    668.83642   -8324.4314    4277.5734   -12602.005    106.74632   -986.12036   -878.98772   -427.97834   -54.477388    93.737709   -126.97993      46.7237      46.7237      46.7237           90           90           90     102002.7   -764.36214 
  942000       941499   -7632.2808    691.19698   -8323.4778    4305.1722    -12628.65    110.31506   -600.40357   -821.78676   -396.60548   -208.23578    68.354318    25.552075      46.7237      46.7237      46.7237           90           90           90     102002.7   -606.26527 
  943000       942499   -7664.5002    690.84552   -8355.3457    4249.7274   -12605.073    110.25897   -1159.4326   -608.69701   -145.81105   -44.499733   -180.38964   -39.478308      46.7237      46.7237      46.7237           90           90           90     102002.7   -637.98023 
  944000       943499   -7667.4138    685.56023   -8352.9741     4258.321   -12611.295    109.41544   -130.94104   -804.98568   -788.79763   -46.727301   -4.4850506   -141.32847      46.7237      46.7237      46.7237           90           90           90     102002.7   -574.90812 
  945000       944499   -7636.5141    700.63254   -8337.1467    4270.1212   -12607.268    111.82098   -817.38951   -1169.9281   -1015.4021    70.171172    20.063707    15.899652      46.7237      46.7237      46.7237           90           90           90     102002.7   -1000.9066 
  946000       945499   -7602.3103    701.58401   -8303.8944    4299.0642   -12602.959    111.97283   -731.99717   -676.90531   -285.75623   -9.0570899   -76.760749   -321.99236      46.7237      46.7237      46.7237           90           90           90     102002.7   -564.88624 
  947000       946499   -7631.8562     703.9432   -8335.7994    4275.0744   -12610.874    112.34936   -785.29269   -798.60266   -657.04068   -122.03712   -87.737811   -72.147459      46.7237      46.7237      46.7237           90           90           90     102002.7   -746.97868 
  948000       947499   -7638.6199    681.69834   -8320.3182    4287.0719    -12607.39    108.79908   -749.45163   -1052.2384   -847.28332   -170.96399   -261.73315   -163.94618      46.7237      46.7237      46.7237           90           90           90     102002.7    -882.9911 
  949000       948499    -7624.881    691.99324   -8316.8743    4275.1193   -12591.994    110.44215   -829.71886   -628.21628   -649.12834    19.841386   -246.00308   -48.412953      46.7237      46.7237      46.7237           90           90           90     102002.7   -702.35449 
  950000       949499   -7629.1489    685.40255   -8314.5515    4280.0521   -12594.604    109.39027   -629.49944   -853.93942   -776.65474    62.276394   -286.45842    338.90888      46.7237      46.7237      46.7237           90           90           90     102002.7   -753.36453 
  951000       950499    -7624.691    687.07376   -8311.7647    4287.1901   -12598.955      109.657   -319.65432   -573.17929   -580.65452    85.003147    95.448704   -85.746484      46.7237      46.7237      46.7237           90           90           90     102002.7   -491.16271 
  952000       951499   -7648.2261    692.36978   -8340.5959    4277.7881   -12618.384    110.50224    -824.5898   -751.17924   -677.28908   -95.076124   -141.14747    71.669239      46.7237      46.7237      46.7237           90           90           90     102002.7   -751.01938 
  953000       952499   -7644.4251     689.1838   -8333.6089     4269.676   -12603.285    109.99376   -551.64751   -360.65363   -811.94442   -257.27085    253.80037    177.95646      46.7237      46.7237      46.7237           90           90           90     102002.7   -574.74852 
  954000       953499   -7639.9953    675.56518   -8315.5605    4275.7479   -12591.308    107.82023   -237.15594   -500.54209   -839.15603   -98.314617   -53.302218    301.30644      46.7237      46.7237      46.7237           90           90           90     102002.7   -525.61802 
  955000       954499   -7660.3627    679.35951   -8339.7222    4261.7547   -12601.477     108.4258   -613.02982   -119.68144   -196.37545   -81.816825   -106.55334    -8.822146      46.7237      46.7237      46.7237           90           90           90     102002.7   -309.69557 
  956000       955499     -7593.09    693.79084   -8286.8809    4306.2596    -12593.14    110.72904   -241.37198   -175.31718    -320.1042    147.97157   -30.911111   -210.75939      46.7237      46.7237      46.7237           90           90           90     102002.7   -245.59778 
  957000       956499   -7626.1096    679.21591   -8305.3255    4277.8653   -12583.191    108.40288   -321.49015   -215.97524   -689.63781    2.2032219    85.359724   -24.984295      46.7237      46.7237      46.7237           90           90           90     102002.7    -409.0344 
  958000       957499   -7635.5487    686.83081   -8322.3795    4278.6041   -12600.984    109.61822   -128.35783   -126.40549   -506.97382    25.441422   -203.59096    -121.1032      46.7237      46.7237      46.7237           90           90           90     102002.7   -253.91238 
  959000       958499   -7600.3988    690.16233   -8290.5611    4285.0662   -12575.627    110.14993   -658.63277   -453.01555   -148.57534    277.68293   -106.17486   -12.952977      46.7237      46.7237      46.7237           90           90           90     102002.7   -420.07455 
  960000       959499    -7653.694     676.2367   -8329.9307    4258.3612   -12588.292     107.9274   -489.48855   -563.78503   -312.91276   -49.208313    162.27405   -222.94864      46.7237      46.7237      46.7237           90           90           90     102002.7   -455.39545 
  961000       960499   -7656.0102    681.16076    -8337.171    4276.1057   -12613.277    108.71328   -929.13562   -260.91638   -657.47504   -3.8826574    41.094755    256.42883      46.7237      46.7237      46.7237           90           90           90     102002.7   -615.84235 
  962000       961499   -7594.9802    697.79061   -8292.7708    4305.3488    -12598.12    111.36741   -511.19052   -401.07929   -461.79656   -162.53392    218.30783    8.4931938      46.7237      46.7237      46.7237           90           90           90     102002.7   -458.02212 
  963000       962499   -7621.4088    695.86108   -8317.2699    4285.1098    -12602.38    111.05945   -311.98921   -674.35455   -334.18965   -44.932027   -152.43463    356.67964      46.7237      46.7237      46.7237           90           90           90     102002.7    -440.1778 
  964000       963499   -7665.1509     655.6607   -8320.8116     4282.794   -12603.606    104.64347   -308.95227    -667.9498   -33.632628   -353.21089   -112.10999     164.8759      46.7237      46.7237      46.7237           90           90           90     102002.7    -336.8449 
  965000       964499     -7641.38    671.65209   -8313.0321    4299.2095   -12612.242     107.1957   -574.18415   -1012.2137   -629.75944   -202.50992    202.50711    79.004119      46.7237      46.7237      46.7237           90           90           90     102002.7    -738.7191 
  966000       965499   -7606.6404    715.74311   -8322.3835    4281.4541   -12603.838    114.23263   -1335.7188   -489.42876    -148.6863    69.253839    201.44609   -243.89697      46.7237      46.7237      46.7237           90           90           90     102002.7   -657.94463 
  967000       966499   -7649.9342    684.04461   -8333.9788    4273.7809    -12607.76    109.17355   -797.67658    -830.0017   -324.92045   -191.37796    125.36798   -65.350911      46.7237      46.7237      46.7237           90           90           90     102002.7   -650.86625 
  968000       967499   -7616.6955     712.5766   -8329.2721    4294.8356   -12624.108    113.72725   -1022.4647   -227.72902   -590.33583    25.473265   -1.2908263    18.844841      46.7237      46.7237      46.7237           90           90           90     102002.7   -613.50986 
  969000       968499   -7643.3748    688.78772   -8332.1626    4258.0551   -12590.218    109.93054   -654.14788   -671.25589   -466.39504    186.35075     108.8978   -32.670155      46.7237      46.7237      46.7237           90           90           90     102002.7   -597.26627 
  970000       969499   -7620.2786    684.82251   -8305.1011    4305.9492    -12611.05     109.2977   -1317.5581   -752.86249   -726.10707    132.46093    113.49404    177.84967      46.7237      46.7237      46.7237           90           90           90     102002.7   -932.17588 
  971000       970499   -7634.6161    692.24268   -8326.8588    4283.6463   -12610.505    110.48196   -1315.8918   -755.88432    -931.7937    98.138193   -283.06577   -109.28338      46.7237      46.7237      46.7237           90           90           90     102002.7   -1001.1899 
  972000       971499    -7659.094    673.54651   -8332.6406    4276.3797    -12609.02    107.49805   -337.84249   -473.24687   -659.29184    2.0751355    184.26578    58.348843      46.7237      46.7237      46.7237           90           90           90     102002.7   -490.12706 
  973000       972499   -7588.5691    717.23348   -8305.8026    4282.5662   -12588.369    114.47049   -887.08143   -586.96517   -513.68267    89.244008    46.720666   -2.3288617      46.7237      46.7237      46.7237           90           90           90     102002.7   -662.57642 
  974000       973499   -7634.7245    684.27408   -8318.9986    4283.4105   -12602.409    109.21017   -690.48699   -114.96277   -737.44289   -217.82401    90.859742    -335.9654      46.7237      46.7237      46.7237           90           90           90     102002.7   -514.29755 
  975000       974499    -7653.685    680.22785   -8333.9128    4257.4033   -12591.316    108.56439   -428.50392   -783.64046   -714.42751   -58.126818   -161.47425    26.195962      46.7237      46.7237      46.7237           90           90           90     102002.7   -642.19063 
  976000       975499   -7656.5466    681.09803   -8337.6446    4255.3842   -12593.029    108.70327   -590.20951   -291.24696   -845.77864   -49.218811   -115.74298    43.326354      46.7237      46.7237      46.7237           90           90           90     102002.7   -575.74504 
  977000       976499   -7649.9529    681.67281   -8331.6257    4297.6947    -12629.32    108.79501   -1256.1377    -479.6406   -789.27741    116.52603    278.67953   -19.139702      46.7237      46.7237      46.7237           90           90           90     102002.7   -841.68524 
  978000       977499   -7620.1217    683.64231    -8303.764    4289.5355   -12593.299    109.10934   -636.75083   -680.25609   -475.71707    10.383965   -64.382532    54.983346      46.7237      46.7237      46.7237           90           90           90     102002.7   -597.57466 
  979000       978499   -7615.0657    706.89319   -8321.9589    4268.6128   -12590.572    112.82018   -1205.6909    -792.6811   -950.19219   -160.09287   -1.8069704   -135.63871      46.7237      46.7237      46.7237           90           90           90     102002.7   -982.85474 
  980000       979499   -7659.2661    666.48934   -8325.7554     4272.691   -12598.446    106.37172   -458.44621   -796.62938     -1099.46  -0.69440869   -209.81368    66.323045      46.7237      46.7237      46.7237           90           90           90     102002.7   -784.84521 
  981000       980499   -7628.5208    677.05658   -8305.5774    4283.1232   -12588.701    108.05826    -1010.927   -498.71311   -940.58675     102.5024   -331.85631    118.11689      46.7237      46.7237      46.7237           90           90           90     102002.7   -816.74229 
  982000       981499   -7629.4563    698.52838   -8327.9847    4275.7462   -12603.731    111.48516    -798.9689   -807.31637   -799.50826    89.894885   -25.473615    44.545409      46.7237      46.7237      46.7237           90           90           90     102002.7   -801.93117 
  983000       982499   -7627.6559    704.51634   -8332.1722    4272.5104   -12604.683    112.44083   -1206.7287   -651.63557   -811.00614    19.858953   -132.00821    -37.86717      46.7237      46.7237      46.7237           90           90           90     102002.7   -889.79015 
  984000       983499   -7651.9617    662.08127   -8314.0429    4287.8025   -12601.845     105.6682   -1490.5882   -809.30593    -861.1122   -159.85247    3.7494251   -94.565429      46.7237      46.7237      46.7237           90           90           90     102002.7   -1053.6688 
  985000       984499   -7624.5972    695.41639   -8320.0136    4271.1712   -12591.185    110.98848   -592.44345   -544.81841   -744.27214    44.035845    9.7739925    35.448164      46.7237      46.7237      46.7237           90           90           90     102002.7     -627.178 
  986000       985499    -7647.305    686.99216   -8334.2972    4277.8256   -12612.123    109.64397   -1023.5362   -808.84162   -624.56421   -109.85902    6.2220163    14.628826      46.7237      46.7237      46.7237           90           90           90     102002.7   -818.98069 
  987000       986499   -7661.8441    669.59978   -8331.4439    4287.8115   -12619.255    106.86815   -938.45684   -988.82227    -336.2617    45.578637    321.20643   -47.644395      46.7237      46.7237      46.7237           90           90           90     102002.7    -754.5136 
  988000       987499   -7652.6238    679.93484   -8332.5587    4282.7481   -12615.307    108.51763   -741.17028   -431.25838   -621.83231    50.569664   -66.789333    95.287343      46.7237      46.7237      46.7237           90           90           90     102002.7   -598.08699 
  989000       988499   -7656.1984    690.20707   -8346.4054    4274.5883   -12620.994    110.15707   -1111.8641   -911.15503   -1084.6892   -75.154429   -21.379615    385.63798      46.7237      46.7237      46.7237           90           90           90     102002.7   -1035.9028 
  990000       989499   -7637.2116    697.60779   -8334.8193     4275.304   -12610.123    111.33823   -726.91398   -538.17306   -627.05404   -142.65389    150.92978    41.836476      46.7237      46.7237      46.7237           90           90           90     102002.7   -630.71369 
  991000       990499   -7672.2718    690.37733   -8362.6491    4252.1312    -12614.78    110.18425   -777.63475   -780.16106   -678.76765   -27.809287   -84.713074    96.268737      46.7237      46.7237      46.7237           90           90           90     102002.7   -745.52115 
  992000       991499   -7641.2487     699.3244   -8340.5731    4259.6223   -12600.195     111.6122   -1088.8684   -966.75512    -860.9154   -82.819595    160.34976     131.7724      46.7237      46.7237      46.7237           90           90           90     102002.7   -972.17963 
  993000       992499   -7633.4444    692.19321   -8325.6377    4278.5016   -12604.139    110.47406   -1186.8824   -742.46681   -780.40505   -12.461388   -85.923033    238.02965      46.7237      46.7237      46.7237           90           90           90     102002.7   -903.25141 
  994000       993499   -7612.8438    710.00305   -8322.8468     4258.889   -12581.736    113.31651   -1267.4487   -587.52391   -472.48324    7.0778696    84.132942    160.01048      46.7237      46.7237      46.7237           90           90           90     102002.7   -775.81861 
  995000       994499   -7645.8303    693.11263   -8338.9429    4246.6262   -12585.569     110.6208   -556.89644   -542.93718    -1107.358    30.872581    32.212689   -97.510741      46.7237      46.7237      46.7237           90           90           90     102002.7   -735.73052 
  996000       995499   -7655.3301    676.33146   -8331.6615    4295.0306   -12626.692    107.94253   -1343.1739   -261.13166   -1066.8594   -139.57597    114.17405   -180.99255      46.7237      46.7237      46.7237           90           90           90     102002.7   -890.38833 
  997000       996499    -7642.871    693.05507    -8335.926    4275.1813   -12611.107    110.61162   -869.26291   -957.63577   -1218.1987   -139.15991   -212.50468    187.04803      46.7237      46.7237      46.7237           90           90           90     102002.7   -1015.0325 
  998000       997499   -7660.0641    655.56444   -8315.6286    4280.1286   -12595.757    104.62811   -884.69294   -644.74139   -1289.1968    121.59897   -190.66317   -25.063343      46.7237      46.7237      46.7237           90           90           90     102002.7   -939.54372 
  999000       998499   -7661.5961    679.39939   -8340.9955    4254.6808   -12595.676    108.43217   -1002.1346   -1281.1275   -23.121739     267.7291    6.3988884   -199.26846      46.7237      46.7237      46.7237           90           90           90     102002.7    -768.7946 
 1000000       999499   -7646.1393    694.41129   -8340.5506    4253.4185   -12593.969    110.82807   -848.74834   -501.29532   -573.58619    80.581564   -17.457055    15.022944      46.7237      46.7237      46.7237           90           90           90     102002.7   -641.20995 
 1000501      1000000   -7628.6391    686.94032   -8315.5795    4299.4666   -12615.046     109.6357   -896.32978   -597.07325   -913.08034    35.273775   -4.3600444   -7.0719501      46.7237      46.7237      46.7237           90           90           90     102002.7   -802.16113 
Loop time of 726.61 on 24 procs for 500000 steps with 2103 atoms

Performance: 59.454 ns/day, 0.404 hours/ns, 688.127 timesteps/s
99.3% CPU use with 24 MPI tasks x no OpenMP threads

MPI task timing breakdown:
Section |  min time  |  avg time  |  max time  |%varavg| %total
---------------------------------------------------------------
Pair    | 247.34     | 357.61     | 479.55     | 327.8 | 49.22
Bond    | 56.091     | 82.463     | 107.44     | 153.5 | 11.35
Neigh   | 3.7048     | 3.7242     | 3.7389     |   0.6 |  0.51
Comm    | 136.16     | 265.15     | 378.31     | 419.0 | 36.49
Output  | 0.42251    | 0.61274    | 0.62125    |   5.1 |  0.08
Modify  | 12.334     | 12.679     | 13.038     |   5.4 |  1.74
Other   |            | 4.367      |            |       |  0.60

Nlocal:    87.625 ave 124 max 50 min
Histogram: 1 4 1 2 2 6 2 0 4 2
Nghost:    2389.21 ave 2531 max 2300 min
Histogram: 4 7 4 1 0 0 0 2 3 3
Neighs:    7641.62 ave 9984 max 3891 min
Histogram: 1 1 2 3 1 3 1 4 4 4

Total # of neighbors = 183399
Ave neighs/atom = 87.2083
Ave special neighs/atom = 5.47789
Neighbor list builds = 4431
Dangerous builds = 0
Total wall time: 0:22:21
