LAMMPS (30 Mar 2018)
Reading data file ...
  orthogonal box = (0 0 0) to (46.7237 46.7237 46.7237)
  2 by 2 by 4 MPI processor grid
  reading atoms ...
  3180 atoms
  scanning bonds ...
  5 = max bonds/atom
  scanning angles ...
  10 = max angles/atom
  scanning dihedrals ...
  32 = max dihedrals/atom
  scanning impropers ...
  3 = max impropers/atom
  reading bonds ...
  2064 bonds
  reading angles ...
  3696 angles
  reading dihedrals ...
  6240 dihedrals
  reading impropers ...
  1008 impropers
Finding 1-2 1-3 1-4 neighbors ...
  special bond factors lj:   0          0          0         
  special bond factors coul: 0          0          0         
  5 = max # of 1-2 neighbors
  8 = max # of 1-3 neighbors
  20 = max # of 1-4 neighbors
  19 = max # of special neighbors
Finding 1-2 1-3 1-4 neighbors ...
  special bond factors lj:   0          0          1         
  special bond factors coul: 1          1          1         
  5 = max # of 1-2 neighbors
  8 = max # of 1-3 neighbors
  19 = max # of special neighbors
WARNING: Using 'neigh_modify every 1 delay 0 check yes' setting during minimization (../min.cpp:168)
Neighbor list info ...
  update every 1 steps, delay 0 steps, check yes
  max neighbors/atom: 2000, page size: 100000
  master list distance cutoff = 16
  ghost atom cutoff = 16
  binsize = 8, bins = 6 6 6
  3 neighbor lists, perpetual/occasional/extra = 3 0 0
  (1) pair buck6d/coul/gauss/dsf, perpetual, skip from (3)
      attributes: half, newton on
      pair build: skip
      stencil: none
      bin: none
  (2) pair lj/cut, perpetual, skip from (3)
      attributes: half, newton on
      pair build: skip
      stencil: none
      bin: none
  (3) neighbor class addition, perpetual
      attributes: half, newton on
      pair build: half/bin/newton
      stencil: half/bin/3d/newton
      bin: standard
Setting up cg style minimization ...
  Unit style    : real
  Current step  : 0
WARNING: Inconsistent image flags (../domain.cpp:786)
Per MPI rank memory allocation (min/avg/max) = 23.01 | 23.47 | 23.91 Mbytes
Step Temp E_pair E_mol TotEng Press 
       0            0   -15320.666    6482.8914    -8837.775    6433.0048 
     500            0   -15835.992    3765.8828   -12070.109   -2050.2817 
Loop time of 4.34098 on 16 procs for 500 steps with 3180 atoms

99.9% CPU use with 16 MPI tasks x no OpenMP threads

Minimization stats:
  Stopping criterion = max force evaluations
  Energy initial, next-to-last, final = 
        -8837.77498982     -12070.0024417     -12070.1093153
  Force two-norm initial, final = 2575.92 15.6529
  Force max component initial, final = 152.213 2.02711
  Final line search alpha, max atom move = 0.00614585 0.0124583
  Iterations, force evaluations = 500 1000

MPI task timing breakdown:
Section |  min time  |  avg time  |  max time  |%varavg| %total
---------------------------------------------------------------
Pair    | 2.5218     | 2.9448     | 3.5099     |  16.9 | 67.84
Bond    | 0.26236    | 0.36073    | 0.44867    |   9.9 |  8.31
Neigh   | 0.034494   | 0.034545   | 0.034637   |   0.0 |  0.80
Comm    | 0.37239    | 0.95469    | 1.3994     |  31.9 | 21.99
Output  | 0          | 0          | 0          |   0.0 |  0.00
Modify  | 0          | 0          | 0          |   0.0 |  0.00
Other   |            | 0.0462     |            |       |  1.06

Nlocal:    198.75 ave 227 max 163 min
Histogram: 2 0 1 1 3 3 1 0 1 4
Nghost:    3980.38 ave 4011 max 3941 min
Histogram: 3 0 0 2 0 2 4 0 2 3
Neighs:    11476.8 ave 17816 max 7711 min
Histogram: 3 1 4 1 4 1 0 0 0 2

Total # of neighbors = 183629
Ave neighs/atom = 57.745
Ave special neighs/atom = 3.62264
Neighbor list builds = 10
Dangerous builds = 0
Neighbor list info ...
  update every 1 steps, delay 10 steps, check yes
  max neighbors/atom: 2000, page size: 100000
  master list distance cutoff = 16
  ghost atom cutoff = 16
  binsize = 8, bins = 6 6 6
  3 neighbor lists, perpetual/occasional/extra = 3 0 0
  (1) pair buck6d/coul/gauss/dsf, perpetual, skip from (3)
      attributes: half, newton on
      pair build: skip
      stencil: none
      bin: none
  (2) pair lj/cut, perpetual, skip from (3)
      attributes: half, newton on
      pair build: skip
      stencil: none
      bin: none
  (3) neighbor class addition, perpetual
      attributes: half, newton on
      pair build: half/bin/newton
      stencil: half/bin/3d/newton
      bin: standard
Setting up Verlet run ...
  Unit style    : real
  Current step  : 500
  Time step     : 1
WARNING: Inconsistent image flags (../domain.cpp:786)
Per MPI rank memory allocation (min/avg/max) = 22.66 | 22.77 | 22.98 Mbytes
Step Temp PotEng TotEng Press Volume Lx Ly Lz 
     500          130   -12070.109    -10838.23   -1498.2178     102002.7      46.7237      46.7237      46.7237 
    1000    111.80131   -11070.795   -10011.366   -142.75298     102002.7      46.7237      46.7237      46.7237 
    2000    133.39744   -10880.439   -9616.3657   -189.85607     102002.7      46.7237      46.7237      46.7237 
    3000    127.55316   -10919.158   -9710.4652   -331.38422     102002.7      46.7237      46.7237      46.7237 
    4000    130.55667   -10895.693   -9658.5383    315.12018     102002.7      46.7237      46.7237      46.7237 
    5000    129.61454   -10875.433   -9647.2062    283.85611     102002.7      46.7237      46.7237      46.7237 
    6000    128.17226   -10889.338   -9674.7787    277.40347     102002.7      46.7237      46.7237      46.7237 
    7000    128.89492   -10900.668   -9679.2598    314.64431     102002.7      46.7237      46.7237      46.7237 
    8000    130.29973   -10917.532   -9682.8123    40.694038     102002.7      46.7237      46.7237      46.7237 
    9000     133.0462   -10903.485   -9642.7399     45.74455     102002.7      46.7237      46.7237      46.7237 
   10000    132.74924   -10905.679   -9647.7479    331.50668     102002.7      46.7237      46.7237      46.7237 
   11000    127.42388   -10927.409   -9719.9414    32.111105     102002.7      46.7237      46.7237      46.7237 
   12000    133.19897    -10897.32    -9635.127   -10.836041     102002.7      46.7237      46.7237      46.7237 
   13000    131.49581   -10891.177   -9645.1237    238.19598     102002.7      46.7237      46.7237      46.7237 
   14000    129.68519   -10914.473   -9685.5765    271.34789     102002.7      46.7237      46.7237      46.7237 
   15000    131.55638   -10905.705    -9659.077    137.22216     102002.7      46.7237      46.7237      46.7237 
   16000    128.93631   -10879.231   -9657.4308    24.623602     102002.7      46.7237      46.7237      46.7237 
   17000    132.17065   -10925.536   -9673.0874   -78.868118     102002.7      46.7237      46.7237      46.7237 
   18000    129.63306   -10906.568   -9678.1655   -319.61222     102002.7      46.7237      46.7237      46.7237 
   19000    130.65289    -10903.95   -9665.8836   -9.0710963     102002.7      46.7237      46.7237      46.7237 
   20000    129.50042   -10844.241   -9617.0956   -102.58676     102002.7      46.7237      46.7237      46.7237 
   21000    128.83974   -10913.012   -9692.1276    237.31144     102002.7      46.7237      46.7237      46.7237 
   22000    132.95559   -10933.958   -9674.0714   -133.67551     102002.7      46.7237      46.7237      46.7237 
   23000    130.76969   -10941.025   -9701.8517   -86.684754     102002.7      46.7237      46.7237      46.7237 
   24000    130.25556   -10899.312   -9665.0105    50.335618     102002.7      46.7237      46.7237      46.7237 
   25000     131.5759   -10895.211   -9648.3985    34.880162     102002.7      46.7237      46.7237      46.7237 
   26000    131.95044   -10936.411   -9686.0497   -198.43833     102002.7      46.7237      46.7237      46.7237 
   27000    129.12602   -10875.237   -9651.6394    320.47113     102002.7      46.7237      46.7237      46.7237 
   28000    128.13799   -10871.898   -9657.6633    94.577415     102002.7      46.7237      46.7237      46.7237 
   29000     130.7789   -10898.573   -9659.3125    251.18503     102002.7      46.7237      46.7237      46.7237 
   30000     134.7927   -10911.964   -9634.6686     192.0475     102002.7      46.7237      46.7237      46.7237 
   31000    127.67749    -10887.03   -9677.1592    234.77642     102002.7      46.7237      46.7237      46.7237 
   32000     128.8084   -10886.732   -9666.1438    76.368896     102002.7      46.7237      46.7237      46.7237 
   33000    130.40096   -10892.902   -9657.2235    20.724811     102002.7      46.7237      46.7237      46.7237 
   34000    129.38634   -10889.932   -9663.8674   -462.36629     102002.7      46.7237      46.7237      46.7237 
   35000    130.01728   -10911.024   -9678.9806    -100.2192     102002.7      46.7237      46.7237      46.7237 
   36000    129.52624   -10923.127   -9695.7373   -134.88246     102002.7      46.7237      46.7237      46.7237 
   37000    131.12548   -10897.411   -9654.8669    14.991794     102002.7      46.7237      46.7237      46.7237 
   38000    128.85891   -10892.791   -9671.7243    155.42158     102002.7      46.7237      46.7237      46.7237 
   39000     126.1064   -10901.421   -9706.4377   -173.62622     102002.7      46.7237      46.7237      46.7237 
   40000    129.41243   -10929.396   -9703.0844    77.396714     102002.7      46.7237      46.7237      46.7237 
   41000    127.30681   -10889.925    -9683.566   -163.54645     102002.7      46.7237      46.7237      46.7237 
   42000     131.9479   -10893.716   -9643.3783     122.3325     102002.7      46.7237      46.7237      46.7237 
   43000     130.6989   -10902.352   -9663.8499   -141.92274     102002.7      46.7237      46.7237      46.7237 
   44000    129.57075   -10883.957    -9656.145    152.25926     102002.7      46.7237      46.7237      46.7237 
   45000    134.21288   -10910.757   -9638.9566    116.03136     102002.7      46.7237      46.7237      46.7237 
   46000    129.41867   -10894.025   -9667.6547   -108.54686     102002.7      46.7237      46.7237      46.7237 
   47000    131.07514   -10890.238   -9648.1707   -4.1166475     102002.7      46.7237      46.7237      46.7237 
   48000    129.06636   -10898.799   -9675.7672    88.905195     102002.7      46.7237      46.7237      46.7237 
   49000    130.44752   -10919.866   -9683.7461   -249.44887     102002.7      46.7237      46.7237      46.7237 
   50000    131.84439   -10914.943   -9665.5859    181.86023     102002.7      46.7237      46.7237      46.7237 
   51000    128.25624   -10906.427   -9691.0717    182.11061     102002.7      46.7237      46.7237      46.7237 
   52000    129.67466   -10906.816   -9678.0191   -176.57241     102002.7      46.7237      46.7237      46.7237 
   53000    130.48747   -10901.779   -9665.2802    17.216234     102002.7      46.7237      46.7237      46.7237 
   54000    129.73267   -10919.434   -9690.0876   -351.53092     102002.7      46.7237      46.7237      46.7237 
   55000    130.23649   -10867.249   -9633.1283   -98.668636     102002.7      46.7237      46.7237      46.7237 
   56000    128.81556   -10919.168   -9698.5123   -126.90565     102002.7      46.7237      46.7237      46.7237 
   57000    131.28979   -10909.811   -9665.7098    8.4498841     102002.7      46.7237      46.7237      46.7237 
   58000    131.67009   -10923.178   -9675.4728    177.06461     102002.7      46.7237      46.7237      46.7237 
   59000    127.87439   -10893.864   -9682.1265   -113.78436     102002.7      46.7237      46.7237      46.7237 
   60000    129.94433   -10924.989    -9693.637   -136.85243     102002.7      46.7237      46.7237      46.7237 
   61000    129.32795   -10899.958   -9674.4468    -187.9591     102002.7      46.7237      46.7237      46.7237 
   62000    132.81918   -10864.873   -9606.2788    207.53094     102002.7      46.7237      46.7237      46.7237 
   63000    129.02025   -10893.077   -9670.4818    368.83446     102002.7      46.7237      46.7237      46.7237 
   64000    128.15581   -10910.688   -9696.2839    284.77865     102002.7      46.7237      46.7237      46.7237 
   65000    129.09818   -10930.561   -9707.2276    79.448929     102002.7      46.7237      46.7237      46.7237 
   66000    130.58846   -10885.539   -9648.0832    115.18761     102002.7      46.7237      46.7237      46.7237 
   67000    128.13954   -10906.237   -9691.9875    41.887146     102002.7      46.7237      46.7237      46.7237 
   68000     132.2912   -10908.224   -9654.6332    359.80603     102002.7      46.7237      46.7237      46.7237 
   69000    131.22528   -10924.748   -9681.2582    163.40182     102002.7      46.7237      46.7237      46.7237 
   70000    128.45874   -10885.179   -9667.9049   -26.550588     102002.7      46.7237      46.7237      46.7237 
   71000    132.33664   -10898.198   -9644.1766   -148.12451     102002.7      46.7237      46.7237      46.7237 
   72000    129.59661   -10883.322    -9655.265    6.3533058     102002.7      46.7237      46.7237      46.7237 
   73000     130.5535   -10891.396    -9654.272    123.29225     102002.7      46.7237      46.7237      46.7237 
   74000    131.29814   -10892.287   -9648.1067   -212.23072     102002.7      46.7237      46.7237      46.7237 
   75000    126.16006   -10898.712   -9703.2199    105.99717     102002.7      46.7237      46.7237      46.7237 
   76000    132.05783    -10881.83   -9630.4507    234.62455     102002.7      46.7237      46.7237      46.7237 
   77000     131.3059   -10917.852   -9673.5983    133.07935     102002.7      46.7237      46.7237      46.7237 
   78000    129.97487   -10894.396   -9662.7542   -10.097181     102002.7      46.7237      46.7237      46.7237 
   79000    131.02177   -10918.585   -9677.0239    60.814974     102002.7      46.7237      46.7237      46.7237 
   80000    131.26913   -10890.461   -9646.5556    130.46643     102002.7      46.7237      46.7237      46.7237 
   81000    130.01648   -10880.166   -9648.1305    54.280072     102002.7      46.7237      46.7237      46.7237 
   82000    125.59353    -10915.27   -9725.1466   -26.782558     102002.7      46.7237      46.7237      46.7237 
   83000    127.38919   -10897.804   -9690.6646   -98.688558     102002.7      46.7237      46.7237      46.7237 
   84000    131.61724   -10908.808   -9661.6033   -102.52097     102002.7      46.7237      46.7237      46.7237 
   85000    131.10905   -10872.562   -9630.1734    27.649142     102002.7      46.7237      46.7237      46.7237 
   86000    131.67272   -10892.567   -9644.8372   -29.851703     102002.7      46.7237      46.7237      46.7237 
   87000    131.42447   -10921.555   -9676.1773   -59.189274     102002.7      46.7237      46.7237      46.7237 
   88000    129.56462   -10889.491   -9661.7376   -181.62242     102002.7      46.7237      46.7237      46.7237 
   89000    126.82215   -10917.305   -9715.5394   -64.812819     102002.7      46.7237      46.7237      46.7237 
   90000    133.55334   -10899.557   -9634.0059    1.4788217     102002.7      46.7237      46.7237      46.7237 
   91000    129.59869   -10900.236   -9672.1592   -269.54036     102002.7      46.7237      46.7237      46.7237 
   92000    132.28742   -10888.625   -9635.0705    153.71331     102002.7      46.7237      46.7237      46.7237 
   93000    130.68916   -10919.735   -9681.3248   -352.95973     102002.7      46.7237      46.7237      46.7237 
   94000    130.35205   -10870.172   -9634.9564   -143.71941     102002.7      46.7237      46.7237      46.7237 
   95000    130.63248   -10903.539    -9665.666   -13.049054     102002.7      46.7237      46.7237      46.7237 
   96000     128.5284   -10917.977   -9700.0428    -255.1522     102002.7      46.7237      46.7237      46.7237 
   97000    133.14312   -10889.957   -9628.2939    15.861351     102002.7      46.7237      46.7237      46.7237 
   98000    130.79098   -10908.483   -9669.1079   -83.159529     102002.7      46.7237      46.7237      46.7237 
   99000    128.96628   -10915.319   -9693.2349    -250.4998     102002.7      46.7237      46.7237      46.7237 
  100000    130.24326   -10866.729   -9632.5448    91.760716     102002.7      46.7237      46.7237      46.7237 
  101000    129.35408   -10892.189   -9666.4304    166.97121     102002.7      46.7237      46.7237      46.7237 
  102000    128.41273   -10909.424   -9692.5851   -108.30023     102002.7      46.7237      46.7237      46.7237 
  103000    130.75953   -10897.452   -9658.3752    279.55936     102002.7      46.7237      46.7237      46.7237 
  104000    130.63413   -10898.455   -9660.5669    432.29131     102002.7      46.7237      46.7237      46.7237 
  105000    131.38441   -10914.569   -9669.5712   -2.2477455     102002.7      46.7237      46.7237      46.7237 
  106000    129.06768   -10898.686   -9675.6416   -36.574586     102002.7      46.7237      46.7237      46.7237 
  107000    126.64508    -10891.42    -9691.332   -63.418097     102002.7      46.7237      46.7237      46.7237 
  108000    129.04475   -10923.242   -9700.4142    34.103692     102002.7      46.7237      46.7237      46.7237 
  109000    129.81447   -10896.684   -9666.5627   -249.21968     102002.7      46.7237      46.7237      46.7237 
  110000    129.10651   -10878.719    -9655.306    79.577402     102002.7      46.7237      46.7237      46.7237 
  111000    131.99146   -10877.158   -9626.4079    53.470391     102002.7      46.7237      46.7237      46.7237 
  112000    130.32009   -10913.868   -9678.9558    117.74941     102002.7      46.7237      46.7237      46.7237 
  113000    132.37401   -10916.203   -9661.8275    264.44671     102002.7      46.7237      46.7237      46.7237 
  114000    128.84871   -10892.094   -9671.1244    201.54072     102002.7      46.7237      46.7237      46.7237 
  115000    131.02731   -10890.592   -9648.9782    404.91594     102002.7      46.7237      46.7237      46.7237 
  116000     127.2052    -10888.52   -9683.1238    155.86178     102002.7      46.7237      46.7237      46.7237 
  117000    133.52812    -10877.43   -9612.1186     11.10547     102002.7      46.7237      46.7237      46.7237 
  118000     127.2184    -10884.41   -9678.8893    69.369172     102002.7      46.7237      46.7237      46.7237 
  119000    127.94532    -10880.14   -9667.7303   -157.22927     102002.7      46.7237      46.7237      46.7237 
  120000    131.36111   -10846.473   -9601.6961   -78.237206     102002.7      46.7237      46.7237      46.7237 
  121000    130.47229   -10907.354   -9670.9991    109.59559     102002.7      46.7237      46.7237      46.7237 
  122000     130.3921   -10906.277   -9670.6817    296.15162     102002.7      46.7237      46.7237      46.7237 
  123000    130.80025    -10898.38   -9658.9175    72.856417     102002.7      46.7237      46.7237      46.7237 
  124000    131.63274   -10909.369   -9662.0177    411.14288     102002.7      46.7237      46.7237      46.7237 
  125000    127.67844   -10890.214   -9680.3341    343.23465     102002.7      46.7237      46.7237      46.7237 
  126000    130.67307     -10904.3    -9666.043   -16.543432     102002.7      46.7237      46.7237      46.7237 
  127000    129.40614   -10881.142   -9654.8898    69.626884     102002.7      46.7237      46.7237      46.7237 
  128000    133.04223   -10875.455   -9614.7477    -158.3632     102002.7      46.7237      46.7237      46.7237 
  129000    129.22417   -10903.965   -9679.4377   -34.610102     102002.7      46.7237      46.7237      46.7237 
  130000    127.91947   -10902.718   -9690.5533    142.93144     102002.7      46.7237      46.7237      46.7237 
  131000    130.21957   -10898.348   -9664.3878   -8.7365969     102002.7      46.7237      46.7237      46.7237 
  132000    131.46419   -10892.963   -9647.2092    -7.745627     102002.7      46.7237      46.7237      46.7237 
  133000    130.28612   -10875.433   -9640.8428    54.046185     102002.7      46.7237      46.7237      46.7237 
  134000     129.8719   -10908.388   -9677.7222   -218.75848     102002.7      46.7237      46.7237      46.7237 
  135000    133.23643   -10884.042   -9621.4943    571.52007     102002.7      46.7237      46.7237      46.7237 
  136000     130.7874    -10917.12   -9677.7793    85.351726     102002.7      46.7237      46.7237      46.7237 
  137000    129.12186   -10921.721   -9698.1633    106.64233     102002.7      46.7237      46.7237      46.7237 
  138000    132.07535   -10911.629   -9660.0837    171.78193     102002.7      46.7237      46.7237      46.7237 
  139000    131.82098   -10894.764    -9645.629   -407.95862     102002.7      46.7237      46.7237      46.7237 
  140000     133.6274   -10919.731   -9653.4783   -152.64955     102002.7      46.7237      46.7237      46.7237 
  141000    129.23735   -10931.857   -9707.2046    95.206144     102002.7      46.7237      46.7237      46.7237 
  142000    127.73159   -10916.967   -9706.5831    145.04984     102002.7      46.7237      46.7237      46.7237 
  143000    127.28048     -10886.5    -9680.391    112.20092     102002.7      46.7237      46.7237      46.7237 
  144000    131.22261   -10883.932   -9640.4673    51.495418     102002.7      46.7237      46.7237      46.7237 
  145000    130.78748   -10881.201     -9641.86    74.801132     102002.7      46.7237      46.7237      46.7237 
  146000    127.88156   -10869.025   -9657.2196    171.18647     102002.7      46.7237      46.7237      46.7237 
  147000    130.53963    -10910.87   -9673.8773   -28.718713     102002.7      46.7237      46.7237      46.7237 
  148000    129.04658   -10918.863   -9696.0183    7.7509303     102002.7      46.7237      46.7237      46.7237 
  149000    128.95192   -10904.897   -9682.9489   -123.26729     102002.7      46.7237      46.7237      46.7237 
  150000    131.81468   -10892.193   -9643.1181   -132.00848     102002.7      46.7237      46.7237      46.7237 
  151000    128.69057   -10909.073   -9689.6017   -31.539114     102002.7      46.7237      46.7237      46.7237 
  152000     127.1754   -10909.934   -9704.8206   -174.12479     102002.7      46.7237      46.7237      46.7237 
  153000    131.38708   -10893.491   -9648.4677   -159.29889     102002.7      46.7237      46.7237      46.7237 
  154000    130.04651   -10880.348    -9648.028    47.830513     102002.7      46.7237      46.7237      46.7237 
  155000    131.68447    -10861.16   -9613.3183    193.54368     102002.7      46.7237      46.7237      46.7237 
  156000     128.5159   -10910.964    -9693.148   -8.9051763     102002.7      46.7237      46.7237      46.7237 
  157000    130.12083   -10899.045   -9666.0207   -247.32814     102002.7      46.7237      46.7237      46.7237 
  158000    130.16412   -10918.954   -9685.5199   -22.392747     102002.7      46.7237      46.7237      46.7237 
  159000    132.41383   -10922.085   -9667.3318   -77.612771     102002.7      46.7237      46.7237      46.7237 
  160000    129.76129   -10888.064    -9658.447   -207.65319     102002.7      46.7237      46.7237      46.7237 
  161000    133.57799   -10899.726   -9633.9416   -290.99302     102002.7      46.7237      46.7237      46.7237 
  162000    129.20945   -10916.192   -9691.8044    44.934505     102002.7      46.7237      46.7237      46.7237 
  163000    131.12737   -10862.446   -9619.8834    12.428061     102002.7      46.7237      46.7237      46.7237 
  164000     131.6881   -10889.269    -9641.393   -15.294781     102002.7      46.7237      46.7237      46.7237 
  165000    129.85054   -10900.969   -9670.5056   -366.14601     102002.7      46.7237      46.7237      46.7237 
  166000    129.81248   -10878.504   -9648.4018    82.658008     102002.7      46.7237      46.7237      46.7237 
  167000    128.27716   -10890.781   -9675.2274    86.086271     102002.7      46.7237      46.7237      46.7237 
  168000    127.23731   -10900.498   -9694.7983    27.291533     102002.7      46.7237      46.7237      46.7237 
  169000    131.45485   -10870.093   -9624.4275  -0.53084778     102002.7      46.7237      46.7237      46.7237 
  170000     129.1969   -10880.635   -9656.3659    66.445159     102002.7      46.7237      46.7237      46.7237 
  171000    130.16626   -10907.285   -9673.8301     277.5509     102002.7      46.7237      46.7237      46.7237 
  172000    130.11859   -10885.906   -9652.9028   -33.039151     102002.7      46.7237      46.7237      46.7237 
  173000    130.27334   -10893.246   -9658.7764    67.550797     102002.7      46.7237      46.7237      46.7237 
  174000    127.86721   -10881.962   -9670.2929    160.87902     102002.7      46.7237      46.7237      46.7237 
  175000     126.9885   -10893.855   -9690.5122     24.36515     102002.7      46.7237      46.7237      46.7237 
  176000    128.71971   -10907.805   -9688.0572     246.8734     102002.7      46.7237      46.7237      46.7237 
  177000    129.89284   -10913.524   -9682.6601    81.531221     102002.7      46.7237      46.7237      46.7237 
  178000    130.93412   -10878.235   -9637.5041   -73.492273     102002.7      46.7237      46.7237      46.7237 
  179000    130.43432   -10907.613   -9671.6183   -251.91978     102002.7      46.7237      46.7237      46.7237 
  180000    131.95154   -10918.648    -9668.276    95.327611     102002.7      46.7237      46.7237      46.7237 
  181000    125.71812   -10898.701   -9707.3962   -257.12655     102002.7      46.7237      46.7237      46.7237 
  182000    125.61374   -10885.946   -9695.6306    33.840037     102002.7      46.7237      46.7237      46.7237 
  183000    127.67911   -10916.607   -9706.7199    -18.47375     102002.7      46.7237      46.7237      46.7237 
  184000    131.89204   -10913.888   -9664.0798   -86.065492     102002.7      46.7237      46.7237      46.7237 
  185000    131.85016   -10926.414   -9677.0021    296.40049     102002.7      46.7237      46.7237      46.7237 
  186000    130.28435   -10894.352    -9659.778   -152.13498     102002.7      46.7237      46.7237      46.7237 
  187000    129.03475   -10905.314   -9682.5816     99.58355     102002.7      46.7237      46.7237      46.7237 
  188000    127.97512   -10918.177   -9705.4856    371.98866     102002.7      46.7237      46.7237      46.7237 
  189000    130.54266   -10913.173   -9676.1513   -87.430894     102002.7      46.7237      46.7237      46.7237 
  190000    129.56998   -10928.238   -9700.4339    61.787289     102002.7      46.7237      46.7237      46.7237 
  191000     130.0986   -10888.384   -9655.5705   -36.484355     102002.7      46.7237      46.7237      46.7237 
  192000    133.15491   -10949.845   -9688.0696   -603.03803     102002.7      46.7237      46.7237      46.7237 
  193000    132.34005     -10927.1    -9673.046    159.67621     102002.7      46.7237      46.7237      46.7237 
  194000    129.58527   -10928.878   -9700.9287   -183.00659     102002.7      46.7237      46.7237      46.7237 
  195000    131.97688   -10922.777   -9672.1651    171.45084     102002.7      46.7237      46.7237      46.7237 
  196000    129.90239   -10914.467   -9683.5126    87.061208     102002.7      46.7237      46.7237      46.7237 
  197000    130.06044   -10897.836   -9665.3835     113.3838     102002.7      46.7237      46.7237      46.7237 
  198000    133.48979     -10901.3   -9636.3518    102.90821     102002.7      46.7237      46.7237      46.7237 
  199000    126.79124    -10951.13   -9749.6568   -142.61721     102002.7      46.7237      46.7237      46.7237 
  200000    131.02473   -10903.013   -9661.4237   -185.10139     102002.7      46.7237      46.7237      46.7237 
  201000    132.25506   -10891.221   -9637.9728   -196.33036     102002.7      46.7237      46.7237      46.7237 
  202000    130.20463   -10894.215   -9660.3965   -335.96887     102002.7      46.7237      46.7237      46.7237 
  203000    132.91837     -10869.5   -9609.9664    -336.1079     102002.7      46.7237      46.7237      46.7237 
  204000     131.2886   -10927.611   -9683.5207   -509.07514     102002.7      46.7237      46.7237      46.7237 
  205000    129.57967   -10899.406   -9671.5096   -582.30306     102002.7      46.7237      46.7237      46.7237 
  206000    130.11736   -10912.151   -9679.1598    11.062597     102002.7      46.7237      46.7237      46.7237 
  207000    131.97689   -10927.188    -9676.576   -153.81859     102002.7      46.7237      46.7237      46.7237 
  208000    128.67544   -10921.102   -9701.7745     289.5094     102002.7      46.7237      46.7237      46.7237 
  209000    129.35709   -10920.436   -9694.6492    -132.1491     102002.7      46.7237      46.7237      46.7237 
  210000    129.68292   -10889.395   -9660.5207   -138.16949     102002.7      46.7237      46.7237      46.7237 
  211000    129.94318   -10926.872   -9695.5313   -32.910561     102002.7      46.7237      46.7237      46.7237 
  212000    128.06458   -10874.265   -9660.7252     -208.326     102002.7      46.7237      46.7237      46.7237 
  213000    127.86215   -10895.047   -9683.4255    439.40463     102002.7      46.7237      46.7237      46.7237 
  214000    127.11758   -10928.605   -9724.0389   -357.57027     102002.7      46.7237      46.7237      46.7237 
  215000    127.60949   -10891.941    -9682.714   -26.039144     102002.7      46.7237      46.7237      46.7237 
  216000    130.35789   -10923.849   -9688.5778   -12.465441     102002.7      46.7237      46.7237      46.7237 
  217000    127.35139   -10866.757    -9659.976    105.64057     102002.7      46.7237      46.7237      46.7237 
  218000    130.56938   -10881.318   -9644.0428    27.852899     102002.7      46.7237      46.7237      46.7237 
  219000    130.72152   -10916.918   -9678.2013    1.3495237     102002.7      46.7237      46.7237      46.7237 
  220000    131.11796   -10914.695   -9672.2214    177.69165     102002.7      46.7237      46.7237      46.7237 
  221000    130.31882   -10891.148   -9656.2475    135.35485     102002.7      46.7237      46.7237      46.7237 
  222000    128.01221   -10895.386    -9682.343     89.08581     102002.7      46.7237      46.7237      46.7237 
  223000    127.24712   -10941.401   -9735.6077   -54.596173     102002.7      46.7237      46.7237      46.7237 
  224000    133.26718   -10903.724   -9640.8844   -40.442345     102002.7      46.7237      46.7237      46.7237 
  225000    132.64226    -10900.82   -9643.9021   -292.66858     102002.7      46.7237      46.7237      46.7237 
  226000    128.81845   -10915.816   -9695.1332   -234.44137     102002.7      46.7237      46.7237      46.7237 
  227000     130.4362   -10916.752   -9680.7395    13.853193     102002.7      46.7237      46.7237      46.7237 
  228000    131.79836   -10920.466   -9671.5452   -6.5529218     102002.7      46.7237      46.7237      46.7237 
  229000    130.33678   -10916.239   -9681.1681    30.835127     102002.7      46.7237      46.7237      46.7237 
  230000    130.73865   -10876.548   -9637.6688   -99.129408     102002.7      46.7237      46.7237      46.7237 
  231000    131.42515    -10873.26   -9627.8757    207.79536     102002.7      46.7237      46.7237      46.7237 
  232000    130.55235   -10911.512   -9674.3989   0.45735273     102002.7      46.7237      46.7237      46.7237 
  233000    131.25914   -10909.462   -9665.6506   -19.467368     102002.7      46.7237      46.7237      46.7237 
  234000    129.28593   -10887.554   -9662.4413    10.450029     102002.7      46.7237      46.7237      46.7237 
  235000     127.1577   -10898.897   -9693.9517   -307.48412     102002.7      46.7237      46.7237      46.7237 
  236000    132.25047    -10898.51   -9645.3047   -180.89963     102002.7      46.7237      46.7237      46.7237 
  237000    132.89966    -10911.62   -9652.2631   -220.21428     102002.7      46.7237      46.7237      46.7237 
  238000    130.70599   -10893.985   -9655.4153    279.25901     102002.7      46.7237      46.7237      46.7237 
  239000    128.78876   -10922.267   -9701.8654   -346.30762     102002.7      46.7237      46.7237      46.7237 
  240000     133.2007   -10897.621   -9635.4118    170.08791     102002.7      46.7237      46.7237      46.7237 
  241000    128.33643    -10903.85   -9687.7344    179.04494     102002.7      46.7237      46.7237      46.7237 
  242000    127.64851   -10926.071   -9716.4748    107.83993     102002.7      46.7237      46.7237      46.7237 
  243000    129.62875   -10908.511   -9680.1496   -194.80204     102002.7      46.7237      46.7237      46.7237 
  244000    132.66457   -10923.064    -9665.935   -33.311164     102002.7      46.7237      46.7237      46.7237 
  245000    128.94018   -10894.576   -9672.7396    206.98006     102002.7      46.7237      46.7237      46.7237 
  246000    127.56605   -10868.171   -9659.3555    264.04938     102002.7      46.7237      46.7237      46.7237 
  247000    128.13108   -10906.569   -9692.3998    -42.84124     102002.7      46.7237      46.7237      46.7237 
  248000    129.37042   -10902.916   -9677.0025    6.0416493     102002.7      46.7237      46.7237      46.7237 
  249000    133.00785   -10883.075    -9622.693     119.9309     102002.7      46.7237      46.7237      46.7237 
  250000     129.5286   -10906.251   -9678.8384   -160.42312     102002.7      46.7237      46.7237      46.7237 
  251000    127.68819   -10883.096   -9673.1237    156.88561     102002.7      46.7237      46.7237      46.7237 
  252000    128.56231   -10885.603   -9667.3472   -259.49652     102002.7      46.7237      46.7237      46.7237 
  253000    130.62883   -10906.489   -9668.6508   -34.900996     102002.7      46.7237      46.7237      46.7237 
  254000    128.00527   -10909.121   -9696.1437    12.801057     102002.7      46.7237      46.7237      46.7237 
  255000    132.28803   -10884.009   -9630.4483   -306.94023     102002.7      46.7237      46.7237      46.7237 
  256000     129.5695   -10890.836   -9663.0365   -6.6423559     102002.7      46.7237      46.7237      46.7237 
  257000    129.65918   -10939.424   -9710.7741   -192.48994     102002.7      46.7237      46.7237      46.7237 
  258000    130.01142   -10884.674   -9652.6866   -381.48295     102002.7      46.7237      46.7237      46.7237 
  259000    128.62054   -10910.426   -9691.6185    16.351942     102002.7      46.7237      46.7237      46.7237 
  260000    127.29123   -10917.667   -9711.4556   -394.93223     102002.7      46.7237      46.7237      46.7237 
  261000    129.08705   -10919.253    -9696.025     228.9664     102002.7      46.7237      46.7237      46.7237 
  262000    131.74666   -10902.041   -9653.6101    392.21305     102002.7      46.7237      46.7237      46.7237 
  263000    128.96806   -10890.439   -9668.3382    92.426655     102002.7      46.7237      46.7237      46.7237 
  264000    132.37741   -10911.863   -9657.4554    294.29417     102002.7      46.7237      46.7237      46.7237 
  265000    127.69858   -10889.437   -9679.3658   -64.371501     102002.7      46.7237      46.7237      46.7237 
  266000    131.90332   -10903.171   -9653.2554    120.15502     102002.7      46.7237      46.7237      46.7237 
  267000    128.28955   -10881.285   -9665.6134   -47.232519     102002.7      46.7237      46.7237      46.7237 
  268000    129.93777   -10872.016    -9640.726   -82.811213     102002.7      46.7237      46.7237      46.7237 
  269000    128.45543   -10882.772    -9665.529   -154.95163     102002.7      46.7237      46.7237      46.7237 
  270000    130.50615   -10899.778   -9663.1022   -208.09657     102002.7      46.7237      46.7237      46.7237 
  271000    130.69608   -10922.106   -9683.6304    -127.7142     102002.7      46.7237      46.7237      46.7237 
  272000     130.5256   -10924.894   -9688.0339    308.34206     102002.7      46.7237      46.7237      46.7237 
  273000    132.57794   -10883.156   -9626.8481   -3.6027963     102002.7      46.7237      46.7237      46.7237 
  274000    127.87328   -10899.849   -9688.1226    254.64004     102002.7      46.7237      46.7237      46.7237 
  275000     131.2276   -10948.253   -9704.7405     393.9811     102002.7      46.7237      46.7237      46.7237 
  276000    127.64372   -10909.666   -9700.1152   -82.679949     102002.7      46.7237      46.7237      46.7237 
  277000    129.69503   -10927.456    -9698.467     40.23366     102002.7      46.7237      46.7237      46.7237 
  278000    128.54053   -10928.207   -9710.1574   -33.675282     102002.7      46.7237      46.7237      46.7237 
  279000    128.38726   -10908.432   -9691.8353   -114.24247     102002.7      46.7237      46.7237      46.7237 
  280000    128.41637   -10910.632   -9693.7594    154.31008     102002.7      46.7237      46.7237      46.7237 
  281000    130.67242   -10869.864    -9631.613   -208.91615     102002.7      46.7237      46.7237      46.7237 
  282000    128.77387   -10903.399   -9683.1383    117.08126     102002.7      46.7237      46.7237      46.7237 
  283000    130.34185   -10864.713   -9629.5943   -252.87892     102002.7      46.7237      46.7237      46.7237 
  284000    127.78305   -10884.446   -9673.5744   -186.92511     102002.7      46.7237      46.7237      46.7237 
  285000    130.37013   -10913.998   -9678.6114    126.29462     102002.7      46.7237      46.7237      46.7237 
  286000    131.38938   -10871.905   -9626.8599    148.95167     102002.7      46.7237      46.7237      46.7237 
  287000    130.78982   -10941.806   -9702.4426   -7.1481273     102002.7      46.7237      46.7237      46.7237 
  288000    127.24835   -10888.345   -9682.5403   -374.97096     102002.7      46.7237      46.7237      46.7237 
  289000    124.20422   -10915.448   -9738.4894   -121.94866     102002.7      46.7237      46.7237      46.7237 
  290000    128.96021   -10899.817   -9677.7906   -50.790592     102002.7      46.7237      46.7237      46.7237 
  291000    130.95214   -10924.821   -9683.9193    39.646501     102002.7      46.7237      46.7237      46.7237 
  292000    128.14138   -10908.756   -9694.4891   -151.70623     102002.7      46.7237      46.7237      46.7237 
  293000    130.13264    -10905.21   -9672.0738   -1.2592457     102002.7      46.7237      46.7237      46.7237 
  294000    131.48437   -10915.298   -9669.3524    42.345209     102002.7      46.7237      46.7237      46.7237 
  295000    132.18352    -10888.42   -9635.8493   -362.79971     102002.7      46.7237      46.7237      46.7237 
  296000    131.84225   -10909.465   -9660.1285    85.675818     102002.7      46.7237      46.7237      46.7237 
  297000    134.40982   -10887.564   -9613.8971   -162.54101     102002.7      46.7237      46.7237      46.7237 
  298000    128.10104   -10903.865   -9689.9799    137.89241     102002.7      46.7237      46.7237      46.7237 
  299000    132.10654    -10913.03   -9661.1895    5.4146408     102002.7      46.7237      46.7237      46.7237 
  300000    133.65055   -10926.105   -9659.6331   -117.80865     102002.7      46.7237      46.7237      46.7237 
  301000    128.40297    -10918.04   -9701.2943   -21.059586     102002.7      46.7237      46.7237      46.7237 
  302000    129.23508   -10866.204   -9641.5726    45.350881     102002.7      46.7237      46.7237      46.7237 
  303000    125.77482   -10935.377   -9743.5352    -65.40865     102002.7      46.7237      46.7237      46.7237 
  304000    128.79974   -10911.668   -9691.1625   -228.08306     102002.7      46.7237      46.7237      46.7237 
  305000     131.1424    -10911.09   -9668.3853    221.68925     102002.7      46.7237      46.7237      46.7237 
  306000    125.67989   -10873.881   -9682.9391    -279.4613     102002.7      46.7237      46.7237      46.7237 
  307000    131.03009   -10891.168   -9649.5276    209.20982     102002.7      46.7237      46.7237      46.7237 
  308000    130.14259   -10935.354   -9702.1237   -184.79141     102002.7      46.7237      46.7237      46.7237 
  309000    129.16668   -10886.722   -9662.7391   -78.930008     102002.7      46.7237      46.7237      46.7237 
  310000    132.43832   -10902.988   -9648.0031    39.684595     102002.7      46.7237      46.7237      46.7237 
  311000    129.74329   -10894.185   -9664.7386   -92.799187     102002.7      46.7237      46.7237      46.7237 
  312000    130.31023   -10891.498   -9656.6787   -292.64602     102002.7      46.7237      46.7237      46.7237 
  313000     130.3265   -10898.532   -9663.5584   -108.47726     102002.7      46.7237      46.7237      46.7237 
  314000    132.05191   -10869.059   -9617.7358   -69.412874     102002.7      46.7237      46.7237      46.7237 
  315000    129.31899   -10902.389   -9676.9624   -41.508334     102002.7      46.7237      46.7237      46.7237 
  316000    129.47245   -10909.836   -9682.9553    54.634782     102002.7      46.7237      46.7237      46.7237 
  317000    129.50464   -10927.646   -9700.4602    103.30032     102002.7      46.7237      46.7237      46.7237 
  318000     131.6383   -10877.182   -9629.7782    229.47016     102002.7      46.7237      46.7237      46.7237 
  319000    127.40774   -10900.399   -9693.0841    117.04631     102002.7      46.7237      46.7237      46.7237 
  320000    125.09868   -10904.393   -9718.9581    240.30165     102002.7      46.7237      46.7237      46.7237 
  321000    130.01056   -10899.503   -9667.5235    43.070127     102002.7      46.7237      46.7237      46.7237 
  322000     132.7911   -10885.156   -9626.8286   -66.356944     102002.7      46.7237      46.7237      46.7237 
  323000    130.64492   -10882.086   -9644.0953   -102.34119     102002.7      46.7237      46.7237      46.7237 
  324000    132.24354   -10925.529   -9672.3899   -330.85498     102002.7      46.7237      46.7237      46.7237 
  325000    134.42862   -10893.854   -9620.0088    136.94714     102002.7      46.7237      46.7237      46.7237 
  326000    131.74984   -10877.173   -9628.7124    49.140101     102002.7      46.7237      46.7237      46.7237 
  327000    130.53747   -10879.555   -9642.5825    548.47185     102002.7      46.7237      46.7237      46.7237 
  328000    131.17166   -10907.727   -9664.7454   -43.904497     102002.7      46.7237      46.7237      46.7237 
  329000    125.89335   -10897.934   -9704.9697    31.288758     102002.7      46.7237      46.7237      46.7237 
  330000    129.97924   -10913.574   -9681.8914   -31.721226     102002.7      46.7237      46.7237      46.7237 
  331000    128.09588   -10878.118   -9664.2821   -290.08422     102002.7      46.7237      46.7237      46.7237 
  332000    131.32983   -10896.903   -9652.4225     39.78209     102002.7      46.7237      46.7237      46.7237 
  333000    130.14456   -10926.395   -9693.1462    362.97388     102002.7      46.7237      46.7237      46.7237 
  334000    131.83358   -10891.968   -9642.7136    149.57755     102002.7      46.7237      46.7237      46.7237 
  335000    129.17238   -10893.544   -9669.5073    206.73524     102002.7      46.7237      46.7237      46.7237 
  336000     132.1953   -10895.397    -9642.715   -8.2814108     102002.7      46.7237      46.7237      46.7237 
  337000    126.40346   -10889.424   -9691.6252   -246.57283     102002.7      46.7237      46.7237      46.7237 
  338000    131.05749   -10938.967    -9697.067   -147.78203     102002.7      46.7237      46.7237      46.7237 
  339000    131.09951   -10912.245   -9669.9463   -147.03134     102002.7      46.7237      46.7237      46.7237 
  340000    131.76483   -10875.022    -9626.419    202.91448     102002.7      46.7237      46.7237      46.7237 
  341000    131.49508   -10897.437   -9651.3898    329.19937     102002.7      46.7237      46.7237      46.7237 
  342000     125.6798   -10904.976   -9714.0344   -127.65696     102002.7      46.7237      46.7237      46.7237 
  343000    129.42785   -10893.996   -9667.5387    129.14216     102002.7      46.7237      46.7237      46.7237 
  344000    128.66881   -10922.371   -9703.1065   -192.64491     102002.7      46.7237      46.7237      46.7237 
  345000    128.54569   -10898.387   -9680.2882    7.9102836     102002.7      46.7237      46.7237      46.7237 
  346000    128.96191   -10909.322   -9687.2799   -50.082377     102002.7      46.7237      46.7237      46.7237 
  347000    127.02604   -10918.304    -9714.606    11.762398     102002.7      46.7237      46.7237      46.7237 
  348000    129.81584   -10896.024   -9665.8902    60.843444     102002.7      46.7237      46.7237      46.7237 
  349000     127.5043    -10910.23   -9702.0003    3.0302682     102002.7      46.7237      46.7237      46.7237 
  350000    132.08688   -10879.905   -9628.2508    25.921141     102002.7      46.7237      46.7237      46.7237 
  351000    126.92628   -10871.641   -9668.8883    114.49671     102002.7      46.7237      46.7237      46.7237 
  352000    128.83457   -10897.035   -9676.1992    94.525265     102002.7      46.7237      46.7237      46.7237 
  353000    130.47647   -10916.789   -9680.3943   -51.502194     102002.7      46.7237      46.7237      46.7237 
  354000    128.85601   -10902.253   -9681.2142   -155.84423     102002.7      46.7237      46.7237      46.7237 
  355000    129.99424   -10891.826   -9660.0008   -107.26454     102002.7      46.7237      46.7237      46.7237 
  356000    129.56076    -10882.61   -9654.8926   -53.947322     102002.7      46.7237      46.7237      46.7237 
  357000    130.33881   -10919.615   -9684.5249   -293.23538     102002.7      46.7237      46.7237      46.7237 
  358000    126.44662   -10913.376    -9715.168   -235.66165     102002.7      46.7237      46.7237      46.7237 
  359000    131.22366   -10895.657   -9652.1823    91.804292     102002.7      46.7237      46.7237      46.7237 
  360000    129.49994   -10907.872   -9680.7311    107.12551     102002.7      46.7237      46.7237      46.7237 
  361000    130.24489   -10936.847   -9702.6473    317.93892     102002.7      46.7237      46.7237      46.7237 
  362000    131.71732   -10909.262   -9661.1095    49.926422     102002.7      46.7237      46.7237      46.7237 
  363000    129.47819   -10911.702   -9684.7676   -6.4282373     102002.7      46.7237      46.7237      46.7237 
  364000    129.69348   -10910.424   -9681.4488    418.40298     102002.7      46.7237      46.7237      46.7237 
  365000    130.14363   -10903.647   -9670.4061    39.436809     102002.7      46.7237      46.7237      46.7237 
  366000    128.50331   -10886.269   -9668.5719    59.963091     102002.7      46.7237      46.7237      46.7237 
  367000    130.08744   -10923.345   -9690.6368   -399.62935     102002.7      46.7237      46.7237      46.7237 
  368000    134.17251   -10874.346   -9602.9281   -73.354554     102002.7      46.7237      46.7237      46.7237 
  369000    129.75143   -10903.067   -9673.5426   -275.33851     102002.7      46.7237      46.7237      46.7237 
  370000    130.71266    -10915.27    -9676.638   -294.88704     102002.7      46.7237      46.7237      46.7237 
  371000    134.15584   -10924.793   -9653.5331   -399.14308     102002.7      46.7237      46.7237      46.7237 
  372000    131.38516   -10890.883   -9645.8778    251.21815     102002.7      46.7237      46.7237      46.7237 
  373000    129.55562   -10936.373   -9708.7042   0.33063046     102002.7      46.7237      46.7237      46.7237 
  374000    131.74352   -10936.862   -9688.4614    121.99405     102002.7      46.7237      46.7237      46.7237 
  375000    131.22564   -10913.403   -9669.9093    231.35053     102002.7      46.7237      46.7237      46.7237 
  376000    132.79478   -10905.942   -9647.5793    236.96795     102002.7      46.7237      46.7237      46.7237 
  377000    127.29475   -10884.283   -9678.0387    222.95426     102002.7      46.7237      46.7237      46.7237 
  378000    129.51293   -10935.659    -9708.395   -64.119487     102002.7      46.7237      46.7237      46.7237 
  379000    128.38867   -10902.446   -9685.8356   -72.787008     102002.7      46.7237      46.7237      46.7237 
  380000    127.42514   -10903.858   -9696.3779   -187.53626     102002.7      46.7237      46.7237      46.7237 
  381000    131.18397   -10916.463   -9673.3646   -231.35599     102002.7      46.7237      46.7237      46.7237 
  382000    129.61003   -10909.593   -9681.4093   -215.88994     102002.7      46.7237      46.7237      46.7237 
  383000    129.90029   -10894.977   -9664.0429   -298.01274     102002.7      46.7237      46.7237      46.7237 
  384000    127.01066   -10917.504   -9713.9521   -238.14469     102002.7      46.7237      46.7237      46.7237 
  385000    132.50274   -10889.772   -9634.1762    23.272003     102002.7      46.7237      46.7237      46.7237 
  386000    127.93964   -10879.514   -9667.1582   -14.328846     102002.7      46.7237      46.7237      46.7237 
  387000    130.56818   -10918.532   -9681.2685    170.44461     102002.7      46.7237      46.7237      46.7237 
  388000    131.20619   -10932.534   -9689.2249   -267.21853     102002.7      46.7237      46.7237      46.7237 
  389000    131.21463   -10902.439   -9659.0493   -154.28521     102002.7      46.7237      46.7237      46.7237 
  390000    130.39953   -10906.763   -9671.0978    292.97461     102002.7      46.7237      46.7237      46.7237 
  391000    129.67432   -10906.152   -9677.3588    21.784332     102002.7      46.7237      46.7237      46.7237 
  392000     128.9428   -10911.186   -9689.3242    2.1701403     102002.7      46.7237      46.7237      46.7237 
  393000    125.98652   -10940.278   -9746.4304    38.555104     102002.7      46.7237      46.7237      46.7237 
  394000    132.18063   -10926.066   -9673.5226    78.175972     102002.7      46.7237      46.7237      46.7237 
  395000    128.86561   -10913.183   -9692.0527    99.586007     102002.7      46.7237      46.7237      46.7237 
  396000    131.09488   -10919.385   -9677.1304    58.647132     102002.7      46.7237      46.7237      46.7237 
  397000    127.51929   -10868.442   -9660.0702   -36.390809     102002.7      46.7237      46.7237      46.7237 
  398000    125.28785   -10914.916   -9727.6892   -305.28526     102002.7      46.7237      46.7237      46.7237 
  399000    134.03066   -10904.506   -9634.4326    -371.2304     102002.7      46.7237      46.7237      46.7237 
  400000    130.70142    -10894.35   -9655.8239    122.47203     102002.7      46.7237      46.7237      46.7237 
  401000    129.35627   -10917.974   -9692.1945    253.15266     102002.7      46.7237      46.7237      46.7237 
  402000    129.04239   -10926.713   -9703.9083    5.1135173     102002.7      46.7237      46.7237      46.7237 
  403000     130.2636   -10947.398    -9713.021    253.73089     102002.7      46.7237      46.7237      46.7237 
  404000    129.72367   -10891.649   -9662.3878    197.45613     102002.7      46.7237      46.7237      46.7237 
  405000    127.50529   -10897.794   -9689.5541   -104.58648     102002.7      46.7237      46.7237      46.7237 
  406000    132.59249   -10902.829   -9646.3828    174.46914     102002.7      46.7237      46.7237      46.7237 
  407000    129.71744   -10870.369   -9641.1675    35.131448     102002.7      46.7237      46.7237      46.7237 
  408000    129.42903    -10905.54   -9679.0715    212.58157     102002.7      46.7237      46.7237      46.7237 
  409000    129.94011   -10914.491   -9683.1793   -1.9749248     102002.7      46.7237      46.7237      46.7237 
  410000     128.1225   -10887.693   -9673.6048   -185.51055     102002.7      46.7237      46.7237      46.7237 
  411000    128.64538   -10890.723   -9671.6803   -30.213186     102002.7      46.7237      46.7237      46.7237 
  412000    129.61651    -10911.08   -9682.8346   -458.34009     102002.7      46.7237      46.7237      46.7237 
  413000    127.68484   -10899.074   -9689.1329   -47.881369     102002.7      46.7237      46.7237      46.7237 
  414000     129.5614   -10888.746   -9661.0233   -41.506081     102002.7      46.7237      46.7237      46.7237 
  415000    131.67744   -10898.514   -9650.7396   -133.62235     102002.7      46.7237      46.7237      46.7237 
  416000    129.80892    -10901.23   -9671.1616   -284.57526     102002.7      46.7237      46.7237      46.7237 
  417000    129.77724   -10884.595   -9654.8264   -88.607734     102002.7      46.7237      46.7237      46.7237 
  418000    128.75293   -10860.327   -9640.2649   -133.32084     102002.7      46.7237      46.7237      46.7237 
  419000    128.82683   -10903.125   -9682.3628    348.70754     102002.7      46.7237      46.7237      46.7237 
  420000    126.59961   -10909.889   -9710.2313    87.668531     102002.7      46.7237      46.7237      46.7237 
  421000     128.3768   -10892.731   -9676.2333    -56.52184     102002.7      46.7237      46.7237      46.7237 
  422000    129.03741   -10898.129   -9675.3713    226.95471     102002.7      46.7237      46.7237      46.7237 
  423000    132.60572   -10887.884   -9631.3126   -189.20585     102002.7      46.7237      46.7237      46.7237 
  424000    131.99747   -10917.256    -9666.449   -112.56589     102002.7      46.7237      46.7237      46.7237 
  425000    130.16156   -10868.291   -9634.8803    132.61151     102002.7      46.7237      46.7237      46.7237 
  426000    129.25615   -10885.566   -9660.7351     113.9039     102002.7      46.7237      46.7237      46.7237 
  427000    133.39115   -10912.348   -9648.3345    11.003251     102002.7      46.7237      46.7237      46.7237 
  428000     130.0629   -10923.586   -9691.1106   -11.140427     102002.7      46.7237      46.7237      46.7237 
  429000    128.91235   -10903.668   -9682.0951   -34.733598     102002.7      46.7237      46.7237      46.7237 
  430000    127.44706   -10889.308   -9681.6207    68.542511     102002.7      46.7237      46.7237      46.7237 
  431000    128.69309   -10909.263   -9689.7676   -116.71556     102002.7      46.7237      46.7237      46.7237 
  432000    133.21033   -10890.269   -9627.9686   -4.1602243     102002.7      46.7237      46.7237      46.7237 
  433000    130.94562   -10892.216   -9651.3756   -194.08558     102002.7      46.7237      46.7237      46.7237 
  434000    126.42704   -10899.346   -9701.3237    101.76487     102002.7      46.7237      46.7237      46.7237 
  435000    130.24018   -10882.209   -9648.0532    252.65899     102002.7      46.7237      46.7237      46.7237 
  436000    130.88314   -10893.439   -9653.1914     319.2214     102002.7      46.7237      46.7237      46.7237 
  437000    131.02676   -10896.446   -9654.8368   -158.55574     102002.7      46.7237      46.7237      46.7237 
  438000    129.21888   -10915.264   -9690.7861     112.7996     102002.7      46.7237      46.7237      46.7237 
  439000    127.70677   -10904.891   -9694.7427    22.875527     102002.7      46.7237      46.7237      46.7237 
  440000    132.87127   -10899.997   -9640.9097    101.32869     102002.7      46.7237      46.7237      46.7237 
  441000    127.45796   -10900.528   -9692.7374   -112.58075     102002.7      46.7237      46.7237      46.7237 
  442000    133.47343   -10900.692   -9635.8988    77.766416     102002.7      46.7237      46.7237      46.7237 
  443000    129.40444   -10874.432    -9648.196    112.25773     102002.7      46.7237      46.7237      46.7237 
  444000     128.8118   -10888.037    -9667.417    244.07972     102002.7      46.7237      46.7237      46.7237 
  445000    130.66187   -10924.228   -9686.0766    123.91719     102002.7      46.7237      46.7237      46.7237 
  446000    130.46592   -10892.423   -9656.1287    234.75551     102002.7      46.7237      46.7237      46.7237 
  447000    130.52454   -10866.355    -9629.505    272.66483     102002.7      46.7237      46.7237      46.7237 
  448000    128.89656   -10902.235   -9680.8113    63.186222     102002.7      46.7237      46.7237      46.7237 
  449000    128.07042   -10910.247   -9696.6518    112.38541     102002.7      46.7237      46.7237      46.7237 
  450000    126.03878   -10901.864   -9707.5214    118.02673     102002.7      46.7237      46.7237      46.7237 
  451000    127.90668   -10887.582   -9675.5389   -63.908592     102002.7      46.7237      46.7237      46.7237 
  452000    131.22062   -10914.719   -9671.2733   -115.83763     102002.7      46.7237      46.7237      46.7237 
  453000     131.6918   -10913.545   -9665.6343   -94.437248     102002.7      46.7237      46.7237      46.7237 
  454000    131.05258   -10888.207   -9646.3529    140.62653     102002.7      46.7237      46.7237      46.7237 
  455000    130.45096    -10913.17   -9677.0171    224.75914     102002.7      46.7237      46.7237      46.7237 
  456000    132.65718   -10928.531    -9671.472   -46.585995     102002.7      46.7237      46.7237      46.7237 
  457000    129.32702   -10910.353   -9684.8512   -376.67879     102002.7      46.7237      46.7237      46.7237 
  458000    131.93674   -10909.556   -9659.3246   -330.97868     102002.7      46.7237      46.7237      46.7237 
  459000    127.73853   -10915.825   -9705.3753    94.214576     102002.7      46.7237      46.7237      46.7237 
  460000    130.43697    -10900.59   -9664.5694    50.605392     102002.7      46.7237      46.7237      46.7237 
  461000    129.48446   -10913.984   -9686.9903    218.72339     102002.7      46.7237      46.7237      46.7237 
  462000     126.1108   -10932.912   -9737.8865    154.36686     102002.7      46.7237      46.7237      46.7237 
  463000    128.25865    -10918.59   -9703.2116   -67.796635     102002.7      46.7237      46.7237      46.7237 
  464000    128.56152   -10918.362   -9700.1136    5.3879709     102002.7      46.7237      46.7237      46.7237 
  465000    133.31196   -10917.212   -9653.9484   -269.81206     102002.7      46.7237      46.7237      46.7237 
  466000    132.42483   -10883.091   -9628.2343    210.04045     102002.7      46.7237      46.7237      46.7237 
  467000    134.54346   -10913.151    -9638.218   -245.40747     102002.7      46.7237      46.7237      46.7237 
  468000     128.7624   -10894.926   -9674.7744   -328.93017     102002.7      46.7237      46.7237      46.7237 
  469000    127.26428   -10904.915   -9698.9588     362.4775     102002.7      46.7237      46.7237      46.7237 
  470000    128.34407   -10915.088   -9698.9003   -192.78626     102002.7      46.7237      46.7237      46.7237 
  471000    131.43393   -10905.369   -9659.9019    234.88848     102002.7      46.7237      46.7237      46.7237 
  472000    130.96912   -10902.583     -9661.52    280.03984     102002.7      46.7237      46.7237      46.7237 
  473000    135.17534   -10890.703   -9609.7818    23.949367     102002.7      46.7237      46.7237      46.7237 
  474000    129.04475   -10889.447   -9666.6196    177.68885     102002.7      46.7237      46.7237      46.7237 
  475000     131.5017   -10869.086   -9622.9767   -131.94509     102002.7      46.7237      46.7237      46.7237 
  476000    131.21517   -10919.322   -9675.9277    212.07945     102002.7      46.7237      46.7237      46.7237 
  477000    127.46305   -10924.815   -9716.9758   -84.097123     102002.7      46.7237      46.7237      46.7237 
  478000    132.98617   -10903.981   -9643.8048   -6.1482008     102002.7      46.7237      46.7237      46.7237 
  479000    129.46386   -10900.718   -9673.9186    539.20964     102002.7      46.7237      46.7237      46.7237 
  480000    128.32549    -10901.07    -9685.058    268.18793     102002.7      46.7237      46.7237      46.7237 
  481000    127.90593   -10903.127   -9691.0914    146.72964     102002.7      46.7237      46.7237      46.7237 
  482000    130.55575   -10879.875   -9642.7289    574.08281     102002.7      46.7237      46.7237      46.7237 
  483000    127.84295   -10874.827   -9663.3874    -4.100397     102002.7      46.7237      46.7237      46.7237 
  484000    133.30437   -10871.546   -9608.3543    325.75291     102002.7      46.7237      46.7237      46.7237 
  485000    131.83868   -10890.293   -9640.9905    157.15072     102002.7      46.7237      46.7237      46.7237 
  486000    130.70328   -10880.934   -9642.3899    2.8195692     102002.7      46.7237      46.7237      46.7237 
  487000    127.39695   -10901.484   -9694.2713   -55.461664     102002.7      46.7237      46.7237      46.7237 
  488000    125.41015   -10899.304   -9710.9182   -346.53811     102002.7      46.7237      46.7237      46.7237 
  489000    129.21124   -10876.779   -9652.3743    150.96691     102002.7      46.7237      46.7237      46.7237 
  490000    129.49612   -10914.311   -9687.2062   -221.50583     102002.7      46.7237      46.7237      46.7237 
  491000    131.29622   -10897.929   -9653.7666    1.0531548     102002.7      46.7237      46.7237      46.7237 
  492000    131.59403   -10923.499   -9676.5144   -32.115728     102002.7      46.7237      46.7237      46.7237 
  493000    128.78763   -10905.872   -9685.4808   -159.30681     102002.7      46.7237      46.7237      46.7237 
  494000    131.30532   -10884.117   -9639.8687   -456.97343     102002.7      46.7237      46.7237      46.7237 
  495000    132.26585   -10908.928    -9655.577   -151.15632     102002.7      46.7237      46.7237      46.7237 
  496000    133.79791   -10881.951   -9614.0822    84.369757     102002.7      46.7237      46.7237      46.7237 
  497000    133.01861   -10923.145    -9662.661     -195.266     102002.7      46.7237      46.7237      46.7237 
  498000     133.7348   -10905.691   -9638.4205    150.03856     102002.7      46.7237      46.7237      46.7237 
  499000     126.8038   -10884.385   -9682.7928   -91.169126     102002.7      46.7237      46.7237      46.7237 
  500000    129.85856   -10887.088   -9656.5486   -138.24612     102002.7      46.7237      46.7237      46.7237 
  500500    128.54309    -10906.31   -9688.2359    46.235328     102002.7      46.7237      46.7237      46.7237 
Loop time of 1882.39 on 16 procs for 500000 steps with 3180 atoms

Performance: 22.950 ns/day, 1.046 hours/ns, 265.620 timesteps/s
99.8% CPU use with 16 MPI tasks x no OpenMP threads

MPI task timing breakdown:
Section |  min time  |  avg time  |  max time  |%varavg| %total
---------------------------------------------------------------
Pair    | 898.01     | 1154.8     | 1431.4     | 483.2 | 61.35
Bond    | 155.61     | 174.59     | 192.08     |  82.6 |  9.27
Neigh   | 17.665     | 17.708     | 17.762     |   0.6 |  0.94
Comm    | 228.26     | 517.73     | 793.33     | 758.7 | 27.50
Output  | 0.022345   | 0.022844   | 0.027552   |   0.8 |  0.00
Modify  | 9.5171     | 10.621     | 12.243     |  26.9 |  0.56
Other   |            | 6.873      |            |       |  0.37

Nlocal:    198.75 ave 229 max 163 min
Histogram: 2 2 3 0 0 1 1 0 3 4
Nghost:    4030.12 ave 4092 max 3976 min
Histogram: 1 2 1 4 1 2 0 4 0 1
Neighs:    11460.8 ave 14151 max 8416 min
Histogram: 2 0 2 2 0 2 3 3 0 2

Total # of neighbors = 183373
Ave neighs/atom = 57.6645
Ave special neighs/atom = 3.62264
Neighbor list builds = 5117
Dangerous builds = 0
Neighbor list info ...
  update every 1 steps, delay 10 steps, check yes
  max neighbors/atom: 2000, page size: 100000
  master list distance cutoff = 16
  ghost atom cutoff = 16
  binsize = 8, bins = 6 6 6
  3 neighbor lists, perpetual/occasional/extra = 3 0 0
  (1) pair buck6d/coul/gauss/dsf, perpetual, skip from (3)
      attributes: half, newton on
      pair build: skip
      stencil: none
      bin: none
  (2) pair lj/cut, perpetual, skip from (3)
      attributes: half, newton on
      pair build: skip
      stencil: none
      bin: none
  (3) neighbor class addition, perpetual
      attributes: half, newton on
      pair build: half/bin/newton
      stencil: half/bin/3d/newton
      bin: standard
Setting up Verlet run ...
  Unit style    : real
  Current step  : 500500
  Time step     : 1
WARNING: Inconsistent image flags (../domain.cpp:786)
Per MPI rank memory allocation (min/avg/max) = 22.98 | 23.38 | 23.44 Mbytes
Step Time TotEng KinEng PotEng E_mol E_pair Temp Pxx Pyy Pzz Pxy Pxz Pyz Cella Cellb Cellc CellAlpha CellBeta CellGamma Volume Press 
  500500       500000   -9688.2359    1218.0737    -10906.31     4376.004   -15282.314    128.54309    231.20318    116.14252   -208.63972    31.292444     334.7116    323.03564      46.7237      46.7237      46.7237           90           90           90     102002.7    46.235328 
  501000       500500   -9682.0935    1205.7819   -10887.875    4381.2436   -15269.119    127.24594     212.8989    359.05275    417.63824    331.73777   -101.65553   -16.280175      46.7237      46.7237      46.7237           90           90           90     102002.7     329.8633 
  502000       501500   -9661.8166    1246.2543   -10908.071    4360.2438   -15268.315    131.51698    237.82467    543.27285    6.1451921    87.574464    105.78336   -184.65249      46.7237      46.7237      46.7237           90           90           90     102002.7    262.41424 
  503000       502500   -9656.2675    1227.1863   -10883.454    4405.8686   -15289.322    129.50475    387.22247    -184.7844     57.01671   -237.35787    127.49699   -80.013209      46.7237      46.7237      46.7237           90           90           90     102002.7    86.484926 
  504000       503500   -9724.2427    1224.4174    -10948.66    4381.6718   -15330.332    129.21254    100.24686    15.480704    502.90954   -454.29499    2.7461411   -31.014565      46.7237      46.7237      46.7237           90           90           90     102002.7    206.21237 
  505000       504500   -9704.3098    1233.0729   -10937.383    4356.0893   -15293.472    130.12595    39.594607    408.77087   -35.150545    62.449128    14.656793   -21.364513      46.7237      46.7237      46.7237           90           90           90     102002.7    137.73831 
  506000       505500   -9724.8288    1207.8566   -10932.685    4357.1723   -15289.858    127.46488    218.56014   -127.72709    153.84166    12.811893   -88.462981    30.105334      46.7237      46.7237      46.7237           90           90           90     102002.7    81.558235 
  507000       506500   -9674.8573    1243.5794   -10918.437    4366.2486   -15284.685     131.2347    330.45538   -414.88661    544.51659   -203.62275   -247.45535    65.257834      46.7237      46.7237      46.7237           90           90           90     102002.7    153.36179 
  508000       507500   -9655.6909    1214.7704   -10870.461     4380.528   -15250.989    128.19449   -28.143483    386.01116    529.41467   -83.364121    340.54442    38.405966      46.7237      46.7237      46.7237           90           90           90     102002.7    295.76078 
  509000       508500   -9695.0496    1220.9204    -10915.97    4367.5867   -15283.557     128.8435    777.96012   -208.72433    19.349663    299.91123    222.99679    71.076758      46.7237      46.7237      46.7237           90           90           90     102002.7    196.19515 
  510000       509500   -9715.9897    1217.6419   -10933.632    4354.4987    -15288.13    128.49752    150.91252    173.58459   -370.31819   -137.09059   -127.29031    12.821789      46.7237      46.7237      46.7237           90           90           90     102002.7   -15.273697 
  511000       510500   -9674.7535    1206.7864    -10881.54    4379.0788   -15260.619    127.35194    106.95254   -91.752584   -358.52616    126.70531   -83.031591   0.59283268      46.7237      46.7237      46.7237           90           90           90     102002.7   -114.44207 
  512000       511500   -9680.7256    1211.1914   -10891.917    4390.4451   -15282.362     127.8168    718.31306    383.74116   -402.50833   -59.410381   -107.05318    106.93812      46.7237      46.7237      46.7237           90           90           90     102002.7    233.18197 
  513000       512500   -9617.4695     1256.198   -10873.668    4411.4606   -15285.128    132.56634    165.47362    163.27649   -212.19275   -40.790278    179.73508    157.34876      46.7237      46.7237      46.7237           90           90           90     102002.7    38.852454 
  514000       513500   -9683.9978    1217.0146   -10901.012    4396.7679    -15297.78    128.43132    444.52769   -377.47665   -90.924576   -420.73278    289.31267   -202.51557      46.7237      46.7237      46.7237           90           90           90     102002.7   -7.9578458 
  515000       514500   -9667.5366    1245.4548   -10912.991    4366.7995   -15279.791    131.43261    258.99835    301.44857    253.20296    129.76006    190.50632    73.042312      46.7237      46.7237      46.7237           90           90           90     102002.7    271.21663 
  516000       515500   -9653.7079    1241.8294   -10895.537     4375.827   -15271.364    131.05003    96.530087   -74.466661    112.93263   -65.148648    32.221722    21.835643      46.7237      46.7237      46.7237           90           90           90     102002.7    44.998687 
  517000       516500    -9684.149    1214.7538   -10898.903    4400.3085   -15299.211    128.19275    152.61351   -285.43378    116.55652    72.502775   -101.67583   -170.89789      46.7237      46.7237      46.7237           90           90           90     102002.7   -5.4212515 
  518000       517500   -9640.3856    1255.2206   -10895.606     4386.718   -15282.324     132.4632    56.406884   -128.93216   -194.45231   -103.39575    292.17955    117.86513      46.7237      46.7237      46.7237           90           90           90     102002.7    -88.99253 
  519000       518500   -9686.7933    1231.3888   -10918.182    4374.7366   -15292.919    129.94823    288.81552    115.57119    -175.0095    -206.8106   -168.08953    145.44016      46.7237      46.7237      46.7237           90           90           90     102002.7    76.459071 
  520000       519500   -9709.3449    1219.6008   -10928.946    4349.4137   -15278.359    128.70424    73.430672    8.5728103    411.09937   -46.834634   -76.044422    73.677205      46.7237      46.7237      46.7237           90           90           90     102002.7    164.36762 
  521000       520500   -9687.7226    1230.2971    -10918.02    4355.1238   -15273.143    129.83302    237.80829   -41.545535     165.7717    23.269133   -130.51526    157.01331      46.7237      46.7237      46.7237           90           90           90     102002.7    120.67815 
  522000       521500   -9635.4696    1234.4626   -10869.932    4412.7468   -15282.679    130.27261    303.87474    115.97533    547.84488    44.044369    86.049429    158.37845      46.7237      46.7237      46.7237           90           90           90     102002.7    322.56499 
  523000       522500   -9696.5687    1248.1823   -10944.751    4345.1561   -15289.907    131.72045    566.65349   -99.400668   -205.59534    89.035025   -136.07047   -76.544918      46.7237      46.7237      46.7237           90           90           90     102002.7    87.219163 
  524000       523500   -9690.2981    1196.6484   -10886.946    4380.7587   -15267.705    126.28208    133.67661   -71.607417    134.88416   -218.25481   -9.8052182   -43.242338      46.7237      46.7237      46.7237           90           90           90     102002.7    65.651117 
  525000       524500   -9693.5315    1212.2844   -10905.816     4370.627   -15276.443    127.93214   -58.087428    607.99735    169.01761    110.01808    103.80076    9.5879155      46.7237      46.7237      46.7237           90           90           90     102002.7    239.64251 
  526000       525500   -9669.2043    1211.3951   -10880.599    4381.2735   -15261.873     127.8383    50.005929   -43.848523   -48.861105     176.9709    149.31528     13.05528      46.7237      46.7237      46.7237           90           90           90     102002.7   -14.234566 
  527000       526500    -9656.185    1246.1179   -10902.303    4363.9844   -15266.287    131.50259    264.72335   -357.37867    82.230341    20.722873    61.833582   -237.41197      46.7237      46.7237      46.7237           90           90           90     102002.7   -3.4749928 
  528000       527500   -9647.4011    1252.2153   -10899.616    4369.4912   -15269.108    132.14604    234.01554    78.157655   -129.99026    21.414892    159.20877    27.067958      46.7237      46.7237      46.7237           90           90           90     102002.7    60.727646 
  529000       528500   -9633.7116    1247.4173   -10881.129    4383.7711     -15264.9    131.63971   -296.31479    8.4898492     180.7166   -162.72119    110.79181   -41.359686      46.7237      46.7237      46.7237           90           90           90     102002.7   -35.702782 
  530000       529500   -9676.4579    1235.8091   -10912.267    4369.3576   -15281.625    130.41471   -267.37912    624.84975   -40.012659    224.71703   -304.63564   -210.83106      46.7237      46.7237      46.7237           90           90           90     102002.7    105.81932 
  531000       530500   -9673.2059     1202.854    -10876.06    4397.8837   -15273.944    126.93696    123.49736   -161.71503    88.593025   -223.91148    146.63236   -168.81864      46.7237      46.7237      46.7237           90           90           90     102002.7    16.791786 
  532000       531500   -9673.8614    1224.1482    -10898.01    4379.2254   -15277.235    129.18413      30.7669    374.69715    284.84367    147.06423    146.79187     240.6683      46.7237      46.7237      46.7237           90           90           90     102002.7    230.10258 
  533000       532500   -9640.0158    1254.2132   -10894.229    4387.9249   -15282.154    132.35688    771.64683    247.60064    760.63166   -79.780366    15.180754   -61.671051      46.7237      46.7237      46.7237           90           90           90     102002.7    593.29304 
  534000       533500   -9667.2046    1206.8398   -10874.044    4374.1222   -15248.167    127.35758     66.40293    480.60991    240.70031   -22.739861    83.449154   -45.825547      46.7237      46.7237      46.7237           90           90           90     102002.7    262.57105 
  535000       534500   -9662.0053    1256.4559   -10918.461    4359.9728   -15278.434    132.59355    456.57343    227.06785    249.70028    112.62261   -94.225996   -120.66619      46.7237      46.7237      46.7237           90           90           90     102002.7    311.11385 
  536000       535500   -9678.0627    1220.1712   -10898.234    4404.5816   -15302.816    128.76444    53.619016   -92.802766    -57.31996    71.980387   -363.55162   -2.3061813      46.7237      46.7237      46.7237           90           90           90     102002.7   -32.167903 
  537000       536500   -9620.5875    1269.8133   -10890.401    4415.7854   -15306.186    134.00316   -50.911536   -123.56563   -25.745781    24.447096   -2.9591133   -88.179437      46.7237      46.7237      46.7237           90           90           90     102002.7   -66.740982 
  538000       537500   -9693.5201    1236.1182   -10929.638    4365.3025   -15294.941    130.44732   -203.16074     81.71061    116.39556    73.936713    177.62164    -78.18777      46.7237      46.7237      46.7237           90           90           90     102002.7   -1.6848565 
  539000       538500   -9661.3735    1241.1329   -10902.506    4379.4646   -15281.971    130.97652     522.1145   -19.464993   -50.989342     85.44273    156.39327    129.81285      46.7237      46.7237      46.7237           90           90           90     102002.7    150.55339 
  540000       539500   -9638.0165    1243.1414   -10881.158    4415.1511   -15296.309    131.18848    190.26792    363.46946   -7.8557482    118.00927   -34.227879    22.091139      46.7237      46.7237      46.7237           90           90           90     102002.7    181.96054 
  541000       540500   -9677.3563    1229.0963   -10906.453    4405.0158   -15311.468    129.70631    205.93761   -114.96287    519.58538   -126.05361    12.446539    52.614148      46.7237      46.7237      46.7237           90           90           90     102002.7    203.52004 
  542000       541500   -9670.0634    1231.2605   -10901.324    4383.8352   -15285.159    129.93469    -158.8091   -499.29226    608.54293    176.73861   -109.01035   -70.879366      46.7237      46.7237      46.7237           90           90           90     102002.7   -16.519475 
  543000       542500   -9654.3953    1219.0047     -10873.4     4400.795   -15274.195    128.64134    67.133505   -419.53076    562.81735    58.077866    -261.8077  -0.90088976      46.7237      46.7237      46.7237           90           90           90     102002.7    70.140032 
  544000       543500   -9668.8602       1216.1    -10884.96    4387.8181   -15272.778    128.33481   -232.17259    497.85651    203.09411   -68.556799   -212.73196    367.18957      46.7237      46.7237      46.7237           90           90           90     102002.7    156.25935 
  545000       544500   -9658.5442    1240.0546   -10898.599    4387.9151   -15286.514    130.86273    358.69681    151.88656   -207.23762    50.414514   -419.94371   -106.90958      46.7237      46.7237      46.7237           90           90           90     102002.7    101.11525 
  546000       545500   -9667.6639      1229.56   -10897.224    4362.3151   -15259.539    129.75523   -415.81259   -241.23151     36.14329    247.66609    -312.5263    330.40508      46.7237      46.7237      46.7237           90           90           90     102002.7   -206.96694 
  547000       546500   -9634.2081    1274.7152   -10908.923    4406.1639   -15315.087    134.52045    84.674452   -243.61982   -117.22425   -203.10504    104.67067   -274.54405      46.7237      46.7237      46.7237           90           90           90     102002.7   -92.056541 
  548000       547500   -9610.9888    1246.8597   -10857.849    4429.1028   -15286.951    131.58087   -355.40209    91.486256   -196.34629   -25.023223    4.0483576   -228.19957      46.7237      46.7237      46.7237           90           90           90     102002.7   -153.42071 
  549000       548500   -9643.9677    1227.0318       -10871    4400.6208    -15271.62    129.48844   -250.96014    593.78542    402.04764    146.86023    132.54934    137.60318      46.7237      46.7237      46.7237           90           90           90     102002.7    248.29097 
  550000       549500   -9711.5049    1195.6261   -10907.131    4390.7691     -15297.9     126.1742   -174.80745    11.521232    82.061363    226.18407   -241.16285   -133.60687      46.7237      46.7237      46.7237           90           90           90     102002.7   -27.074951 
  551000       550500   -9673.5828    1230.5159   -10904.099    4379.0181   -15283.117    129.85611    144.61066   -187.78143   -199.01603    101.27049   -64.566528   -337.21387      46.7237      46.7237      46.7237           90           90           90     102002.7   -80.728934 
  552000       551500   -9636.6604    1247.7467   -10884.407    4388.8262   -15273.233    131.67448    155.10171   -544.53262    417.99687   -224.36557    102.78103   -210.52129      46.7237      46.7237      46.7237           90           90           90     102002.7    9.5219871 
  553000       552500   -9700.7822    1215.8223   -10916.605    4365.5537   -15282.158    128.30551     -90.7777    68.939021    121.77128   -159.37205   -116.40731     212.4675      46.7237      46.7237      46.7237           90           90           90     102002.7    33.310866 
  554000       553500   -9657.5927    1238.7571    -10896.35    4382.5217   -15278.871     130.7258    235.68011    362.35046    263.11666     41.97261   -204.75665    66.104855      46.7237      46.7237      46.7237           90           90           90     102002.7    287.04907 
  555000       554500   -9664.4881    1252.4962   -10916.984    4386.3188   -15303.303    132.17569    493.95497    482.43539   -17.470611     92.28088    320.81259   -148.75178      46.7237      46.7237      46.7237           90           90           90     102002.7    319.63991 
[...]
  936000       935500   -9675.1871    1230.0731    -10905.26    4392.5352   -15297.795    129.80939    37.007821    77.546755   -547.55072    56.811973    80.321754    48.984016      46.7237      46.7237      46.7237           90           90           90     102002.7   -144.33205 
  937000       936500   -9693.9786    1208.5516    -10902.53    4396.0797    -15298.61    127.53823    462.90591   -393.50083    -224.1728   -7.2058982    42.915368    7.4103169      46.7237      46.7237      46.7237           90           90           90     102002.7   -51.589239 
  938000       937500   -9628.4205    1239.7384   -10868.159    4405.4587   -15273.618    130.82936   -39.473748    317.18394    85.205616    136.26234    64.248372   -56.638429      46.7237      46.7237      46.7237           90           90           90     102002.7    120.97194 
  939000       938500   -9683.3535     1215.294   -10898.647    4393.1535   -15291.801    128.24975    251.67636   -273.81729    -158.3415    82.828922    132.52397    178.20252      46.7237      46.7237      46.7237           90           90           90     102002.7   -60.160809 
  940000       939500    -9646.899    1239.3159   -10886.215    4403.7843   -15289.999    130.78478    124.40636    236.33957    53.303372   -9.0743097   -197.89379     275.8365      46.7237      46.7237      46.7237           90           90           90     102002.7    138.01643 
  941000       940500   -9685.2413    1231.3821   -10916.623    4382.9176   -15299.541    129.94753   -366.42023    -469.9437    2.1080887   -346.17605   -159.94523   -46.160454      46.7237      46.7237      46.7237           90           90           90     102002.7   -278.08528 
  942000       941500   -9621.4304    1245.9755   -10867.406    4413.3918   -15280.798    131.48757   -348.71247     226.0509    299.41706   -144.11834    83.862277   -72.616318      46.7237      46.7237      46.7237           90           90           90     102002.7    58.918496 
  943000       942500   -9685.4788    1213.8699   -10899.349    4387.8061   -15287.155    128.09946   -206.51878    53.661103    141.47275    330.74978   -144.46568    99.929487      46.7237      46.7237      46.7237           90           90           90     102002.7   -3.7949757 
  944000       943500   -9659.1541    1238.7057    -10897.86     4400.837   -15298.697    130.72038     7.224429   -117.02888   -422.50452   -160.26381    93.649462   -288.62448      46.7237      46.7237      46.7237           90           90           90     102002.7   -177.43632 
  945000       944500   -9651.1157    1258.1906   -10909.306    4397.8264   -15307.133    132.77662   -378.01101   -177.11304   -184.08356    50.123977    39.372283    90.784061      46.7237      46.7237      46.7237           90           90           90     102002.7   -246.40254 
  946000       945500   -9667.4198    1230.5015   -10897.921    4361.2895   -15259.211     129.8546   -185.26776   -76.400252    355.31216    -221.0732    45.537487    191.81793      46.7237      46.7237      46.7237           90           90           90     102002.7    31.214713 
  947000       946500   -9662.1995    1227.2333   -10889.433    4374.0313   -15263.464     129.5097    523.94093   -153.56405   -550.69553    37.915559   -5.0251094   -54.920342      46.7237      46.7237      46.7237           90           90           90     102002.7   -60.106218 
  948000       947500   -9647.5634     1250.572   -10898.135    4395.9209   -15294.056    131.97263   -175.14914    121.44456    253.49383    -81.19878     232.6031   -11.674253      46.7237      46.7237      46.7237           90           90           90     102002.7    66.596416 
  949000       948500   -9643.6551    1243.5931   -10887.248    4407.2207   -15294.469    131.23615    214.20958    209.14273   -273.47512   -35.764804    156.24322   -38.444345      46.7237      46.7237      46.7237           90           90           90     102002.7    49.959063 
  950000       949500   -9708.8571    1201.6916   -10910.549    4387.9599   -15298.509    126.81429   -936.33528   -104.25809    216.69996    152.07954    -32.33954    35.210907      46.7237      46.7237      46.7237           90           90           90     102002.7   -274.63114 
  951000       950500   -9690.1625    1213.0763   -10903.239    4394.5582   -15297.797    128.01571   -249.61707   -566.04954    -275.0773     81.46674    163.81707   -59.397959      46.7237      46.7237      46.7237           90           90           90     102002.7    -363.5813 
  952000       951500   -9684.1569    1215.3513   -10899.508    4377.4724   -15276.981    128.25579   -211.01905   -613.10715   -76.492637    151.95337   -102.64705    313.40108      46.7237      46.7237      46.7237           90           90           90     102002.7   -300.20628 
  953000       952500   -9668.7017    1241.5718   -10910.274    4376.2624   -15286.536    131.02284    77.524534   -177.17451   -302.03028    218.11867    -489.3173     24.02829      46.7237      46.7237      46.7237           90           90           90     102002.7   -133.89342 
  954000       953500    -9660.053    1236.3246   -10896.378    4403.8453   -15300.223    130.46911    136.27709   -456.85148   -162.28091   -83.276517   -247.63034    29.801119      46.7237      46.7237      46.7237           90           90           90     102002.7   -160.95177 
  955000       954500   -9613.3614    1261.2597   -10874.621    4425.4804   -15300.101     133.1005   -419.69181   -301.46579    437.71917    249.56154    165.11268    47.895195      46.7237      46.7237      46.7237           90           90           90     102002.7   -94.479478 
  956000       955500   -9686.8393    1226.6607     -10913.5    4391.2605   -15304.761    129.44928    334.66021    -106.9281    396.06713   0.71277678   -264.43812    278.44264      46.7237      46.7237      46.7237           90           90           90     102002.7    207.93308 
  957000       956500   -9630.9795     1271.597   -10902.576    4388.3713   -15290.948     134.1914   -63.369189    58.733122    296.83053    -96.89319    254.64602   -3.1445776      46.7237      46.7237      46.7237           90           90           90     102002.7    97.398153 
  958000       957500   -9696.8653    1214.0107   -10910.876    4397.3263   -15308.202    128.11432    318.78112   -277.59095    117.47755    -198.6149    210.20527    34.101205      46.7237      46.7237      46.7237           90           90           90     102002.7    52.889242 
  959000       958500   -9600.9125    1250.8198   -10851.732    4389.2068   -15240.939    131.99878    21.794546    211.93117    604.22325   -3.1709395    145.32696    74.210395      46.7237      46.7237      46.7237           90           90           90     102002.7    279.31632 
  960000       959500   -9671.0586     1231.967   -10903.026    4384.9966   -15288.022    130.00925   -197.44597    98.484788   -301.75689    65.374623   -130.37915    112.04402      46.7237      46.7237      46.7237           90           90           90     102002.7   -133.57269 
  961000       960500   -9706.7099    1208.6565   -10915.366    4397.9591   -15313.326    127.54929    55.304612   -28.565913    4.2659177   -266.31934   -72.652162    78.840961      46.7237      46.7237      46.7237           90           90           90     102002.7    10.334872 
  962000       961500   -9644.9289    1255.0315    -10899.96    4378.6971   -15278.657    132.44324   -148.32025    70.655021   -191.85688   -52.298786    79.145984   -240.60602      46.7237      46.7237      46.7237           90           90           90     102002.7   -89.840705 
  963000       962500   -9667.1877    1238.7354   -10905.923    4387.7573    -15293.68    130.72352    134.07894   -228.36415      489.777   -268.20918   -52.373838    109.89297      46.7237      46.7237      46.7237           90           90           90     102002.7     131.8306 
  964000       963500    -9695.225    1227.0559   -10922.281    4381.9178   -15304.199    129.49098     240.4319   -163.08734    225.41382    -32.76207   -67.553543    94.445223      46.7237      46.7237      46.7237           90           90           90     102002.7    100.91946 
  965000       964500    -9684.814    1231.1683   -10915.982    4379.0826   -15295.065    129.92496   -170.51467    46.444823   -104.91758    58.096086    279.97806   -32.701775      46.7237      46.7237      46.7237           90           90           90     102002.7   -76.329143 
  966000       965500    -9664.587    1204.2405   -10868.827    4417.4035   -15286.231    127.08327    601.58501   -17.783449   -126.24527    242.98733    111.56954    66.978311      46.7237      46.7237      46.7237           90           90           90     102002.7    152.51877 
  967000       966500   -9688.2656    1207.2011   -10895.467    4380.6565   -15276.123    127.39571   -302.84034   -140.15867   -493.98305   -40.227209  -0.52985206   -13.942776      46.7237      46.7237      46.7237           90           90           90     102002.7   -312.32736 
  968000       967500   -9685.2433     1227.375   -10912.618    4391.4855   -15304.104    129.52465   -68.966444   -187.69009   -201.17425    134.36094   -190.92693     148.5429      46.7237      46.7237      46.7237           90           90           90     102002.7   -152.61026 
  969000       968500   -9637.6475    1238.6359   -10876.283    4405.3703   -15281.654    130.71301   -72.706037    150.61998   -291.49228    41.684985   -89.404808    -124.0335      46.7237      46.7237      46.7237           90           90           90     102002.7   -71.192779 
  970000       969500   -9666.7618    1234.9624   -10901.724    4389.0791   -15290.803    130.32535   -327.10495   -920.09135     -116.076   -99.557023   -202.35871   -66.919813      46.7237      46.7237      46.7237           90           90           90     102002.7    -454.4241 
  971000       970500   -9672.8787    1225.4423   -10898.321    4399.8242   -15298.145     129.3207    524.54406    -469.0862    119.12746   -79.905006     31.74588   -37.793144      46.7237      46.7237      46.7237           90           90           90     102002.7    58.195107 
  972000       971500   -9731.4314    1191.9082    -10923.34    4365.8387   -15289.178    125.78185   -25.693646   -143.75271   -181.25923    28.074182   -125.96314    284.06144      46.7237      46.7237      46.7237           90           90           90     102002.7   -116.90186 
  973000       972500   -9655.5259     1238.062   -10893.588    4379.6318    -15273.22    130.65245    303.87433    39.735892   -21.512403   -209.78973    187.79264     193.7581      46.7237      46.7237      46.7237           90           90           90     102002.7    107.36594 
  974000       973500   -9686.8225    1214.8576    -10901.68    4375.0318   -15276.712    128.20369    -112.6419    345.13243    339.22482    355.69732   -123.95562   -34.697609      46.7237      46.7237      46.7237           90           90           90     102002.7    190.57178 
  975000       974500   -9664.3845    1240.4403   -10904.825    4394.2521   -15299.077    130.90343    160.57642    29.744718     194.8663    17.973074   -60.451157    70.329306      46.7237      46.7237      46.7237           90           90           90     102002.7    128.39581 
  976000       975500   -9682.1509    1218.2476   -10900.398    4372.2957   -15272.694    128.56145    450.93375    347.85437    681.12988   -147.89724   -13.676757   -83.628218      46.7237      46.7237      46.7237           90           90           90     102002.7      493.306 
  977000       976500    -9631.577    1248.6586   -10880.236    4374.5094   -15254.745    131.77071     165.7935    19.522564     430.3834   -63.665377    37.427147   -121.24964      46.7237      46.7237      46.7237           90           90           90     102002.7    205.23316 
  978000       977500   -9667.5343    1218.4142   -10885.949    4410.0911    -15296.04    128.57902    313.60821    82.202362   -63.780749    119.91696    160.15403   -348.21862      46.7237      46.7237      46.7237           90           90           90     102002.7    110.67661 
  979000       978500    -9639.689     1238.607   -10878.296    4402.3229   -15280.619    130.70997      45.5192      118.645    428.84317   -107.17804    90.785002    29.886663      46.7237      46.7237      46.7237           90           90           90     102002.7    197.66912 
  980000       979500   -9642.2995    1249.1926   -10891.492    4407.9362   -15299.428    131.82707    209.45785    18.879795   -116.59203    87.980838   -167.75294   -13.214956      46.7237      46.7237      46.7237           90           90           90     102002.7    37.248539 
  981000       980500    -9679.978     1218.697   -10898.675      4371.25   -15269.925    128.60887    79.299922    314.79237       60.262   -51.371564      244.564   -159.70359      46.7237      46.7237      46.7237           90           90           90     102002.7    151.45143 
  982000       981500   -9661.2713    1248.8806   -10910.152    4379.5612   -15289.713    131.79413     151.0913    74.579134    347.91169    218.09921   -214.98115    220.75403      46.7237      46.7237      46.7237           90           90           90     102002.7    191.19404 
  983000       982500   -9677.4436    1247.1084   -10924.552    4373.9749   -15298.527    131.60712    336.99858    246.31246    123.33988     6.983226    168.43534    183.52733      46.7237      46.7237      46.7237           90           90           90     102002.7    235.55031 
  984000       983500   -9682.5415    1213.0023   -10895.544     4408.666    -15304.21    128.00791    92.341881   -155.44176    108.94617    171.72073    301.61511    200.28432      46.7237      46.7237      46.7237           90           90           90     102002.7    15.282099 
  985000       984500   -9685.4574    1226.1052   -10911.563    4385.4961   -15297.059    129.39065   -348.87008   -250.25704    12.313463   -109.24274   -142.43134   -45.994552      46.7237      46.7237      46.7237           90           90           90     102002.7   -195.60455 
  986000       985500   -9683.6351    1219.4414   -10903.077    4381.9149   -15284.991    128.68742   -687.55916    15.671463    5.2014983   -6.9895471   -121.66774   -239.04654      46.7237      46.7237      46.7237           90           90           90     102002.7   -222.22873 
  987000       986500   -9637.4332    1237.1537   -10874.587    4419.9438   -15294.531     130.5566   -488.98394   -207.01747   -582.94816    207.82585    314.84403    -238.4876      46.7237      46.7237      46.7237           90           90           90     102002.7   -426.31652 
  988000       987500   -9669.7779    1260.1802   -10929.958    4387.4254   -15317.384    132.98658    13.124395    52.201313     328.5044   -133.62821    120.43738   -44.322747      46.7237      46.7237      46.7237           90           90           90     102002.7     131.2767 
  989000       988500   -9680.8766    1224.1277   -10905.004    4390.8736   -15295.878    129.18196    283.72018    236.74949    42.928982   -80.340666    44.696924    126.71559      46.7237      46.7237      46.7237           90           90           90     102002.7    187.79955 
  990000       989500   -9651.6919    1239.6416   -10891.334     4392.617   -15283.951    130.81915   -63.579618    69.571105    380.45357   -26.090356     8.109105    248.38283      46.7237      46.7237      46.7237           90           90           90     102002.7    128.81502 
  991000       990500   -9679.5784    1244.8455   -10924.424    4375.9525   -15300.376    131.36831    207.81499   -349.82978   -313.76304    257.62291    -27.99623    78.913274      46.7237      46.7237      46.7237           90           90           90     102002.7   -151.92595 
  992000       991500   -9627.2789    1267.0108    -10894.29    4383.8789   -15278.169    133.70742    187.91159    485.48159    123.57197    41.807964    307.61529   -204.12736      46.7237      46.7237      46.7237           90           90           90     102002.7    265.65505 
  993000       992500   -9666.8772    1233.6703   -10900.547    4389.9804   -15290.528      130.189   -350.91117     49.64753    87.998532   -200.63086    270.33073    46.405689      46.7237      46.7237      46.7237           90           90           90     102002.7    -71.08837 
  994000       993500   -9688.6853    1219.5325   -10908.218    4366.4723    -15274.69    128.69704    301.08001     198.5366   -198.44469    145.54923   -98.863711   -35.513156      46.7237      46.7237      46.7237           90           90           90     102002.7    100.39064 
  995000       994500   -9664.5041    1243.0608   -10907.565    4366.9402   -15274.505    131.17997    615.66329    166.89598    87.934603    131.49138   -102.84626   -222.34377      46.7237      46.7237      46.7237           90           90           90     102002.7    290.16462 
  996000       995500   -9676.4487    1239.0387   -10915.487    4377.6407   -15293.128    130.75552    94.038001    211.50261    591.95038    210.45495   -65.665061     26.96195      46.7237      46.7237      46.7237           90           90           90     102002.7    299.16366 
  997000       996500   -9639.4584    1219.8094   -10859.268    4402.5559   -15261.824    128.72626    170.63394    402.76426    455.88467   -127.41939    140.60274    67.721968      46.7237      46.7237      46.7237           90           90           90     102002.7    343.09429 
  998000       997500    -9646.161    1232.5159   -10878.677    4392.3949   -15271.072    130.06717     462.8594       119.72    291.20484    1.1742755     180.2478    108.65164      46.7237      46.7237      46.7237           90           90           90     102002.7    291.26141 
  999000       998500   -9666.6322    1234.6013   -10901.234    4397.4689   -15298.702    130.28725    259.56235   -279.02119   -20.728706    -35.27047   -396.57816   -422.52295      46.7237      46.7237      46.7237           90           90           90     102002.7    -13.39585 
 1000000       999500   -9652.5583    1228.6259   -10881.184    4417.6218   -15298.806    129.65666    269.26214    215.57783    250.76095    51.513848   -226.07802    39.989665      46.7237      46.7237      46.7237           90           90           90     102002.7    245.20031 
 1000500      1000000   -9664.3101    1211.3573   -10875.667    4384.1352   -15259.802    127.83431    358.85797     6.753505   -176.00829    261.96698   -183.20414    -290.8404      46.7237      46.7237      46.7237           90           90           90     102002.7    63.201061 
Loop time of 2202.69 on 16 procs for 500000 steps with 3180 atoms

Performance: 19.612 ns/day, 1.224 hours/ns, 226.995 timesteps/s
99.8% CPU use with 16 MPI tasks x no OpenMP threads

MPI task timing breakdown:
Section |  min time  |  avg time  |  max time  |%varavg| %total
---------------------------------------------------------------
Pair    | 1245.8     | 1451.1     | 1728.1     | 370.4 | 65.88
Bond    | 121.48     | 183.54     | 243.82     | 389.2 |  8.33
Neigh   | 17.84      | 17.864     | 17.901     |   0.4 |  0.81
Comm    | 182.96     | 516.74     | 783.13     | 816.3 | 23.46
Output  | 0.13533    | 0.1421     | 0.14282    |   0.5 |  0.01
Modify  | 24.559     | 26.411     | 29.078     |  32.9 |  1.20
Other   |            | 6.936      |            |       |  0.31

Nlocal:    198.75 ave 242 max 161 min
Histogram: 4 1 0 2 1 1 2 2 1 2
Nghost:    4057.06 ave 4091 max 4013 min
Histogram: 1 1 0 4 2 1 2 0 1 4
Neighs:    11447.9 ave 14279 max 8254 min
Histogram: 2 1 1 2 1 2 2 1 2 2

Total # of neighbors = 183167
Ave neighs/atom = 57.5997
Ave special neighs/atom = 3.62264
Neighbor list builds = 5118
Dangerous builds = 0
Total wall time: 1:08:09
