LAMMPS (30 Mar 2018)
Reading data file ...
  orthogonal box = (0 0 0) to (46.7237 46.7237 46.7237)
  2 by 2 by 4 MPI processor grid
  reading atoms ...
  3285 atoms
  scanning bonds ...
  5 = max bonds/atom
  scanning angles ...
  10 = max angles/atom
  scanning dihedrals ...
  32 = max dihedrals/atom
  scanning impropers ...
  3 = max impropers/atom
  reading bonds ...
  2064 bonds
  reading angles ...
  3696 angles
  reading dihedrals ...
  6240 dihedrals
  reading impropers ...
  1008 impropers
Finding 1-2 1-3 1-4 neighbors ...
  special bond factors lj:   0          0          0         
  special bond factors coul: 0          0          0         
  5 = max # of 1-2 neighbors
  8 = max # of 1-3 neighbors
  20 = max # of 1-4 neighbors
  19 = max # of special neighbors
Finding 1-2 1-3 1-4 neighbors ...
  special bond factors lj:   0          0          1         
  special bond factors coul: 1          1          1         
  5 = max # of 1-2 neighbors
  8 = max # of 1-3 neighbors
  19 = max # of special neighbors
WARNING: Using 'neigh_modify every 1 delay 0 check yes' setting during minimization (../min.cpp:168)
Neighbor list info ...
  update every 1 steps, delay 0 steps, check yes
  max neighbors/atom: 2000, page size: 100000
  master list distance cutoff = 16
  ghost atom cutoff = 16
  binsize = 8, bins = 6 6 6
  3 neighbor lists, perpetual/occasional/extra = 3 0 0
  (1) pair buck6d/coul/gauss/dsf, perpetual, skip from (3)
      attributes: half, newton on
      pair build: skip
      stencil: none
      bin: none
  (2) pair lj/cut, perpetual, skip from (3)
      attributes: half, newton on
      pair build: skip
      stencil: none
      bin: none
  (3) neighbor class addition, perpetual
      attributes: half, newton on
      pair build: half/bin/newton
      stencil: half/bin/3d/newton
      bin: standard
Setting up cg style minimization ...
  Unit style    : real
  Current step  : 0
WARNING: Inconsistent image flags (../domain.cpp:786)
Per MPI rank memory allocation (min/avg/max) = 23.02 | 23.48 | 23.92 Mbytes
Step Temp E_pair E_mol TotEng Press 
       0            0   -15885.342    6482.8914   -9402.4503    6331.3317 
     500            0   -16233.852    3779.4006   -12454.452   -1499.5688 
Loop time of 4.41083 on 16 procs for 500 steps with 3285 atoms

99.9% CPU use with 16 MPI tasks x no OpenMP threads

Minimization stats:
  Stopping criterion = max force evaluations
  Energy initial, next-to-last, final = 
        -9402.45028618     -12454.3912024     -12454.4516273
  Force two-norm initial, final = 2574.86 10.7352
  Force max component initial, final = 152.073 1.57624
  Final line search alpha, max atom move = 0.00650184 0.0102484
  Iterations, force evaluations = 500 1000

MPI task timing breakdown:
Section |  min time  |  avg time  |  max time  |%varavg| %total
---------------------------------------------------------------
Pair    | 2.6002     | 3.0634     | 3.5403     |  16.3 | 69.45
Bond    | 0.24753    | 0.36093    | 0.42622    |   7.8 |  8.18
Neigh   | 0.02827    | 0.028409   | 0.028748   |   0.1 |  0.64
Comm    | 0.40083    | 0.91022    | 1.3194     |  30.6 | 20.64
Output  | 0          | 0          | 0          |   0.0 |  0.00
Modify  | 0          | 0          | 0          |   0.0 |  0.00
Other   |            | 0.04788    |            |       |  1.09

Nlocal:    205.312 ave 234 max 169 min
Histogram: 1 0 1 2 1 4 3 2 1 1
Nghost:    4103.06 ave 4139 max 4076 min
Histogram: 2 2 1 3 0 5 0 1 1 1
Neighs:    11501 ave 16017 max 7741 min
Histogram: 2 3 2 1 1 0 2 1 3 1

Total # of neighbors = 184016
Ave neighs/atom = 56.017
Ave special neighs/atom = 3.50685
Neighbor list builds = 8
Dangerous builds = 0
Neighbor list info ...
  update every 1 steps, delay 10 steps, check yes
  max neighbors/atom: 2000, page size: 100000
  master list distance cutoff = 16
  ghost atom cutoff = 16
  binsize = 8, bins = 6 6 6
  3 neighbor lists, perpetual/occasional/extra = 3 0 0
  (1) pair buck6d/coul/gauss/dsf, perpetual, skip from (3)
      attributes: half, newton on
      pair build: skip
      stencil: none
      bin: none
  (2) pair lj/cut, perpetual, skip from (3)
      attributes: half, newton on
      pair build: skip
      stencil: none
      bin: none
  (3) neighbor class addition, perpetual
      attributes: half, newton on
      pair build: half/bin/newton
      stencil: half/bin/3d/newton
      bin: standard
Setting up Verlet run ...
  Unit style    : real
  Current step  : 500
  Time step     : 1
WARNING: Inconsistent image flags (../domain.cpp:786)
Per MPI rank memory allocation (min/avg/max) = 22.67 | 22.75 | 22.8 Mbytes
Step Temp PotEng TotEng Press Volume Lx Ly Lz 
     500           91   -12454.452   -11563.654   -1100.3601     102002.7      46.7237      46.7237      46.7237 
    1000    76.248566   -11712.713   -10966.317   -22.547537     102002.7      46.7237      46.7237      46.7237 
    2000    92.296583   -11562.076   -10658.587    212.35642     102002.7      46.7237      46.7237      46.7237 
    3000     91.43873   -11613.782    -10718.69    186.12484     102002.7      46.7237      46.7237      46.7237 
    4000    90.835398   -11610.193   -10721.007     274.8337     102002.7      46.7237      46.7237      46.7237 
    5000      92.0503   -11593.407   -10692.328    322.90654     102002.7      46.7237      46.7237      46.7237 
    6000    90.262731   -11618.521   -10734.941    23.722798     102002.7      46.7237      46.7237      46.7237 
    7000    90.544728   -11619.862   -10733.521    214.42528     102002.7      46.7237      46.7237      46.7237 
    8000    91.555789   -11616.376   -10720.138    63.212425     102002.7      46.7237      46.7237      46.7237 
    9000    92.114478   -11601.623   -10699.916   -70.493061     102002.7      46.7237      46.7237      46.7237 
   10000    91.557034   -11603.716   -10707.466    177.73048     102002.7      46.7237      46.7237      46.7237 
   11000    90.444271   -11587.859   -10702.502    342.41209     102002.7      46.7237      46.7237      46.7237 
   12000     92.46604   -11622.178   -10717.029    306.65632     102002.7      46.7237      46.7237      46.7237 
   13000    92.347437   -11613.976   -10709.989    61.061744     102002.7      46.7237      46.7237      46.7237 
   14000    88.788547   -11614.397   -10745.248    45.430412     102002.7      46.7237      46.7237      46.7237 
   15000     90.38046   -11614.395   -10729.663    404.19988     102002.7      46.7237      46.7237      46.7237 
   16000    92.433385    -11608.08   -10703.251    46.845871     102002.7      46.7237      46.7237      46.7237 
   17000    91.917047   -11618.024    -10718.25    167.11902     102002.7      46.7237      46.7237      46.7237 
   18000    93.013385   -11598.798   -10688.292   -58.207202     102002.7      46.7237      46.7237      46.7237 
   19000    90.944019    -11588.87   -10698.621   -123.25497     102002.7      46.7237      46.7237      46.7237 
   20000    90.027746   -11609.534   -10728.254    68.590672     102002.7      46.7237      46.7237      46.7237 
   21000     91.82914   -11612.133    -10713.22   -46.699356     102002.7      46.7237      46.7237      46.7237 
   22000    91.318916    -11636.91   -10742.991   -157.66185     102002.7      46.7237      46.7237      46.7237 
   23000    92.885198   -11624.015   -10714.763    74.832915     102002.7      46.7237      46.7237      46.7237 
   24000    91.099118   -11617.442   -10725.674    55.251676     102002.7      46.7237      46.7237      46.7237 
   25000    92.018474   -11624.184   -10723.417    67.777869     102002.7      46.7237      46.7237      46.7237 
   26000    92.464902   -11624.657    -10719.52    162.66775     102002.7      46.7237      46.7237      46.7237 
   27000    91.939352   -11631.153   -10731.161    274.26361     102002.7      46.7237      46.7237      46.7237 
   28000    93.059533   -11588.442   -10677.484    348.78408     102002.7      46.7237      46.7237      46.7237 
   29000    90.672134    -11619.06   -10731.473    170.11138     102002.7      46.7237      46.7237      46.7237 
   30000    91.240981   -11629.997   -10736.841    345.18509     102002.7      46.7237      46.7237      46.7237 
   31000    91.651751   -11591.625   -10694.447     182.9326     102002.7      46.7237      46.7237      46.7237 
   32000    89.561938   -11621.431   -10744.711    142.00821     102002.7      46.7237      46.7237      46.7237 
   33000    92.092471    -11639.56   -10738.069    140.86551     102002.7      46.7237      46.7237      46.7237 
   34000    91.142417   -11603.537   -10711.346   -128.67032     102002.7      46.7237      46.7237      46.7237 
   35000    90.863077   -11625.265   -10735.808    263.60774     102002.7      46.7237      46.7237      46.7237 
   36000    89.277461   -11629.812   -10755.877    27.092693     102002.7      46.7237      46.7237      46.7237 
   37000    90.291187   -11626.023   -10742.164    56.335877     102002.7      46.7237      46.7237      46.7237 
   38000    90.626312   -11598.662   -10711.523    183.76113     102002.7      46.7237      46.7237      46.7237 
   39000    89.510657   -11601.521   -10725.303    160.10189     102002.7      46.7237      46.7237      46.7237 
   40000    90.306321   -11624.564   -10740.557    204.00382     102002.7      46.7237      46.7237      46.7237 
   41000    89.796576   -11623.149   -10744.132    140.11696     102002.7      46.7237      46.7237      46.7237 
   42000    92.799504   -11610.644   -10702.231    271.88273     102002.7      46.7237      46.7237      46.7237 
   43000    90.296856   -11612.908   -10728.994    254.73985     102002.7      46.7237      46.7237      46.7237 
   44000    89.465238   -11616.479   -10740.705    205.65773     102002.7      46.7237      46.7237      46.7237 
   45000    88.809437   -11629.597   -10760.243    58.174895     102002.7      46.7237      46.7237      46.7237 
   46000    91.958875   -11604.367   -10704.183    130.12976     102002.7      46.7237      46.7237      46.7237 
   47000    91.107663    -11628.57   -10736.719    347.96438     102002.7      46.7237      46.7237      46.7237 
   48000    90.526511   -11630.923   -10744.761    78.155447     102002.7      46.7237      46.7237      46.7237 
   49000    92.457515   -11616.372   -10711.307    56.582649     102002.7      46.7237      46.7237      46.7237 
   50000    90.821429   -11628.431   -10739.382    115.89459     102002.7      46.7237      46.7237      46.7237 
   51000    90.066172   -11621.441   -10739.785    112.31574     102002.7      46.7237      46.7237      46.7237 
   52000    91.035928   -11613.029   -10721.881    86.714362     102002.7      46.7237      46.7237      46.7237 
   53000    89.108192   -11609.475   -10737.197    27.656031     102002.7      46.7237      46.7237      46.7237 
   54000    87.468144   -11631.925   -10775.701    173.54164     102002.7      46.7237      46.7237      46.7237 
   55000    88.219507   -11600.681   -10737.102   -15.171534     102002.7      46.7237      46.7237      46.7237 
   56000    89.351932   -11619.848   -10745.184    407.42856     102002.7      46.7237      46.7237      46.7237 
   57000    88.902603   -11625.284   -10755.018    56.500201     102002.7      46.7237      46.7237      46.7237 
   58000    88.222991   -11619.961   -10756.348   -55.338626     102002.7      46.7237      46.7237      46.7237 
   59000    92.652105   -11646.447   -10739.477    355.40124     102002.7      46.7237      46.7237      46.7237 
   60000    92.179237   -11642.992   -10740.651    117.97668     102002.7      46.7237      46.7237      46.7237 
   61000    92.696606    -11608.71   -10701.305    384.14477     102002.7      46.7237      46.7237      46.7237 
   62000     90.21626   -11624.313   -10741.188    82.551958     102002.7      46.7237      46.7237      46.7237 
   63000     90.33228   -11647.463   -10763.202    5.1805944     102002.7      46.7237      46.7237      46.7237 
   64000    91.754628   -11601.667   -10703.483    97.484244     102002.7      46.7237      46.7237      46.7237 
   65000    89.481113   -11614.183   -10738.254   0.89640848     102002.7      46.7237      46.7237      46.7237 
   66000    91.910188   -11648.043   -10748.336     109.2037     102002.7      46.7237      46.7237      46.7237 
   67000    89.536286   -11627.901   -10751.432    275.64251     102002.7      46.7237      46.7237      46.7237 
   68000    91.815505   -11599.286   -10700.506    184.99131     102002.7      46.7237      46.7237      46.7237 
   69000    92.715556   -11647.233   -10739.642     110.1065     102002.7      46.7237      46.7237      46.7237 
   70000    91.359733    -11617.29   -10722.971    250.34271     102002.7      46.7237      46.7237      46.7237 
   71000    91.612138   -11644.642   -10747.852    176.02321     102002.7      46.7237      46.7237      46.7237 
   72000    89.993967   -11648.523   -10767.574    118.30988     102002.7      46.7237      46.7237      46.7237 
   73000    90.253843   -11646.635   -10763.142    89.278133     102002.7      46.7237      46.7237      46.7237 
   74000     90.25512    -11644.86   -10761.354    459.66245     102002.7      46.7237      46.7237      46.7237 
   75000    91.786063   -11644.507   -10746.015    97.432146     102002.7      46.7237      46.7237      46.7237 
   76000     91.03286    -11657.89   -10766.771    88.837242     102002.7      46.7237      46.7237      46.7237 
   77000     92.10483   -11619.396   -10717.783    58.107287     102002.7      46.7237      46.7237      46.7237 
   78000    91.231659   -11644.343   -10751.278   -17.136567     102002.7      46.7237      46.7237      46.7237 
   79000     92.36032   -11646.878   -10742.764    147.22232     102002.7      46.7237      46.7237      46.7237 
   80000    90.985668   -11638.903   -10748.246    404.28446     102002.7      46.7237      46.7237      46.7237 
   81000    90.688427   -11625.854   -10738.107    354.80426     102002.7      46.7237      46.7237      46.7237 
   82000    91.445944   -11652.698   -10757.536   -104.90505     102002.7      46.7237      46.7237      46.7237 
   83000    89.755419   -11643.334    -10764.72    111.96573     102002.7      46.7237      46.7237      46.7237 
   84000     89.50243   -11639.726   -10763.588    123.27744     102002.7      46.7237      46.7237      46.7237 
   85000    91.795612   -11626.472   -10727.887    87.952382     102002.7      46.7237      46.7237      46.7237 
   86000    89.691153   -11643.402   -10765.417    223.93932     102002.7      46.7237      46.7237      46.7237 
   87000    93.274387   -11634.132   -10721.071    127.53987     102002.7      46.7237      46.7237      46.7237 
   88000    92.243982    -11634.92   -10731.946    216.56656     102002.7      46.7237      46.7237      46.7237 
   89000     91.31724   -11632.777   -10738.875   -40.540182     102002.7      46.7237      46.7237      46.7237 
   90000    89.315739   -11644.595   -10770.285    246.82028     102002.7      46.7237      46.7237      46.7237 
   91000    88.660301   -11639.444    -10771.55    142.61524     102002.7      46.7237      46.7237      46.7237 
   92000    93.085438   -11643.729   -10732.518    392.87871     102002.7      46.7237      46.7237      46.7237 
   93000    92.505852   -11642.418   -10736.881    379.54176     102002.7      46.7237      46.7237      46.7237 
   94000    92.087539   -11631.124   -10729.681    269.16354     102002.7      46.7237      46.7237      46.7237 
   95000    91.448515   -11641.785   -10746.598    387.54193     102002.7      46.7237      46.7237      46.7237 
   96000    93.827904   -11629.916   -10711.436     379.1327     102002.7      46.7237      46.7237      46.7237 
   97000    91.590399   -11645.942   -10749.365    219.26236     102002.7      46.7237      46.7237      46.7237 
   98000    90.384164   -11635.505   -10750.736    459.48584     102002.7      46.7237      46.7237      46.7237 
   99000    91.709383   -11642.193   -10744.451    151.76309     102002.7      46.7237      46.7237      46.7237 
  100000    92.032541   -11627.191   -10726.287    260.79555     102002.7      46.7237      46.7237      46.7237 
  101000    90.247764   -11631.295   -10747.862    180.08354     102002.7      46.7237      46.7237      46.7237 
  102000    92.278878   -11636.854   -10733.538    12.270455     102002.7      46.7237      46.7237      46.7237 
  103000    91.251657    -11637.93   -10744.669    277.82564     102002.7      46.7237      46.7237      46.7237 
  104000    91.410136   -11632.666   -10737.854    305.80344     102002.7      46.7237      46.7237      46.7237 
  105000    89.676039   -11643.275   -10765.438    128.30069     102002.7      46.7237      46.7237      46.7237 
  106000    90.242707    -11636.56   -10753.176    325.84768     102002.7      46.7237      46.7237      46.7237 
  107000    91.068115   -11609.218   -10717.754    222.26704     102002.7      46.7237      46.7237      46.7237 
  108000     90.22644    -11648.12   -10764.896    156.59321     102002.7      46.7237      46.7237      46.7237 
  109000    95.229365   -11636.203   -10704.005    150.98479     102002.7      46.7237      46.7237      46.7237 
  110000    90.450494   -11656.651   -10771.232    287.05901     102002.7      46.7237      46.7237      46.7237 
  111000    90.971027   -11637.361   -10746.847    339.23274     102002.7      46.7237      46.7237      46.7237 
  112000    90.256004   -11633.576   -10750.061    18.518726     102002.7      46.7237      46.7237      46.7237 
  113000    90.789485   -11639.494   -10750.758    197.12868     102002.7      46.7237      46.7237      46.7237 
  114000      90.5409   -11648.711   -10762.408   -1.9970991     102002.7      46.7237      46.7237      46.7237 
  115000    90.133382   -11639.131   -10756.817    21.142972     102002.7      46.7237      46.7237      46.7237 
  116000     92.39814   -11653.737   -10749.253    169.81832     102002.7      46.7237      46.7237      46.7237 
  117000    91.927202   -11636.097   -10736.223    241.49815     102002.7      46.7237      46.7237      46.7237 
  118000    91.019907   -11647.566   -10756.574    231.46881     102002.7      46.7237      46.7237      46.7237 
  119000    90.866852   -11631.873   -10742.379    415.00809     102002.7      46.7237      46.7237      46.7237 
  120000    90.996181   -11656.403   -10765.644    453.05662     102002.7      46.7237      46.7237      46.7237 
  121000    91.486454   -11644.851   -10749.292    250.11262     102002.7      46.7237      46.7237      46.7237 
  122000     92.70818   -11667.651   -10760.133    215.35766     102002.7      46.7237      46.7237      46.7237 
  123000    91.760221   -11638.129    -10739.89    439.34791     102002.7      46.7237      46.7237      46.7237 
  124000    92.420631   -11654.047   -10749.343    155.75682     102002.7      46.7237      46.7237      46.7237 
  125000    94.389111   -11654.198   -10730.225    276.20978     102002.7      46.7237      46.7237      46.7237 
  126000    89.853916   -11639.875   -10760.297    279.93052     102002.7      46.7237      46.7237      46.7237 
  127000    93.444274   -11635.017   -10720.293     161.2952     102002.7      46.7237      46.7237      46.7237 
  128000    92.832619   -11654.832   -10746.096     165.2334     102002.7      46.7237      46.7237      46.7237 
  129000    89.703181   -11675.327   -10797.224    185.09777     102002.7      46.7237      46.7237      46.7237 
  130000    91.779107    -11645.68   -10747.256    284.16288     102002.7      46.7237      46.7237      46.7237 
  131000    91.532719   -11638.923   -10742.911    90.275869     102002.7      46.7237      46.7237      46.7237 
  132000    92.981046   -11667.346   -10757.156    216.09871     102002.7      46.7237      46.7237      46.7237 
  133000    90.350671   -11654.996   -10770.555    440.93607     102002.7      46.7237      46.7237      46.7237 
  134000    90.835465   -11650.134   -10760.947    202.48696     102002.7      46.7237      46.7237      46.7237 
  135000    91.660363   -11641.245   -10743.984    349.93705     102002.7      46.7237      46.7237      46.7237 
  136000    91.964198   -11643.909   -10743.673    323.91392     102002.7      46.7237      46.7237      46.7237 
  137000    91.724445   -11646.174   -10748.285    74.109487     102002.7      46.7237      46.7237      46.7237 
  138000    90.673062   -11653.384   -10765.787    233.53049     102002.7      46.7237      46.7237      46.7237 
  139000    90.840576   -11638.921   -10749.685    289.25393     102002.7      46.7237      46.7237      46.7237 
  140000    91.730677   -11652.642   -10754.692    208.80266     102002.7      46.7237      46.7237      46.7237 
  141000    90.911441   -11629.528   -10739.597    164.45512     102002.7      46.7237      46.7237      46.7237 
  142000    91.567114   -11650.247   -10753.898    266.47516     102002.7      46.7237      46.7237      46.7237 
  143000    90.577066   -11653.399   -10766.742   -126.80538     102002.7      46.7237      46.7237      46.7237 
  144000    91.064192   -11659.326     -10767.9    123.91757     102002.7      46.7237      46.7237      46.7237 
  145000    89.407104   -11648.623   -10773.418    174.62172     102002.7      46.7237      46.7237      46.7237 
  146000    90.712514   -11648.286   -10760.303     198.9208     102002.7      46.7237      46.7237      46.7237 
  147000    92.444455   -11629.869   -10724.932    132.42292     102002.7      46.7237      46.7237      46.7237 
  148000    90.654196   -11624.851   -10737.439     321.5063     102002.7      46.7237      46.7237      46.7237 
  149000    89.241815   -11653.589   -10780.002    305.27066     102002.7      46.7237      46.7237      46.7237 
  150000    90.735735   -11644.742   -10756.532    348.82539     102002.7      46.7237      46.7237      46.7237 
  151000     90.86467   -11651.025   -10761.552    114.48302     102002.7      46.7237      46.7237      46.7237 
  152000     92.60231   -11664.603    -10758.12   -56.474283     102002.7      46.7237      46.7237      46.7237 
  153000    91.703317   -11639.593   -10741.911    326.18287     102002.7      46.7237      46.7237      46.7237 
  154000    90.652362    -11645.44   -10758.046    495.24208     102002.7      46.7237      46.7237      46.7237 
  155000    89.663237   -11656.261   -10778.549    21.250067     102002.7      46.7237      46.7237      46.7237 
  156000    91.865961   -11635.744   -10736.469    114.54728     102002.7      46.7237      46.7237      46.7237 
  157000    91.115009   -11648.856   -10756.933    285.24803     102002.7      46.7237      46.7237      46.7237 
  158000    90.992816   -11671.682   -10780.956    246.20963     102002.7      46.7237      46.7237      46.7237 
  159000    91.024925   -11635.696   -10744.654     451.4181     102002.7      46.7237      46.7237      46.7237 
  160000    91.943518   -11658.378   -10758.345    68.400326     102002.7      46.7237      46.7237      46.7237 
  161000    91.159594   -11654.488   -10762.129   -70.971656     102002.7      46.7237      46.7237      46.7237 
  162000    90.668165   -11657.118   -10769.569    374.67782     102002.7      46.7237      46.7237      46.7237 
  163000      91.3678   -11653.181   -10758.783    54.610919     102002.7      46.7237      46.7237      46.7237 
  164000    92.361519   -11658.074   -10753.949    16.124899     102002.7      46.7237      46.7237      46.7237 
  165000    92.437026   -11654.542   -10749.678    19.084494     102002.7      46.7237      46.7237      46.7237 
  166000    92.692891   -11636.735   -10729.366    13.218421     102002.7      46.7237      46.7237      46.7237 
  167000    91.947805    -11663.39   -10763.315   -98.882013     102002.7      46.7237      46.7237      46.7237 
  168000    90.145881   -11655.587   -10773.151    294.50466     102002.7      46.7237      46.7237      46.7237 
  169000    91.337914   -11658.003   -10763.898    266.38689     102002.7      46.7237      46.7237      46.7237 
  170000    91.190636   -11665.757   -10773.093    110.53867     102002.7      46.7237      46.7237      46.7237 
  171000    92.039142   -11629.096   -10728.126    348.07412     102002.7      46.7237      46.7237      46.7237 
  172000    90.620787   -11658.036   -10770.951     6.546889     102002.7      46.7237      46.7237      46.7237 
  173000    92.740238   -11649.083    -10741.25    134.69445     102002.7      46.7237      46.7237      46.7237 
  174000    91.906887   -11655.781   -10756.106    281.56883     102002.7      46.7237      46.7237      46.7237 
  175000    92.567922   -11650.019   -10743.873    224.59978     102002.7      46.7237      46.7237      46.7237 
  176000    90.908826   -11643.762   -10753.858    257.00583     102002.7      46.7237      46.7237      46.7237 
  177000    91.851831   -11646.883   -10747.747    343.23865     102002.7      46.7237      46.7237      46.7237 
  178000    91.674682   -11647.902   -10750.501   0.39152881     102002.7      46.7237      46.7237      46.7237 
  179000    91.472947   -11615.286   -10719.859    212.67223     102002.7      46.7237      46.7237      46.7237 
  180000    90.753479   -11645.083   -10756.699    131.21382     102002.7      46.7237      46.7237      46.7237 
  181000    88.643591   -11653.709   -10785.979    91.333951     102002.7      46.7237      46.7237      46.7237 
  182000    93.483564   -11641.671   -10726.562    343.61174     102002.7      46.7237      46.7237      46.7237 
  183000    90.203057   -11671.108   -10788.112    254.78451     102002.7      46.7237      46.7237      46.7237 
  184000    91.338018   -11640.413   -10746.307    136.62625     102002.7      46.7237      46.7237      46.7237 
  185000    91.558699    -11642.07   -10745.804    353.05901     102002.7      46.7237      46.7237      46.7237 
  186000    91.144689   -11644.529   -10752.315    46.632539     102002.7      46.7237      46.7237      46.7237 
  187000    90.036261   -11629.246   -10747.883   -250.91285     102002.7      46.7237      46.7237      46.7237 
  188000    91.459792   -11629.906   -10734.608    86.050176     102002.7      46.7237      46.7237      46.7237 
  189000    91.259409   -11647.232   -10753.895    67.140899     102002.7      46.7237      46.7237      46.7237 
  190000    91.404327   -11657.581   -10762.826   -18.932328     102002.7      46.7237      46.7237      46.7237 
  191000    89.760071   -11644.261   -10765.602     282.1782     102002.7      46.7237      46.7237      46.7237 
  192000    90.513955   -11656.241   -10770.202    92.437648     102002.7      46.7237      46.7237      46.7237 
  193000    92.116156   -11659.386   -10757.663   -2.2106159     102002.7      46.7237      46.7237      46.7237 
  194000     88.24092   -11622.343   -10758.554    257.33068     102002.7      46.7237      46.7237      46.7237 
  195000    88.935791   -11665.381   -10794.791   -202.15327     102002.7      46.7237      46.7237      46.7237 
  196000    91.572959   -11659.957   -10763.551    258.33908     102002.7      46.7237      46.7237      46.7237 
  197000    91.978459   -11639.418   -10739.042    345.29487     102002.7      46.7237      46.7237      46.7237 
  198000    91.853813   -11661.351   -10762.196    149.57513     102002.7      46.7237      46.7237      46.7237 
  199000    92.976417   -11624.704    -10714.56    39.779929     102002.7      46.7237      46.7237      46.7237 
  200000    91.977297   -11629.243   -10728.879     119.4358     102002.7      46.7237      46.7237      46.7237 
  201000    92.041561   -11660.479   -10759.486    10.714412     102002.7      46.7237      46.7237      46.7237 
  202000    91.111196   -11665.658   -10773.773   -162.21091     102002.7      46.7237      46.7237      46.7237 
  203000    90.590105   -11637.606   -10750.821    141.17981     102002.7      46.7237      46.7237      46.7237 
  204000    91.461032   -11656.482   -10761.172    80.788346     102002.7      46.7237      46.7237      46.7237 
  205000    89.448325   -11639.172   -10763.564    91.449838     102002.7      46.7237      46.7237      46.7237 
  206000    89.889977   -11672.182   -10792.251    31.603758     102002.7      46.7237      46.7237      46.7237 
  207000    91.239014   -11630.937     -10737.8    120.49427     102002.7      46.7237      46.7237      46.7237 
  208000    90.710634   -11660.479   -10772.515    158.08745     102002.7      46.7237      46.7237      46.7237 
  209000    89.078416   -11627.978   -10755.992    144.76653     102002.7      46.7237      46.7237      46.7237 
  210000      91.6446   -11664.234   -10767.127    260.11975     102002.7      46.7237      46.7237      46.7237 
  211000    90.564513    -11645.74   -10759.206    166.12804     102002.7      46.7237      46.7237      46.7237 
  212000    89.141555   -11646.145    -10773.54    8.4330042     102002.7      46.7237      46.7237      46.7237 
  213000    91.910104   -11646.158   -10746.452    87.718997     102002.7      46.7237      46.7237      46.7237 
  214000    89.738271   -11649.457   -10771.011    146.89377     102002.7      46.7237      46.7237      46.7237 
  215000    91.294231   -11668.548   -10774.871    96.440209     102002.7      46.7237      46.7237      46.7237 
  216000    92.853093   -11625.774   -10716.837    84.895465     102002.7      46.7237      46.7237      46.7237 
  217000    90.870873   -11666.153    -10776.62    247.89992     102002.7      46.7237      46.7237      46.7237 
  218000    90.540226     -11666.7   -10780.404    38.748452     102002.7      46.7237      46.7237      46.7237 
  219000    92.451151   -11641.706   -10736.703    109.63492     102002.7      46.7237      46.7237      46.7237 
  220000    90.599233   -11651.083   -10764.209     347.0975     102002.7      46.7237      46.7237      46.7237 
  221000    92.072535   -11662.017   -10760.721    301.55748     102002.7      46.7237      46.7237      46.7237 
  222000    90.675797   -11641.796   -10754.172    182.68044     102002.7      46.7237      46.7237      46.7237 
  223000    91.061605   -11678.525   -10787.124   -24.726119     102002.7      46.7237      46.7237      46.7237 
  224000    91.471731   -11641.405   -10745.991   -10.861514     102002.7      46.7237      46.7237      46.7237 
  225000    90.994888   -11657.841   -10767.094   -155.36263     102002.7      46.7237      46.7237      46.7237 
  226000    91.899696   -11641.649   -10742.045     132.2927     102002.7      46.7237      46.7237      46.7237 
  227000    91.073052   -11648.595   -10757.083    108.23367     102002.7      46.7237      46.7237      46.7237 
  228000    92.953679   -11652.086   -10742.165    125.77949     102002.7      46.7237      46.7237      46.7237 
  229000    89.258842    -11629.28   -10755.527   -26.050611     102002.7      46.7237      46.7237      46.7237 
  230000    90.967437   -11645.793   -10755.315    186.60963     102002.7      46.7237      46.7237      46.7237 
  231000    90.428285   -11638.074   -10752.873    176.06911     102002.7      46.7237      46.7237      46.7237 
  232000    90.345671   -11648.119   -10763.727    286.29195     102002.7      46.7237      46.7237      46.7237 
  233000    92.384741   -11648.955   -10744.603   -194.88453     102002.7      46.7237      46.7237      46.7237 
  234000    89.533586   -11648.975   -10772.532    37.161105     102002.7      46.7237      46.7237      46.7237 
  235000    91.388066   -11661.252   -10766.656    142.76408     102002.7      46.7237      46.7237      46.7237 
  236000    89.576297   -11662.104   -10785.243   -108.60325     102002.7      46.7237      46.7237      46.7237 
  237000    89.536796   -11647.446   -10770.972    176.88423     102002.7      46.7237      46.7237      46.7237 
  238000    91.734437   -11647.981   -10749.994    121.10779     102002.7      46.7237      46.7237      46.7237 
  239000    91.245708   -11645.762    -10752.56    91.074843     102002.7      46.7237      46.7237      46.7237 
  240000    91.415974   -11678.336   -10783.467   -57.087924     102002.7      46.7237      46.7237      46.7237 
  241000    91.238552   -11651.944   -10758.811    106.31945     102002.7      46.7237      46.7237      46.7237 
  242000    89.843002   -11654.829   -10775.357    80.736225     102002.7      46.7237      46.7237      46.7237 
  243000    90.247673   -11663.607   -10780.174   -8.0394083     102002.7      46.7237      46.7237      46.7237 
  244000    92.467697   -11648.238   -10743.074   -27.428368     102002.7      46.7237      46.7237      46.7237 
  245000    90.656658   -11638.634   -10751.198   -55.252763     102002.7      46.7237      46.7237      46.7237 
  246000    94.111303   -11640.988   -10719.734    61.297005     102002.7      46.7237      46.7237      46.7237 
  247000    91.569541   -11683.983    -10787.61    261.71939     102002.7      46.7237      46.7237      46.7237 
  248000    93.133979   -11668.591   -10756.904    48.545993     102002.7      46.7237      46.7237      46.7237 
  249000    92.758892   -11645.901   -10737.886     11.46731     102002.7      46.7237      46.7237      46.7237 
  250000    90.292061   -11645.491   -10761.624   -64.829119     102002.7      46.7237      46.7237      46.7237 
  251000    91.003649    -11652.83   -10761.997    -54.91664     102002.7      46.7237      46.7237      46.7237 
  252000    92.822107   -11648.747   -10740.113    47.537328     102002.7      46.7237      46.7237      46.7237 
  253000    92.216514   -11646.355   -10743.649   -3.6673034     102002.7      46.7237      46.7237      46.7237 
  254000    92.081856   -11645.198    -10743.81    76.890916     102002.7      46.7237      46.7237      46.7237 
  255000    89.663038   -11676.768   -10799.058    236.89027     102002.7      46.7237      46.7237      46.7237 
  256000    90.310766   -11649.275   -10765.225    303.74315     102002.7      46.7237      46.7237      46.7237 
  257000    93.044334   -11636.848   -10726.039    132.45878     102002.7      46.7237      46.7237      46.7237 
  258000    90.766454   -11637.695   -10749.184    203.28529     102002.7      46.7237      46.7237      46.7237 
  259000     89.90488   -11646.631   -10766.553   -289.33634     102002.7      46.7237      46.7237      46.7237 
  260000    90.002931   -11672.233   -10791.196    72.153764     102002.7      46.7237      46.7237      46.7237 
  261000    92.036799   -11652.848   -10751.902    421.95805     102002.7      46.7237      46.7237      46.7237 
  262000    90.621618   -11654.275   -10767.182   -183.37679     102002.7      46.7237      46.7237      46.7237 
  263000    89.861714   -11657.294   -10777.639    137.07259     102002.7      46.7237      46.7237      46.7237 
  264000    92.397837   -11661.639   -10757.159    42.742177     102002.7      46.7237      46.7237      46.7237 
  265000    92.163163   -11632.448   -10730.264    212.82589     102002.7      46.7237      46.7237      46.7237 
  266000    90.978466    -11662.54   -10771.954    271.74953     102002.7      46.7237      46.7237      46.7237 
  267000    90.510958   -11639.817   -10753.807    49.403108     102002.7      46.7237      46.7237      46.7237 
  268000    89.334075    -11664.61   -10790.121    127.17567     102002.7      46.7237      46.7237      46.7237 
  269000    89.172317   -11665.034   -10792.128   -245.80751     102002.7      46.7237      46.7237      46.7237 
  270000    87.830343   -11635.664   -10775.895    -123.4672     102002.7      46.7237      46.7237      46.7237 
  271000    92.252706   -11636.378   -10733.318    170.45966     102002.7      46.7237      46.7237      46.7237 
  272000    93.945114   -11649.235   -10729.608    110.66572     102002.7      46.7237      46.7237      46.7237 
  273000    90.786792   -11642.295   -10753.585    252.06508     102002.7      46.7237      46.7237      46.7237 
  274000    91.623942    -11629.23   -10732.325    323.50687     102002.7      46.7237      46.7237      46.7237 
  275000    91.130311    -11670.27   -10778.197     11.02956     102002.7      46.7237      46.7237      46.7237 
  276000      92.1231   -11661.025   -10759.234    36.576566     102002.7      46.7237      46.7237      46.7237 
  277000    92.383161   -11664.857    -10760.52    367.28909     102002.7      46.7237      46.7237      46.7237 
  278000    90.764238   -11648.564   -10760.075     40.61387     102002.7      46.7237      46.7237      46.7237 
  279000    91.864957   -11656.904    -10757.64    372.69913     102002.7      46.7237      46.7237      46.7237 
  280000    92.304413    -11638.83   -10735.264      276.002     102002.7      46.7237      46.7237      46.7237 
  281000    88.555108   -11666.058   -10799.193     42.74282     102002.7      46.7237      46.7237      46.7237 
  282000    92.436735   -11661.416   -10756.554    103.21964     102002.7      46.7237      46.7237      46.7237 
  283000    91.736268   -11660.789   -10762.784   -76.175121     102002.7      46.7237      46.7237      46.7237 
  284000    90.248221   -11654.947   -10771.509    164.11682     102002.7      46.7237      46.7237      46.7237 
  285000    90.216547   -11637.079   -10753.951    142.72873     102002.7      46.7237      46.7237      46.7237 
  286000    91.179431   -11630.829   -10738.276    114.01141     102002.7      46.7237      46.7237      46.7237 
  287000    92.305737   -11629.519    -10725.94    167.83509     102002.7      46.7237      46.7237      46.7237 
  288000    90.163805   -11651.213   -10768.601    68.744216     102002.7      46.7237      46.7237      46.7237 
  289000    90.408112   -11642.698   -10757.695    66.686109     102002.7      46.7237      46.7237      46.7237 
  290000    90.158705   -11659.971   -10777.409    -39.67809     102002.7      46.7237      46.7237      46.7237 
  291000    90.072244   -11649.611   -10767.896    26.456638     102002.7      46.7237      46.7237      46.7237 
  292000    89.898115   -11661.335   -10781.324   -111.27122     102002.7      46.7237      46.7237      46.7237 
  293000    89.826686   -11624.913   -10745.601    102.71321     102002.7      46.7237      46.7237      46.7237 
  294000    92.243935     -11647.8   -10744.826    194.66373     102002.7      46.7237      46.7237      46.7237 
  295000    92.990193   -11651.501   -10741.222     1.492353     102002.7      46.7237      46.7237      46.7237 
  296000    89.208646    -11656.35   -10783.089   -25.054789     102002.7      46.7237      46.7237      46.7237 
  297000    90.553669   -11660.899   -10774.471     213.6924     102002.7      46.7237      46.7237      46.7237 
  298000    91.809778   -11645.757   -10747.033    112.15476     102002.7      46.7237      46.7237      46.7237 
  299000    89.318803   -11667.262   -10792.922    99.134634     102002.7      46.7237      46.7237      46.7237 
  300000    90.686196   -11630.113   -10742.388    141.40382     102002.7      46.7237      46.7237      46.7237 
  301000    91.504808   -11634.791   -10739.053    232.39825     102002.7      46.7237      46.7237      46.7237 
  302000    89.718271   -11647.545   -10769.295    108.77681     102002.7      46.7237      46.7237      46.7237 
  303000    89.410074   -11653.567   -10778.333    326.92331     102002.7      46.7237      46.7237      46.7237 
  304000    90.272618   -11635.353   -10751.677    191.61148     102002.7      46.7237      46.7237      46.7237 
  305000    93.367225   -11639.018   -10725.048    239.26601     102002.7      46.7237      46.7237      46.7237 
  306000    91.125787   -11648.989    -10756.96     186.6886     102002.7      46.7237      46.7237      46.7237 
  307000    91.698511   -11652.314   -10754.679    284.42215     102002.7      46.7237      46.7237      46.7237 
  308000    90.282299   -11642.221    -10758.45    181.54683     102002.7      46.7237      46.7237      46.7237 
  309000    92.199313   -11643.791   -10741.254    157.04228     102002.7      46.7237      46.7237      46.7237 
  310000    91.090417   -11651.304   -10759.622    86.402062     102002.7      46.7237      46.7237      46.7237 
  311000    92.203082   -11637.883   -10735.309    101.25772     102002.7      46.7237      46.7237      46.7237 
  312000    88.436572   -11656.066   -10790.362    145.15342     102002.7      46.7237      46.7237      46.7237 
  313000    89.294943   -11650.224   -10776.117    281.35345     102002.7      46.7237      46.7237      46.7237 
  314000    91.395615   -11672.597   -10777.927    64.365736     102002.7      46.7237      46.7237      46.7237 
  315000    91.840748   -11650.813   -10751.786    356.03936     102002.7      46.7237      46.7237      46.7237 
  316000    90.976687   -11674.547   -10783.978    152.91505     102002.7      46.7237      46.7237      46.7237 
  317000    91.273047     -11654.5    -10761.03    95.546429     102002.7      46.7237      46.7237      46.7237 
  318000    89.827225   -11651.913   -10772.596    22.636948     102002.7      46.7237      46.7237      46.7237 
  319000    91.901595   -11659.351   -10759.728    41.980509     102002.7      46.7237      46.7237      46.7237 
  320000    92.911447   -11660.485   -10750.976    260.66339     102002.7      46.7237      46.7237      46.7237 
  321000    90.071355   -11634.586   -10752.879    249.84079     102002.7      46.7237      46.7237      46.7237 
  322000    91.424513   -11651.422   -10756.469    172.71248     102002.7      46.7237      46.7237      46.7237 
  323000    90.780853   -11654.724   -10766.072    187.67941     102002.7      46.7237      46.7237      46.7237 
  324000    93.723262    -11663.34   -10745.885    149.30338     102002.7      46.7237      46.7237      46.7237 
  325000    90.849134   -11657.197   -10767.877   -3.2651925     102002.7      46.7237      46.7237      46.7237 
  326000    90.115188   -11641.004   -10758.868    248.45897     102002.7      46.7237      46.7237      46.7237 
  327000    90.275761   -11654.206   -10770.499    138.41275     102002.7      46.7237      46.7237      46.7237 
  328000    93.291324    -11655.78   -10742.553    311.34865     102002.7      46.7237      46.7237      46.7237 
  329000    92.409041   -11655.118   -10750.527    332.61845     102002.7      46.7237      46.7237      46.7237 
  330000    91.290599   -11648.802    -10755.16    291.31639     102002.7      46.7237      46.7237      46.7237 
  331000    90.064909   -11646.994    -10765.35    238.77808     102002.7      46.7237      46.7237      46.7237 
  332000    89.656823   -11638.708   -10761.059    135.03222     102002.7      46.7237      46.7237      46.7237 
  333000    92.082516   -11640.721   -10739.327    258.43938     102002.7      46.7237      46.7237      46.7237 
  334000    89.046101   -11670.155   -10798.484    247.57081     102002.7      46.7237      46.7237      46.7237 
  335000    90.802621   -11658.246   -10769.381    140.74411     102002.7      46.7237      46.7237      46.7237 
  336000    92.134574   -11655.498   -10753.595    82.555515     102002.7      46.7237      46.7237      46.7237 
  337000    90.719889   -11672.289   -10784.234   -154.92468     102002.7      46.7237      46.7237      46.7237 
  338000    89.916715   -11643.665   -10763.472    39.747798     102002.7      46.7237      46.7237      46.7237 
  339000    91.779232   -11639.699   -10741.274    270.06654     102002.7      46.7237      46.7237      46.7237 
  340000     88.67378   -11672.678   -10804.652    205.95922     102002.7      46.7237      46.7237      46.7237 
  341000    88.566049   -11644.075   -10777.104    366.57883     102002.7      46.7237      46.7237      46.7237 
  342000    94.895665   -11649.323   -10720.391    787.75099     102002.7      46.7237      46.7237      46.7237 
  343000    92.107351   -11647.569   -10745.932    157.56449     102002.7      46.7237      46.7237      46.7237 
  344000    91.925699   -11640.861   -10741.003    230.07347     102002.7      46.7237      46.7237      46.7237 
  345000    89.619439   -11651.924   -10774.642    279.31983     102002.7      46.7237      46.7237      46.7237 
  346000    91.832461    -11657.71   -10758.764    129.03349     102002.7      46.7237      46.7237      46.7237 
  347000    92.604527   -11631.482   -10724.978    119.91723     102002.7      46.7237      46.7237      46.7237 
  348000    90.813237   -11654.495   -10765.526    171.76292     102002.7      46.7237      46.7237      46.7237 
  349000    90.332199   -11651.334   -10767.074    41.212319     102002.7      46.7237      46.7237      46.7237 
  350000    87.802075   -11646.939   -10787.446     131.2701     102002.7      46.7237      46.7237      46.7237 
  351000    90.687157   -11644.296   -10756.561    221.07066     102002.7      46.7237      46.7237      46.7237 
  352000    92.175941   -11639.287   -10736.978    404.67945     102002.7      46.7237      46.7237      46.7237 
  353000     91.32235   -11663.035   -10769.082    207.30234     102002.7      46.7237      46.7237      46.7237 
  354000    92.283928   -11653.145   -10749.779   -32.759044     102002.7      46.7237      46.7237      46.7237 
  355000    89.620159   -11686.251   -10808.961   -10.486795     102002.7      46.7237      46.7237      46.7237 
  356000    90.920297   -11647.693   -10757.676      232.794     102002.7      46.7237      46.7237      46.7237 
  357000    89.236152   -11660.102   -10786.571     197.6589     102002.7      46.7237      46.7237      46.7237 
  358000    91.727154   -11643.675    -10745.76   -63.580712     102002.7      46.7237      46.7237      46.7237 
  359000    91.553639   -11636.236   -10740.019    84.487666     102002.7      46.7237      46.7237      46.7237 
  360000    92.647911   -11659.666   -10752.737    119.90117     102002.7      46.7237      46.7237      46.7237 
  361000    93.232956   -11648.944   -10736.289    250.42919     102002.7      46.7237      46.7237      46.7237 
  362000    90.304891   -11648.873    -10764.88   -27.397841     102002.7      46.7237      46.7237      46.7237 
  363000    91.784313   -11647.019   -10748.544    186.14778     102002.7      46.7237      46.7237      46.7237 
  364000    93.515876   -11652.379   -10736.954    29.191574     102002.7      46.7237      46.7237      46.7237 
  365000    91.094976    -11642.89   -10751.163   -5.4301702     102002.7      46.7237      46.7237      46.7237 
  366000    91.527848   -11655.922   -10759.958    121.33751     102002.7      46.7237      46.7237      46.7237 
  367000    89.589167   -11650.025   -10773.039   -81.719157     102002.7      46.7237      46.7237      46.7237 
  368000    91.156127   -11644.832   -10752.507    -4.853885     102002.7      46.7237      46.7237      46.7237 
  369000    91.857148    -11665.18   -10765.992    51.949046     102002.7      46.7237      46.7237      46.7237 
  370000    92.844291   -11643.769   -10734.918    263.75583     102002.7      46.7237      46.7237      46.7237 
  371000    90.597329   -11668.968   -10782.112    127.77456     102002.7      46.7237      46.7237      46.7237 
  372000    90.256604     -11675.3    -10791.78    22.659567     102002.7      46.7237      46.7237      46.7237 
  373000    92.805988   -11638.449   -10729.973    72.935603     102002.7      46.7237      46.7237      46.7237 
  374000    91.922725   -11665.228   -10765.398    245.23394     102002.7      46.7237      46.7237      46.7237 
  375000    91.926174   -11667.058   -10767.195    252.71632     102002.7      46.7237      46.7237      46.7237 
  376000    92.996859   -11671.951   -10761.607    174.02478     102002.7      46.7237      46.7237      46.7237 
  377000    89.523578   -11657.154   -10780.809   -260.38547     102002.7      46.7237      46.7237      46.7237 
  378000    92.378571   -11665.046   -10760.754    141.13336     102002.7      46.7237      46.7237      46.7237 
  379000    90.631743   -11646.787   -10759.595    249.87423     102002.7      46.7237      46.7237      46.7237 
  380000    91.898699   -11663.508   -10763.914    24.190336     102002.7      46.7237      46.7237      46.7237 
  381000    91.487938   -11641.916   -10746.343    22.009115     102002.7      46.7237      46.7237      46.7237 
  382000    92.171605   -11662.512   -10760.246   -24.373039     102002.7      46.7237      46.7237      46.7237 
  383000    89.117302    -11650.92   -10778.552    324.49833     102002.7      46.7237      46.7237      46.7237 
  384000    90.324188   -11645.585   -10761.403    197.19602     102002.7      46.7237      46.7237      46.7237 
  385000    93.065368   -11628.474   -10717.458    457.43283     102002.7      46.7237      46.7237      46.7237 
  386000    93.101213   -11662.134   -10750.768    282.15357     102002.7      46.7237      46.7237      46.7237 
  387000    91.375517   -11638.938   -10744.465    251.17069     102002.7      46.7237      46.7237      46.7237 
  388000    90.432347   -11651.093   -10765.853    364.36408     102002.7      46.7237      46.7237      46.7237 
  389000    91.812859    -11664.78   -10766.026    374.82135     102002.7      46.7237      46.7237      46.7237 
  390000     89.79617   -11661.412   -10782.399    173.14973     102002.7      46.7237      46.7237      46.7237 
  391000     88.53978   -11654.695   -10787.981    93.116486     102002.7      46.7237      46.7237      46.7237 
  392000    91.738983   -11626.309   -10728.278    17.181403     102002.7      46.7237      46.7237      46.7237 
  393000    89.258512   -11659.572   -10785.823   -108.76921     102002.7      46.7237      46.7237      46.7237 
  394000    91.715249   -11659.047   -10761.249    369.18766     102002.7      46.7237      46.7237      46.7237 
  395000    89.404587   -11670.283   -10795.103   -51.201556     102002.7      46.7237      46.7237      46.7237 
  396000    90.238498   -11665.401   -10782.058    328.52133     102002.7      46.7237      46.7237      46.7237 
  397000    90.233699   -11669.782   -10786.486    355.55593     102002.7      46.7237      46.7237      46.7237 
  398000    91.612744    -11655.91   -10759.115    107.78177     102002.7      46.7237      46.7237      46.7237 
  399000    89.708047   -11660.779   -10782.629   -111.27939     102002.7      46.7237      46.7237      46.7237 
  400000    91.528593   -11649.874   -10753.902    38.146888     102002.7      46.7237      46.7237      46.7237 
  401000    90.730877   -11658.529   -10770.366   -162.62457     102002.7      46.7237      46.7237      46.7237 
  402000     92.22869   -11651.769   -10748.945    56.009162     102002.7      46.7237      46.7237      46.7237 
  403000    93.905929   -11653.839   -10734.596     369.5786     102002.7      46.7237      46.7237      46.7237 
  404000    90.494889   -11652.561   -10766.708    -161.9293     102002.7      46.7237      46.7237      46.7237 
  405000    94.017202   -11652.802   -10732.469    204.27157     102002.7      46.7237      46.7237      46.7237 
  406000    87.458573   -11650.913   -10794.783    207.70691     102002.7      46.7237      46.7237      46.7237 
  407000    88.327533   -11644.407   -10779.771    153.39891     102002.7      46.7237      46.7237      46.7237 
  408000    90.489123   -11642.334   -10756.538    314.69252     102002.7      46.7237      46.7237      46.7237 
  409000     91.93126    -11642.69   -10742.777    502.09994     102002.7      46.7237      46.7237      46.7237 
  410000    91.481771   -11631.281   -10735.768    323.45411     102002.7      46.7237      46.7237      46.7237 
  411000    91.336151   -11636.244   -10742.156    253.41177     102002.7      46.7237      46.7237      46.7237 
  412000    91.825279   -11636.574   -10737.698    117.84419     102002.7      46.7237      46.7237      46.7237 
  413000    91.989343   -11663.292    -10762.81     182.8945     102002.7      46.7237      46.7237      46.7237 
  414000    94.046255   -11662.021   -10741.404    228.23971     102002.7      46.7237      46.7237      46.7237 
  415000    89.588975   -11639.982   -10762.997    333.13387     102002.7      46.7237      46.7237      46.7237 
  416000    92.950094   -11667.876    -10757.99   -134.00796     102002.7      46.7237      46.7237      46.7237 
  417000    89.661191   -11666.633   -10788.941   -122.51294     102002.7      46.7237      46.7237      46.7237 
  418000    89.954503    -11659.28   -10778.717   -210.97277     102002.7      46.7237      46.7237      46.7237 
  419000    92.350104   -11667.694   -10763.681    233.00611     102002.7      46.7237      46.7237      46.7237 
  420000    90.162604   -11617.877   -10735.277    222.65092     102002.7      46.7237      46.7237      46.7237 
  421000    88.793813   -11652.657   -10783.456    160.45899     102002.7      46.7237      46.7237      46.7237 
  422000    90.806606   -11657.229   -10768.325    285.29834     102002.7      46.7237      46.7237      46.7237 
  423000    90.909869   -11665.078   -10775.163    30.353389     102002.7      46.7237      46.7237      46.7237 
  424000     89.96571   -11656.306   -10775.634    19.880341     102002.7      46.7237      46.7237      46.7237 
  425000    92.106263   -11664.663   -10763.036    263.62479     102002.7      46.7237      46.7237      46.7237 
  426000    90.728852   -11646.068   -10757.925   -41.531031     102002.7      46.7237      46.7237      46.7237 
  427000    88.231086   -11673.205   -10809.513     106.2483     102002.7      46.7237      46.7237      46.7237 
  428000    91.557292   -11665.371   -10769.119    275.13797     102002.7      46.7237      46.7237      46.7237 
  429000    90.365949    -11682.72   -10798.129   -24.656329     102002.7      46.7237      46.7237      46.7237 
  430000    89.132971   -11650.936   -10778.416    190.87129     102002.7      46.7237      46.7237      46.7237 
  431000    89.783291   -11681.107    -10802.22      25.2562     102002.7      46.7237      46.7237      46.7237 
  432000    90.873538   -11674.035   -10784.476    285.16934     102002.7      46.7237      46.7237      46.7237 
  433000    90.727384   -11641.241   -10753.112    72.328142     102002.7      46.7237      46.7237      46.7237 
  434000    92.847082   -11663.004   -10754.125    162.05696     102002.7      46.7237      46.7237      46.7237 
  435000    89.453839   -11648.096   -10772.434   -76.748692     102002.7      46.7237      46.7237      46.7237 
  436000    90.003621   -11665.237   -10784.194    13.439782     102002.7      46.7237      46.7237      46.7237 
  437000    90.776954   -11645.279   -10756.665    377.91913     102002.7      46.7237      46.7237      46.7237 
  438000     91.05349   -11642.315   -10750.994    281.53756     102002.7      46.7237      46.7237      46.7237 
  439000    89.414589   -11638.785   -10763.507    162.59655     102002.7      46.7237      46.7237      46.7237 
  440000    90.941798   -11658.461   -10768.233    378.23277     102002.7      46.7237      46.7237      46.7237 
  441000    91.327532   -11640.331   -10746.328    241.19695     102002.7      46.7237      46.7237      46.7237 
  442000    92.354973   -11630.162   -10726.101     90.99185     102002.7      46.7237      46.7237      46.7237 
  443000    92.341871   -11643.108   -10739.175    168.82043     102002.7      46.7237      46.7237      46.7237 
  444000    93.476183   -11668.868   -10753.832     206.3719     102002.7      46.7237      46.7237      46.7237 
  445000    91.836865   -11676.058   -10777.069   -232.01651     102002.7      46.7237      46.7237      46.7237 
  446000    89.335232   -11636.423   -10761.922    407.17346     102002.7      46.7237      46.7237      46.7237 
  447000    89.608653   -11656.178       -10779   -53.132615     102002.7      46.7237      46.7237      46.7237 
  448000    93.704323   -11658.569     -10741.3    383.12334     102002.7      46.7237      46.7237      46.7237 
  449000    89.538015   -11666.573   -10790.087    214.18608     102002.7      46.7237      46.7237      46.7237 
  450000    92.027498    -11659.75   -10758.895    301.72741     102002.7      46.7237      46.7237      46.7237 
  451000    92.004824   -11640.504   -10739.871     411.7616     102002.7      46.7237      46.7237      46.7237 
  452000    93.264918   -11676.481   -10763.513    365.62831     102002.7      46.7237      46.7237      46.7237 
  453000     90.16566   -11655.484   -10772.854    85.418116     102002.7      46.7237      46.7237      46.7237 
  454000    89.670341   -11658.734   -10780.953    92.393716     102002.7      46.7237      46.7237      46.7237 
  455000    92.587703   -11657.656   -10751.317   -27.870591     102002.7      46.7237      46.7237      46.7237 
  456000    92.792963     -11658.3   -10749.952    205.30233     102002.7      46.7237      46.7237      46.7237 
  457000    91.598051     -11649.2   -10752.549    576.90179     102002.7      46.7237      46.7237      46.7237 
  458000    90.400028   -11626.951   -10742.027    581.19236     102002.7      46.7237      46.7237      46.7237 
  459000    92.301673   -11668.756   -10765.217    246.82309     102002.7      46.7237      46.7237      46.7237 
  460000    92.451614   -11655.536   -10750.529    388.22925     102002.7      46.7237      46.7237      46.7237 
  461000    92.932332   -11660.805   -10751.092    169.86014     102002.7      46.7237      46.7237      46.7237 
  462000    90.767646   -11666.122     -10777.6    230.65564     102002.7      46.7237      46.7237      46.7237 
  463000     91.41177    -11645.61   -10750.782    183.13062     102002.7      46.7237      46.7237      46.7237 
  464000    93.027984   -11636.077   -10725.428    219.99684     102002.7      46.7237      46.7237      46.7237 
  465000     91.10849   -11653.918   -10762.059    222.69996     102002.7      46.7237      46.7237      46.7237 
  466000    88.976685   -11642.937   -10771.946    24.994421     102002.7      46.7237      46.7237      46.7237 
  467000    91.717417   -11628.454   -10730.634    -62.12286     102002.7      46.7237      46.7237      46.7237 
  468000    91.732083   -11655.692   -10757.729    165.87099     102002.7      46.7237      46.7237      46.7237 
  469000    92.092503   -11665.058   -10763.566   -31.082192     102002.7      46.7237      46.7237      46.7237 
  470000    90.804209   -11650.404   -10761.524    140.55389     102002.7      46.7237      46.7237      46.7237 
  471000     90.62299   -11664.415   -10777.308    178.20418     102002.7      46.7237      46.7237      46.7237 
  472000    88.874041   -11651.281   -10781.295     99.43474     102002.7      46.7237      46.7237      46.7237 
  473000    88.814733   -11639.263   -10769.857     119.0312     102002.7      46.7237      46.7237      46.7237 
  474000    90.091907   -11647.655   -10765.747    290.22827     102002.7      46.7237      46.7237      46.7237 
  475000    89.068245   -11646.474   -10774.587     30.88425     102002.7      46.7237      46.7237      46.7237 
  476000     93.41767   -11629.993   -10715.529    442.17261     102002.7      46.7237      46.7237      46.7237 
  477000    90.971946   -11649.612    -10759.09    356.88269     102002.7      46.7237      46.7237      46.7237 
  478000    91.835952   -11647.165   -10748.185    258.28454     102002.7      46.7237      46.7237      46.7237 
  479000    91.169759   -11652.052   -10759.593    133.91731     102002.7      46.7237      46.7237      46.7237 
  480000    90.324689    -11650.39   -10766.204   -20.888418     102002.7      46.7237      46.7237      46.7237 
  481000    89.696612   -11634.553   -10756.515   -77.530454     102002.7      46.7237      46.7237      46.7237 
  482000    92.061873   -11643.012    -10741.82     179.0214     102002.7      46.7237      46.7237      46.7237 
  483000    91.627964   -11652.818   -10755.873    313.97867     102002.7      46.7237      46.7237      46.7237 
  484000    91.126577   -11659.004   -10766.967   -50.130352     102002.7      46.7237      46.7237      46.7237 
  485000    89.429778   -11637.382   -10761.956    160.82845     102002.7      46.7237      46.7237      46.7237 
  486000    88.990388   -11661.347   -10790.222    384.57582     102002.7      46.7237      46.7237      46.7237 
  487000    90.925923   -11664.151   -10774.079    43.498062     102002.7      46.7237      46.7237      46.7237 
  488000    90.438597   -11647.849   -10762.548    446.41926     102002.7      46.7237      46.7237      46.7237 
  489000    89.135261    -11658.53   -10785.986    302.40237     102002.7      46.7237      46.7237      46.7237 
  490000    92.980244   -11664.728   -10754.547    5.8015745     102002.7      46.7237      46.7237      46.7237 
  491000    91.317274   -11653.869   -10759.966    392.72736     102002.7      46.7237      46.7237      46.7237 
  492000    90.933495   -11635.811   -10745.665    137.97914     102002.7      46.7237      46.7237      46.7237 
  493000    92.668278   -11640.668   -10733.541    260.55007     102002.7      46.7237      46.7237      46.7237 
  494000    90.389452   -11644.337   -10759.517    35.402588     102002.7      46.7237      46.7237      46.7237 
  495000    91.267865   -11648.073   -10754.653    69.386834     102002.7      46.7237      46.7237      46.7237 
  496000    95.367824   -11626.585   -10693.031    178.16263     102002.7      46.7237      46.7237      46.7237 
  497000     90.12923   -11638.924   -10756.651    123.58423     102002.7      46.7237      46.7237      46.7237 
  498000    90.879048   -11631.781   -10742.168    238.17854     102002.7      46.7237      46.7237      46.7237 
  499000     90.78037   -11670.311   -10781.664    338.81556     102002.7      46.7237      46.7237      46.7237 
  500000     92.43754   -11648.565   -10743.695   -37.980467     102002.7      46.7237      46.7237      46.7237 
  500500    90.722235   -11651.013   -10762.934    172.08926     102002.7      46.7237      46.7237      46.7237 
Loop time of 1825.39 on 16 procs for 500000 steps with 3285 atoms

Performance: 23.666 ns/day, 1.014 hours/ns, 273.915 timesteps/s
99.8% CPU use with 16 MPI tasks x no OpenMP threads

MPI task timing breakdown:
Section |  min time  |  avg time  |  max time  |%varavg| %total
---------------------------------------------------------------
Pair    | 943.37     | 1200.4     | 1369.2     | 343.3 | 65.76
Bond    | 136.54     | 174.83     | 205.58     | 152.6 |  9.58
Neigh   | 14.628     | 14.704     | 14.878     |   2.6 |  0.81
Comm    | 241.91     | 417.25     | 684.96     | 596.0 | 22.86
Output  | 0.021622   | 0.022468   | 0.027165   |   0.9 |  0.00
Modify  | 9.0441     | 11.228     | 13.51      |  50.8 |  0.62
Other   |            | 6.952      |            |       |  0.38

Nlocal:    205.312 ave 232 max 163 min
Histogram: 1 0 0 0 4 4 1 3 1 2
Nghost:    4133.25 ave 4171 max 4103 min
Histogram: 3 1 0 4 0 2 1 4 0 1
Neighs:    11462.3 ave 17140 max 7818 min
Histogram: 3 2 3 0 2 3 0 1 1 1

Total # of neighbors = 183397
Ave neighs/atom = 55.8286
Ave special neighs/atom = 3.50685
Neighbor list builds = 4125
Dangerous builds = 0
Neighbor list info ...
  update every 1 steps, delay 10 steps, check yes
  max neighbors/atom: 2000, page size: 100000
  master list distance cutoff = 16
  ghost atom cutoff = 16
  binsize = 8, bins = 6 6 6
  3 neighbor lists, perpetual/occasional/extra = 3 0 0
  (1) pair buck6d/coul/gauss/dsf, perpetual, skip from (3)
      attributes: half, newton on
      pair build: skip
      stencil: none
      bin: none
  (2) pair lj/cut, perpetual, skip from (3)
      attributes: half, newton on
      pair build: skip
      stencil: none
      bin: none
  (3) neighbor class addition, perpetual
      attributes: half, newton on
      pair build: half/bin/newton
      stencil: half/bin/3d/newton
      bin: standard
Setting up Verlet run ...
  Unit style    : real
  Current step  : 500500
  Time step     : 1
WARNING: Inconsistent image flags (../domain.cpp:786)
Per MPI rank memory allocation (min/avg/max) = 22.79 | 23.08 | 23.44 Mbytes
Step Time TotEng KinEng PotEng E_mol E_pair Temp Pxx Pyy Pzz Pxy Pxz Pyz Cella Cellb Cellc CellAlpha CellBeta CellGamma Volume Press 
  500500       500000   -10762.934    888.07816   -11651.013    4165.0235   -15816.036    90.722235   -74.745098    245.19389    345.81897   -73.869659   -4.0825955   -130.91101      46.7237      46.7237      46.7237           90           90           90     102002.7    172.08926 
  501000       500500   -10747.436    888.97804   -11636.415    4161.0449   -15797.459    90.814163     266.7861   -153.24168    147.64295    26.171001    53.951732    21.197489      46.7237      46.7237      46.7237           90           90           90     102002.7    87.062457 
  502000       501500   -10772.436    894.76668   -11667.203    4131.0811   -15798.284    91.405505    257.63072   -72.305413    253.15965   -160.04747    26.742708    145.94313      46.7237      46.7237      46.7237           90           90           90     102002.7    146.16165 
  503000       502500   -10780.682     894.6471    -11675.33    4150.0638   -15825.393     91.39329    393.57127    226.39487   -144.30557   -130.16026   -111.84666    76.821062      46.7237      46.7237      46.7237           90           90           90     102002.7    158.55353 
  504000       503500   -10755.873    887.86317   -11643.737    4171.7097   -15815.446    90.700272    298.57652    487.97782    406.97614     44.10085   -137.29264   -219.89208      46.7237      46.7237      46.7237           90           90           90     102002.7    397.84349 
  505000       504500   -10760.757    898.72571   -11659.483    4150.0661   -15809.549    91.809942    13.749704    5.4957796    149.42236   -43.310776    249.42578    19.057123      46.7237      46.7237      46.7237           90           90           90     102002.7    56.222616 
  506000       505500   -10743.432    898.02365   -11641.456    4150.9274   -15792.383    91.738223   -82.239316    253.52924   -63.517436   -275.70952   -40.820737    -125.5163      46.7237      46.7237      46.7237           90           90           90     102002.7    35.924161 
  507000       506500   -10769.308    903.01019   -11672.318    4160.7184   -15833.036    92.247627   -67.978448    58.163628      272.131    259.26341   -149.64435    91.767204      46.7237      46.7237      46.7237           90           90           90     102002.7    87.438728 
  508000       507500   -10742.329    901.60275   -11643.932    4154.4579    -15798.39    92.103848    62.658433    167.07586    -199.4922    39.857338    114.62754   -114.30765      46.7237      46.7237      46.7237           90           90           90     102002.7    10.080694 
  509000       508500   -10781.493    879.23602   -11660.729    4153.6184   -15814.347     89.81896    86.482011   -221.08466    48.495708     29.84747    18.841519    13.230074      46.7237      46.7237      46.7237           90           90           90     102002.7   -28.702313 
  510000       509500   -10753.077    895.87776   -11648.955    4183.2528   -15832.208    91.519008    31.085633    177.35196    515.25812    107.90682   -138.07715   -93.261328      46.7237      46.7237      46.7237           90           90           90     102002.7     241.2319 
  511000       510500   -10749.708    905.40475   -11655.112    4159.1256   -15814.238    92.492245    669.51891    192.77766    430.00588   -121.04522    99.205644   -248.48361      46.7237      46.7237      46.7237           90           90           90     102002.7    430.76748 
  512000       511500   -10788.109    875.61347   -11663.722    4149.1574   -15812.879    89.448896    323.15167    57.666641    815.90468   -36.285835    87.470175   -148.74166      46.7237      46.7237      46.7237           90           90           90     102002.7    398.90766 
  513000       512500   -10748.903    894.86283   -11643.766    4152.7533    -15796.52    91.415327    278.55508    416.40116     326.8327     1.379452    112.68266   -116.43835      46.7237      46.7237      46.7237           90           90           90     102002.7    340.59631 
  514000       513500   -10799.405    868.45118   -11667.856    4138.0485   -15805.905    88.717227    100.30542    89.119231    576.33449    251.39764    3.7359122   -234.41387      46.7237      46.7237      46.7237           90           90           90     102002.7    255.25304 
  515000       514500   -10764.508    894.73521   -11659.243    4151.1035   -15810.347     91.40229   -737.30186    209.90637    127.94262    38.195608    59.365248    35.197637      46.7237      46.7237      46.7237           90           90           90     102002.7   -133.15096 
  516000       515500   -10748.212    906.97367   -11655.186    4162.7008   -15817.887    92.652519    90.062504    480.09748   -161.57626   -148.54656    122.13812   -62.546193      46.7237      46.7237      46.7237           90           90           90     102002.7    136.19458 
  517000       516500   -10793.466    862.36383    -11655.83    4166.6465   -15822.476    88.095369    156.04064   -92.769982    288.10349   -106.45975     156.5652   -186.26575      46.7237      46.7237      46.7237           90           90           90     102002.7    117.12472 
  518000       517500   -10768.856    884.72038   -11653.577    4153.0667   -15806.643    90.379218    176.28282    484.01806    558.09949   -98.943451     -36.9498    78.177996      46.7237      46.7237      46.7237           90           90           90     102002.7    406.13346 
  519000       518500   -10773.059    875.19283   -11648.252     4154.467   -15802.719    89.405925    239.38368    226.71727    171.41105   -132.99402   -119.21081    350.81565      46.7237      46.7237      46.7237           90           90           90     102002.7      212.504 
  520000       519500   -10789.581    884.88779   -11674.468    4144.6893   -15819.158     90.39632    36.012669    99.372525    230.90368   -88.968963    -57.35159    34.129799      46.7237      46.7237      46.7237           90           90           90     102002.7    122.09629 
  521000       520500   -10781.685    877.27935   -11658.964    4155.3479   -15814.312    89.619075     241.5202    380.22425    292.41368    4.1113921    198.31132   -175.42198      46.7237      46.7237      46.7237           90           90           90     102002.7    304.71938 
  522000       521500   -10779.772    904.35547   -11684.128    4141.9381   -15826.066    92.385054    271.74929   -204.35385    228.42809   -172.05196    169.18521    95.480456      46.7237      46.7237      46.7237           90           90           90     102002.7    98.607843 
  523000       522500   -10761.574    900.20643    -11661.78    4138.6922   -15800.472    91.961207    190.82949    7.4051905    76.786034    18.743933   -11.535303    59.881487      46.7237      46.7237      46.7237           90           90           90     102002.7    91.673572 
  524000       523500   -10736.444     903.8624   -11640.306    4164.1816   -15804.488    92.334684   -383.73949    264.71965    374.37668   -68.286947   -354.10134    153.30267      46.7237      46.7237      46.7237           90           90           90     102002.7    85.118949 
  525000       524500   -10779.373    888.59286   -11667.966    4137.7811   -15805.747    90.774814    -119.1455     51.41273    516.61239   -245.70046    159.05683    86.664599      46.7237      46.7237      46.7237           90           90           90     102002.7    149.62654 
  526000       525500   -10721.208     905.7127    -11626.92    4169.0693    -15795.99    92.523704   -20.189441    553.17646    206.83311    24.920432    44.519038   -219.49031      46.7237      46.7237      46.7237           90           90           90     102002.7    246.60671 
  527000       526500   -10769.791    897.44856    -11667.24    4135.9765   -15803.216    91.679475    362.44764   -76.510184     197.6853   -270.16735    15.015758   -251.58071      46.7237      46.7237      46.7237           90           90           90     102002.7    161.20758 
  528000       527500   -10768.193    893.14711   -11661.341    4161.4607   -15822.801    91.240057   -8.3912032    152.93412    90.860755   -93.189357    155.48648   -87.640756      46.7237      46.7237      46.7237           90           90           90     102002.7     78.46789 
  529000       528500   -10784.528    887.35059   -11671.879    4135.9915    -15807.87    90.647909    252.21129    277.20723    93.451135    171.82305    236.81152    40.021255      46.7237      46.7237      46.7237           90           90           90     102002.7    207.62322 
  530000       529500   -10782.411    873.70414   -11656.115    4161.3007   -15817.415    89.253847    3.4409887   -25.773571    172.15688    204.50516   -174.50194    11.670047      46.7237      46.7237      46.7237           90           90           90     102002.7    49.941433 
  531000       530500   -10770.838    885.36627   -11656.205    4146.4402   -15802.645      90.4452    96.368802   -155.10066     251.1457   -17.473652    151.54239   -187.67052      46.7237      46.7237      46.7237           90           90           90     102002.7    64.137949 
  532000       531500   -10782.884    882.47509   -11665.359    4148.3028   -15813.662    90.149849   -64.970103    349.28697    257.03187    -74.03566   -5.6921959   -90.292872      46.7237      46.7237      46.7237           90           90           90     102002.7    180.44958 
  533000       532500   -10785.465    886.58124   -11672.046    4144.2032   -15816.249    90.569316   -453.86029     445.4774    529.40831   -187.95327      27.6748    56.269093      46.7237      46.7237      46.7237           90           90           90     102002.7    173.67514 
  534000       533500   -10784.095    879.86389   -11663.959     4147.618   -15811.577      89.8831    143.12801    272.96974     194.2241   -151.85367   -19.936856    261.24641      46.7237      46.7237      46.7237           90           90           90     102002.7    203.44062 
  535000       534500   -10740.332    890.92613   -11631.258    4171.9393   -15803.198    91.013171    55.863753    29.766605    339.26512   -29.248822    243.13551    60.201984      46.7237      46.7237      46.7237           90           90           90     102002.7    141.63183 
  536000       535500   -10757.725    885.95085   -11643.676    4159.2173   -15802.894    90.504918    260.24341     210.2709    179.72422   -123.77225    2.5134689   -86.165799      46.7237      46.7237      46.7237           90           90           90     102002.7    216.74618 
  537000       536500   -10767.712    898.60209   -11666.314    4139.6479   -15805.962    91.797314    370.21602    493.63471    118.97393    5.4088794   -121.38287    -189.9568      46.7237      46.7237      46.7237           90           90           90     102002.7    327.60822 
  538000       537500   -10731.114    912.99848   -11644.112    4166.3419   -15810.454    93.267987    309.36397    504.50101    562.33386   -62.970723   -90.931267    116.70446      46.7237      46.7237      46.7237           90           90           90     102002.7    458.73295 
  539000       538500   -10793.878    874.76394   -11668.642    4144.5323   -15813.174    89.362112   -16.368049    199.49829     238.9776    212.61102     10.76928   -38.640061      46.7237      46.7237      46.7237           90           90           90     102002.7    140.70261 
  540000       539500   -10751.093    901.86673    -11652.96    4134.1778   -15787.138    92.130816    751.72649    311.77325    347.29708   -133.86909    159.04364   -81.357891      46.7237      46.7237      46.7237           90           90           90     102002.7    470.26561 
  541000       540500   -10765.131    889.67016   -11654.801    4144.7083    -15799.51    90.884867   -63.694373    208.79799    839.35406   -45.650774   -339.76551   -152.21968      46.7237      46.7237      46.7237           90           90           90     102002.7    328.15256 
  542000       541500   -10753.877    897.48543   -11651.362    4160.5234   -15811.885    91.683241    111.08374    122.67154    527.18574   -110.39701    36.788925   -165.05467      46.7237      46.7237      46.7237           90           90           90     102002.7      253.647 
  543000       542500   -10771.026      885.441   -11656.467    4161.0922   -15817.559    90.452834    202.74369    99.417293    625.23408    382.41724    232.85498   -189.51621      46.7237      46.7237      46.7237           90           90           90     102002.7    309.13169 
  544000       543500   -10770.683     890.9403   -11661.623    4140.6051   -15802.228    91.014618    36.225768    554.03303      26.2641   -135.16989    50.961087    -64.17523      46.7237      46.7237      46.7237           90           90           90     102002.7    205.50763 
  545000       544500   -10759.175    884.34474    -11643.52     4159.424   -15802.944    90.340845    133.27303    583.13249    402.64539   -23.369446    61.577044    24.381414      46.7237      46.7237      46.7237           90           90           90     102002.7    373.01697 
  546000       545500   -10763.141    890.35041   -11653.491    4140.8745   -15794.365    90.954358    118.40986   -149.82596    257.99664   -70.334096    115.17496     107.8895      46.7237      46.7237      46.7237           90           90           90     102002.7    75.526844 
  547000       546500   -10737.953    895.82967   -11633.783    4175.8282   -15809.611    91.514095    437.36799    433.39329    71.472677   -227.16706    119.82109   -94.042212      46.7237      46.7237      46.7237           90           90           90     102002.7    314.07799 
  548000       547500   -10764.238    886.54394   -11650.782    4158.2422   -15809.025    90.565505    131.64674    135.66001    222.65903    77.783696    23.615015   -14.900767      46.7237      46.7237      46.7237           90           90           90     102002.7    163.32193 
  549000       548500   -10782.336    886.39554   -11668.732    4148.8464   -15817.578    90.550346   -77.640058   -191.20601    267.82691   -105.61384   -184.25241   -31.442563      46.7237      46.7237      46.7237           90           90           90     102002.7  -0.33971672 
  550000       549500   -10761.361    899.16638   -11660.527    4158.3163   -15818.843    91.854959    48.545179    584.38773    230.11271   -188.83418    261.00446    171.24636      46.7237      46.7237      46.7237           90           90           90     102002.7    287.68187 
  551000       550500   -10778.845    899.09501    -11677.94    4143.3698    -15821.31    91.847668     429.6983   -232.46718    503.10896     6.944376   -81.216055    38.410987      46.7237      46.7237      46.7237           90           90           90     102002.7    233.44669 
  552000       551500   -10757.185    892.78326   -11649.968    4149.7722    -15799.74    91.202887    233.97856    569.48953    166.62331   -141.13893   -143.93233   -19.253361      46.7237      46.7237      46.7237           90           90           90     102002.7     323.3638 
  553000       552500   -10757.782    895.43903   -11653.221    4154.4938   -15807.715    91.474189   -122.64115    102.09192    345.28353   -76.929551    142.47118    133.57205      46.7237      46.7237      46.7237           90           90           90     102002.7    108.24477 
  554000       553500    -10739.42    892.75957    -11632.18    4162.1591   -15794.339    91.200468    239.56282    39.332101   -44.876114    137.62165   -98.155896   -184.60876      46.7237      46.7237      46.7237           90           90           90     102002.7     78.00627 
  555000       554500   -10752.635    895.70317   -11648.338    4156.0007   -15804.339    91.501173   -65.439072    267.98021    202.08542   -200.67397   -88.184955   -45.584124      46.7237      46.7237      46.7237           90           90           90     102002.7    134.87552 
[...]
  936000       935500   -10768.542    882.41479   -11650.957    4152.5811   -15803.538     90.14369    75.487663   -59.137914    228.51595    108.05647   -269.43376   -27.626627      46.7237      46.7237      46.7237           90           90           90     102002.7    81.621901 
  937000       936500    -10776.26    884.23942     -11660.5    4146.2535   -15806.753    90.330086    330.08314    117.28592   -42.340476     22.57098   -158.23487     241.5824      46.7237      46.7237      46.7237           90           90           90     102002.7    135.00953 
  938000       937500    -10797.36    873.11802   -11670.478    4148.3019    -15818.78    89.193971    289.36216    579.57093    537.33163    8.3726032     -47.9282   -149.64967      46.7237      46.7237      46.7237           90           90           90     102002.7    468.75491 
  939000       938500   -10755.272    895.09824   -11650.371    4153.3002   -15803.671    91.439375    173.54038    144.49899   -6.0171014    10.156625    206.31442   -145.89781      46.7237      46.7237      46.7237           90           90           90     102002.7    104.00743 
  940000       939500   -10768.976    895.19886   -11664.175    4144.1685   -15808.343    91.449655   -187.75886     59.38887    307.77844    171.14126   -54.167143    -40.55125      46.7237      46.7237      46.7237           90           90           90     102002.7    59.802816 
  941000       940500   -10788.438    877.79539   -11666.234    4135.2627   -15801.496    89.671791    362.50267    518.25349      107.605   -48.311919   -43.798367    -81.84228      46.7237      46.7237      46.7237           90           90           90     102002.7    329.45372 
  942000       941500   -10758.991    880.36413   -11639.355    4176.8393   -15816.194    89.934203    206.86371   -19.020095   -85.529386      40.6748   -119.22982    74.584785      46.7237      46.7237      46.7237           90           90           90     102002.7    34.104745 
  943000       942500   -10763.193    894.31647    -11657.51    4143.0901     -15800.6    91.359514   -196.04793    370.04462    422.12724   -300.43422   -228.68247    26.809571      46.7237      46.7237      46.7237           90           90           90     102002.7    198.70798 
  944000       943500   -10763.007    893.31956   -11656.326    4160.4309   -15816.757    91.257673    585.12318   -248.52445    121.15618     2.516152     234.2568   -141.57958      46.7237      46.7237      46.7237           90           90           90     102002.7    152.58497 
  945000       944500   -10760.817    894.87811   -11655.695    4145.2869   -15800.982    91.416889      225.542    370.95743    154.89221   -77.558109   -65.474456    150.34805      46.7237      46.7237      46.7237           90           90           90     102002.7    250.46388 
  946000       945500   -10776.457    878.74052   -11655.197    4134.3522    -15789.55    89.768342    178.88272   -146.37646     233.5414   -187.75042    160.62564   -12.521815      46.7237      46.7237      46.7237           90           90           90     102002.7    88.682549 
  947000       946500   -10772.231    886.24962    -11658.48    4157.2332   -15815.714    90.535438    30.094249    243.50961   -196.90826    -117.2567    24.121828   -126.31307      46.7237      46.7237      46.7237           90           90           90     102002.7    25.565198 
  948000       947500   -10751.632    886.97207   -11638.605     4166.614   -15805.219    90.609242    215.73886    22.065597    284.47214    32.574533   -77.638498    89.323539      46.7237      46.7237      46.7237           90           90           90     102002.7     174.0922 
  949000       948500   -10752.702    891.37739   -11644.079    4150.1946   -15794.274     91.05927    509.78062    96.831615    516.24946    99.373789   -79.901917    87.080447      46.7237      46.7237      46.7237           90           90           90     102002.7    374.28723 
  950000       949500   -10775.607    879.14901   -11654.756    4151.2537   -15806.009    89.810071    351.92647    432.31526    243.05783    24.127418   -107.10694    8.0469296      46.7237      46.7237      46.7237           90           90           90     102002.7    342.43319 
  951000       950500   -10744.505    897.53147   -11642.037    4138.9597   -15780.997    91.687944    51.413318    -86.51877    492.87116     137.5949   -175.48939    113.62809      46.7237      46.7237      46.7237           90           90           90     102002.7    152.58857 
  952000       951500   -10760.647    879.75522   -11640.402    4143.9622   -15784.364    89.871999    581.96054    146.43236    181.13119    114.11358    95.261536   -170.16065      46.7237      46.7237      46.7237           90           90           90     102002.7     303.1747 
  953000       952500   -10764.802     894.8795   -11659.681    4140.5879   -15800.269    91.417031     397.7734    179.76328    422.53625   -211.25841   -29.980889    -104.0415      46.7237      46.7237      46.7237           90           90           90     102002.7    333.35764 
  954000       953500   -10762.458    885.84412   -11648.302    4147.0242   -15795.326    90.494015    576.60429    546.09108    417.36119   -163.45639   -4.8151178   -54.649811      46.7237      46.7237      46.7237           90           90           90     102002.7    513.35219 
  955000       954500   -10750.087     889.8598   -11639.947    4162.6671   -15802.614     90.90424   -4.7701864    104.61078    358.44889    54.700823    95.435377     29.59527      46.7237      46.7237      46.7237           90           90           90     102002.7    152.76316 
  956000       955500    -10757.74    880.67562   -11638.416    4175.8829   -15814.299    89.966023    340.27333    158.64022    207.97092     84.70453   -125.73651    51.703304      46.7237      46.7237      46.7237           90           90           90     102002.7    235.62816 
  957000       956500   -10755.607    900.34922   -11655.956    4136.5702   -15792.527    91.975793    217.70232   -83.615232    804.58042   -8.9946972    24.980008    146.04659      46.7237      46.7237      46.7237           90           90           90     102002.7    312.88917 
  958000       957500   -10752.592    885.68538   -11638.278    4170.7029   -15808.981    90.477799    145.45062    265.50396     550.4432    50.631281   -71.644311   -114.25917      46.7237      46.7237      46.7237           90           90           90     102002.7    320.46593 
  959000       958500   -10762.175    900.70048   -11662.876    4141.6232   -15804.499    92.011676    74.984079   -173.53676    24.504664    188.34263   -47.879443   -139.78502      46.7237      46.7237      46.7237           90           90           90     102002.7   -24.682671 
  960000       959500   -10778.203     880.7952   -11658.998    4138.0833   -15797.081    89.978239   -63.350334    331.01843    86.554019    68.857331    81.690684   -90.227667      46.7237      46.7237      46.7237           90           90           90     102002.7    118.07404 
  961000       960500   -10771.278    893.59188    -11664.87    4150.9035   -15815.774    91.285493    117.89496    32.198077   -287.35425    249.52339    85.475786   -114.90406      46.7237      46.7237      46.7237           90           90           90     102002.7   -45.753738 
  962000       961500   -10766.406    884.79818   -11651.204     4135.022   -15786.226    90.387166     254.1779    197.78788    367.87629   -23.475633   -2.5211802   -45.542439      46.7237      46.7237      46.7237           90           90           90     102002.7    273.28069 
  963000       962500   -10787.992    882.34901   -11670.341    4137.3719   -15807.713    90.136969    117.84872    213.47091     432.1985    236.18764   -18.386969    11.870599      46.7237      46.7237      46.7237           90           90           90     102002.7    254.50604 
  964000       963500   -10760.084     894.6097   -11654.694    4130.4272   -15785.121    91.389469   -167.01503    -209.4057    186.93068   -83.270267    77.336499   -26.969157      46.7237      46.7237      46.7237           90           90           90     102002.7   -63.163351 
  965000       964500   -10762.958    886.51984   -11649.478    4150.7212   -15800.199    90.563043    141.51573   -150.14038    506.38807   -138.38312   -142.99835   -19.423842      46.7237      46.7237      46.7237           90           90           90     102002.7    165.92114 
  966000       965500   -10769.843    878.63579   -11648.479    4148.1659   -15796.645    89.757643     739.6073    78.365269    351.41791    174.58582    43.407593    140.45302      46.7237      46.7237      46.7237           90           90           90     102002.7    389.79682 
  967000       966500   -10771.602    878.69695   -11650.299    4138.5337   -15788.832    89.763891    581.62463    91.476009    397.52809    34.774914    211.54011   -320.32718      46.7237      46.7237      46.7237           90           90           90     102002.7    356.87624 
  968000       967500    -10762.13    898.14262   -11660.273    4121.3076   -15781.581    91.750376     68.21275    493.96426    31.369296   -39.983411    51.174813   -122.23634      46.7237      46.7237      46.7237           90           90           90     102002.7    197.84877 
  969000       968500   -10737.076    907.32621   -11644.402    4146.6849   -15791.087    92.688533    96.003317    123.07898    566.75016   -205.83479    45.680985   -246.47127      46.7237      46.7237      46.7237           90           90           90     102002.7    261.94415 
  970000       969500   -10778.294    887.60373   -11665.898    4135.9346   -15801.832    90.673769    204.33241    323.68537    125.12002    36.274692   -29.813844   -137.07235      46.7237      46.7237      46.7237           90           90           90     102002.7     217.7126 
  971000       970500   -10748.795    914.68681   -11663.482      4151.46   -15814.942     93.44046    276.87224    269.27723    90.006156    296.98535   -138.97346   -29.008712      46.7237      46.7237      46.7237           90           90           90     102002.7    212.05188 
  972000       971500   -10779.265    892.05036   -11671.315    4143.2609   -15814.576    91.128017    642.83793    214.80971    148.09089    93.599117    282.65327   -91.205603      46.7237      46.7237      46.7237           90           90           90     102002.7    335.24618 
  973000       972500   -10756.709    885.63718   -11642.346     4159.808   -15802.155    90.472875    263.25935    457.38648    531.28678    35.456878   -108.79754    184.93862      46.7237      46.7237      46.7237           90           90           90     102002.7    417.31087 
  974000       973500   -10770.182    899.51177   -11669.694    4133.6521   -15803.346    91.890243    284.79601    147.90378    621.12904   -69.768509     79.66976   -43.419596      46.7237      46.7237      46.7237           90           90           90     102002.7    351.27628 
  975000       974500   -10798.441     877.5125   -11675.954    4137.8379   -15813.791    89.642893    367.42169    270.40518     354.1013    142.23439    1.7805178    157.16591      46.7237      46.7237      46.7237           90           90           90     102002.7    330.64272 
  976000       975500   -10741.113    897.75412   -11638.867    4146.7992   -15785.667    91.710689    538.84225    149.02241    289.23031   -142.52958    169.52055     107.6133      46.7237      46.7237      46.7237           90           90           90     102002.7    325.69832 
  977000       976500   -10790.375    884.46894   -11674.844    4135.4377   -15810.281    90.353532    99.092108    323.55763    459.84121   -73.586377   -64.129546    288.82234      46.7237      46.7237      46.7237           90           90           90     102002.7    294.16365 
  978000       977500   -10747.965    903.35876   -11651.324    4150.8836   -15802.207    92.283234     159.2494     227.9698    314.13325   -179.84469   -17.683151   -114.57768      46.7237      46.7237      46.7237           90           90           90     102002.7    233.78415 
  979000       978500   -10763.845    897.44271   -11661.288    4158.9291   -15820.217    91.678877    70.392656   -33.990757    210.70415   -78.143109  -0.24317554   -145.21927      46.7237      46.7237      46.7237           90           90           90     102002.7    82.368682 
  980000       979500   -10775.867    888.63069   -11664.498    4135.1062   -15799.604    90.778679    422.50092    -374.6113     192.8874    115.97525    99.717371   -25.335387      46.7237      46.7237      46.7237           90           90           90     102002.7    80.259005 
  981000       980500   -10756.609    901.29905   -11657.908     4147.305   -15805.213    92.072824    -11.66489   -29.638448    63.001916    101.98265    96.495911    -65.43742      46.7237      46.7237      46.7237           90           90           90     102002.7    7.2328594 
  982000       981500   -10801.233    873.26373   -11674.497    4123.2278   -15797.725    89.208857    237.91617    101.82659    693.76346    157.51879   -52.244226      226.367      46.7237      46.7237      46.7237           90           90           90     102002.7    344.50208 
  983000       982500   -10768.587    879.34734   -11647.934    4185.2573   -15833.191    89.830332    244.28264    202.56854   -59.178116   -3.6006729   -73.018485   -7.7986612      46.7237      46.7237      46.7237           90           90           90     102002.7    129.22435 
  984000       983500    -10779.66     888.6529   -11668.313    4140.3526   -15808.666    90.780947    256.52436    374.25807    393.27958   -40.330204     54.31305   -112.35471      46.7237      46.7237      46.7237           90           90           90     102002.7      341.354 
  985000       984500   -10754.227    897.92347   -11652.151     4146.176   -15798.327    91.727989    342.00726    459.73021    359.92321    130.27906   -29.518955    137.56911      46.7237      46.7237      46.7237           90           90           90     102002.7    387.22023 
  986000       985500   -10752.267    890.06377   -11642.331    4154.6138   -15796.944    90.925076    216.33885    291.70629    260.10365    95.036455   -125.32977   -19.926724      46.7237      46.7237      46.7237           90           90           90     102002.7     256.0496 
  987000       986500   -10770.581    900.42509   -11671.006    4137.8572   -15808.863    91.983544    157.18686    142.86907    206.68996   -159.54147   -35.938523    107.26122      46.7237      46.7237      46.7237           90           90           90     102002.7    168.91529 
  988000       987500   -10779.499    879.02878   -11658.527    4151.5255   -15810.053     89.79779     674.0208   -127.57991    587.42379   -114.13711    65.395605    223.56204      46.7237      46.7237      46.7237           90           90           90     102002.7    377.95489 
  989000       988500    -10778.45    892.69826   -11671.148    4162.8181   -15833.966    91.194204    186.70893    229.68169    266.45302   -86.164024    80.821119    67.965251      46.7237      46.7237      46.7237           90           90           90     102002.7    227.61454 
  990000       989500   -10758.505    908.29987   -11666.805    4157.7377   -15824.542    92.787997    2.9447974    26.938002    275.33022    103.19235    80.932548    26.443251      46.7237      46.7237      46.7237           90           90           90     102002.7    101.73767 
  991000       990500    -10782.29    886.85414   -11669.145    4163.3571   -15832.502    90.597194   -292.52731    412.35234    375.74836    48.474764   -95.263728   -56.125407      46.7237      46.7237      46.7237           90           90           90     102002.7    165.19113 
  992000       991500   -10806.966    869.27835   -11676.245     4153.464   -15829.709    88.801728    107.63945   -102.13998    164.08981     -16.8485   -46.343415    -9.609861      46.7237      46.7237      46.7237           90           90           90     102002.7     56.52976 
  993000       992500   -10779.929    875.99599   -11655.925    4147.9707   -15803.896    89.487973   -296.20149   -83.350161    269.43508   -63.723345   -195.20356   -136.92216      46.7237      46.7237      46.7237           90           90           90     102002.7   -36.705523 
  994000       993500   -10775.229    890.13947   -11665.368    4141.0358   -15806.404    90.932809    317.19848    284.71651   -132.44692    9.4272764    87.982688    262.92962      46.7237      46.7237      46.7237           90           90           90     102002.7    156.48936 
  995000       994500   -10769.027    877.94345   -11646.971    4157.5042   -15804.475    89.686916    317.57369     212.9761    192.10669     25.48752   -239.26657    199.70027      46.7237      46.7237      46.7237           90           90           90     102002.7    240.88549 
  996000       995500   -10750.119    902.59333   -11652.712    4154.3961   -15807.109    92.205042     5.694626    -439.5642   -48.310999   -80.412658    4.6201851   -248.38074      46.7237      46.7237      46.7237           90           90           90     102002.7   -160.72686 
  997000       996500    -10802.68    870.38765   -11673.067    4139.1284   -15812.196    88.915049   -2.3040249    480.58946    117.14612   -91.007953   -74.199044   -277.27373      46.7237      46.7237      46.7237           90           90           90     102002.7    198.47718 
  998000       997500   -10758.571    891.81511   -11650.386    4148.9301   -15799.316    91.103985       199.09   -140.13275    247.60953   -115.18888   -169.37534    4.0818354      46.7237      46.7237      46.7237           90           90           90     102002.7    102.18892 
  999000       998500   -10787.597    874.49658   -11662.094     4154.723   -15816.817    89.334799    355.40447     99.43698   -129.65912    157.19268    82.008878    27.774786      46.7237      46.7237      46.7237           90           90           90     102002.7    108.39411 
 1000000       999500   -10775.954    884.33204   -11660.286    4140.7444    -15801.03    90.339547    732.01301    590.81484   -29.851153    0.9998659    172.19917   -153.20603      46.7237      46.7237      46.7237           90           90           90     102002.7    430.99223 
 1000500      1000000    -10755.73    886.56246   -11642.292    4152.6135   -15794.906    90.567397     405.6876    648.87615    159.98554    244.20248    91.322419   -186.27938      46.7237      46.7237      46.7237           90           90           90     102002.7    404.84976 
Loop time of 2229.86 on 16 procs for 500000 steps with 3285 atoms

Performance: 19.373 ns/day, 1.239 hours/ns, 224.230 timesteps/s
99.8% CPU use with 16 MPI tasks x no OpenMP threads

MPI task timing breakdown:
Section |  min time  |  avg time  |  max time  |%varavg| %total
---------------------------------------------------------------
Pair    | 1241.6     | 1517.6     | 1801.1     | 407.5 | 68.06
Bond    | 148.74     | 184.03     | 221.89     | 155.9 |  8.25
Neigh   | 14.504     | 14.58      | 14.755     |   2.7 |  0.65
Comm    | 187.19     | 480.54     | 748.78     | 740.1 | 21.55
Output  | 0.13283    | 0.14131    | 0.14213    |   0.6 |  0.01
Modify  | 24.658     | 25.92      | 27.488     |  19.8 |  1.16
Other   |            | 7.083      |            |       |  0.32

Nlocal:    205.312 ave 239 max 170 min
Histogram: 1 0 3 2 2 3 1 2 0 2
Nghost:    4154.75 ave 4204 max 4122 min
Histogram: 2 3 3 0 2 1 3 1 0 1
Neighs:    11461 ave 15957 max 6661 min
Histogram: 2 0 2 2 0 1 5 3 0 1

Total # of neighbors = 183376
Ave neighs/atom = 55.8222
Ave special neighs/atom = 3.50685
Neighbor list builds = 4115
Dangerous builds = 0
Total wall time: 1:07:39
