LAMMPS (30 Mar 2018)
Reading data file ...
  orthogonal box = (0 0 0) to (46.7237 46.7237 46.7237)
  2 by 3 by 4 MPI processor grid
  reading atoms ...
  1754 atoms
  scanning bonds ...
  5 = max bonds/atom
  scanning angles ...
  10 = max angles/atom
  scanning dihedrals ...
  32 = max dihedrals/atom
  scanning impropers ...
  3 = max impropers/atom
  reading bonds ...
  2064 bonds
  reading angles ...
  3696 angles
  reading dihedrals ...
  6240 dihedrals
  reading impropers ...
  1008 impropers
Finding 1-2 1-3 1-4 neighbors ...
  special bond factors lj:   0          0          0         
  special bond factors coul: 0          0          0         
  5 = max # of 1-2 neighbors
  8 = max # of 1-3 neighbors
  20 = max # of 1-4 neighbors
  19 = max # of special neighbors
Finding 1-2 1-3 1-4 neighbors ...
  special bond factors lj:   0          0          1         
  special bond factors coul: 1          1          1         
  5 = max # of 1-2 neighbors
  8 = max # of 1-3 neighbors
  19 = max # of special neighbors
WARNING: Using 'neigh_modify every 1 delay 0 check yes' setting during minimization (../min.cpp:168)
Neighbor list info ...
  update every 1 steps, delay 0 steps, check yes
  max neighbors/atom: 2000, page size: 100000
  master list distance cutoff = 16
  ghost atom cutoff = 16
  binsize = 8, bins = 6 6 6
  3 neighbor lists, perpetual/occasional/extra = 3 0 0
  (1) pair buck6d/coul/gauss/dsf, perpetual, skip from (3)
      attributes: half, newton on
      pair build: skip
      stencil: none
      bin: none
  (2) pair lj/cut, perpetual, skip from (3)
      attributes: half, newton on
      pair build: skip
      stencil: none
      bin: none
  (3) neighbor class addition, perpetual
      attributes: half, newton on
      pair build: half/bin/newton
      stencil: half/bin/3d/newton
      bin: standard
Setting up cg style minimization ...
  Unit style    : real
  Current step  : 0
WARNING: Inconsistent image flags (../domain.cpp:786)
Per MPI rank memory allocation (min/avg/max) = 22.87 | 23.28 | 24.42 Mbytes
Step Temp E_pair E_mol TotEng Press 
       0            0    -11585.16    6482.8914    -5102.269    6260.8713 
     504            0   -11603.514    3727.3316   -7876.1827   -470.31157 
Loop time of 1.21897 on 24 procs for 504 steps with 1754 atoms

99.8% CPU use with 24 MPI tasks x no OpenMP threads

Minimization stats:
  Stopping criterion = max force evaluations
  Energy initial, next-to-last, final = 
        -5102.26898295     -7876.16421497     -7876.18273568
  Force two-norm initial, final = 2576.87 6.18285
  Force max component initial, final = 152.031 0.967808
  Final line search alpha, max atom move = 0.00809571 0.00783509
  Iterations, force evaluations = 504 1001

MPI task timing breakdown:
Section |  min time  |  avg time  |  max time  |%varavg| %total
---------------------------------------------------------------
Pair    | 0.41284    | 0.60606    | 0.80074    |  12.7 | 49.72
Bond    | 0.11427    | 0.15682    | 0.18858    |   4.3 | 12.87
Neigh   | 0.0067958  | 0.0068804  | 0.0069636  |   0.1 |  0.56
Comm    | 0.20621    | 0.42836    | 0.61997    |  15.7 | 35.14
Output  | 0          | 0          | 0          |   0.0 |  0.00
Modify  | 0          | 0          | 0          |   0.0 |  0.00
Other   |            | 0.02084    |            |       |  1.71

Nlocal:    73.0833 ave 100 max 52 min
Histogram: 1 2 2 6 3 4 4 1 0 1
Nghost:    1991.92 ave 2162 max 1887 min
Histogram: 11 5 0 0 0 0 0 0 0 8
Neighs:    7632.79 ave 11967 max 3432 min
Histogram: 2 1 1 5 3 4 3 3 1 1

Total # of neighbors = 183187
Ave neighs/atom = 104.44
Ave special neighs/atom = 6.56784
Neighbor list builds = 12
Dangerous builds = 0
Neighbor list info ...
  update every 1 steps, delay 10 steps, check yes
  max neighbors/atom: 2000, page size: 100000
  master list distance cutoff = 16
  ghost atom cutoff = 16
  binsize = 8, bins = 6 6 6
  3 neighbor lists, perpetual/occasional/extra = 3 0 0
  (1) pair buck6d/coul/gauss/dsf, perpetual, skip from (3)
      attributes: half, newton on
      pair build: skip
      stencil: none
      bin: none
  (2) pair lj/cut, perpetual, skip from (3)
      attributes: half, newton on
      pair build: skip
      stencil: none
      bin: none
  (3) neighbor class addition, perpetual
      attributes: half, newton on
      pair build: half/bin/newton
      stencil: half/bin/3d/newton
      bin: standard
Setting up Verlet run ...
  Unit style    : real
  Current step  : 504
  Time step     : 1
WARNING: Inconsistent image flags (../domain.cpp:786)
Per MPI rank memory allocation (min/avg/max) = 22.52 | 22.73 | 23.31 Mbytes
Step Temp PotEng TotEng Press Volume Lx Ly Lz 
     504          110   -7876.1827   -7301.3931   -212.72093     102002.7      46.7237      46.7237      46.7237 
    1000    100.94757   -7387.2644    -6859.777   -635.35055     102002.7      46.7237      46.7237      46.7237 
    2000    109.47365   -7262.1591   -6690.1198   -664.94191     102002.7      46.7237      46.7237      46.7237 
    3000    104.90214   -7287.9674    -6739.816   -836.52654     102002.7      46.7237      46.7237      46.7237 
    4000    109.95834   -7295.0723   -6720.5004    -527.3695     102002.7      46.7237      46.7237      46.7237 
    5000     113.1539   -7313.3755   -6722.1057   -829.27927     102002.7      46.7237      46.7237      46.7237 
    6000    111.41143    -7290.564   -6708.3991   -679.92171     102002.7      46.7237      46.7237      46.7237 
    7000    108.81269    -7303.987   -6735.4015   -479.10324     102002.7      46.7237      46.7237      46.7237 
    8000    107.85059   -7292.5104   -6728.9522    -868.0992     102002.7      46.7237      46.7237      46.7237 
    9000    114.90331    -7298.796   -6698.3848   -782.60699     102002.7      46.7237      46.7237      46.7237 
   10000    111.61308   -7302.1648   -6718.9463   -857.23155     102002.7      46.7237      46.7237      46.7237 
   11000    109.98475   -7303.4606   -6728.7507   -784.45127     102002.7      46.7237      46.7237      46.7237 
   12000    111.40365    -7279.719   -6697.5948   -966.29718     102002.7      46.7237      46.7237      46.7237 
   13000    108.26036   -7295.2963   -6729.5969   -854.56246     102002.7      46.7237      46.7237      46.7237 
   14000    111.47872   -7280.6864   -6698.1699   -735.31644     102002.7      46.7237      46.7237      46.7237 
   15000    115.97366   -7291.5781    -6685.574   -516.77616     102002.7      46.7237      46.7237      46.7237 
   16000    110.59211   -7306.4947   -6728.6111   -458.99347     102002.7      46.7237      46.7237      46.7237 
   17000    111.26456    -7293.601   -6712.2036   -809.87821     102002.7      46.7237      46.7237      46.7237 
   18000     111.3081   -7307.2018   -6725.5769   -602.72342     102002.7      46.7237      46.7237      46.7237 
   19000    111.28928   -7313.1395   -6731.6129   -590.31649     102002.7      46.7237      46.7237      46.7237 
   20000    108.99328   -7281.4022   -6711.8731   -633.32109     102002.7      46.7237      46.7237      46.7237 
   21000    106.92492   -7304.4619   -6745.7407    -386.8314     102002.7      46.7237      46.7237      46.7237 
   22000    110.27833   -7302.1268   -6725.8828   -714.36076     102002.7      46.7237      46.7237      46.7237 
   23000    109.93648   -7284.9264   -6710.4688   -656.04366     102002.7      46.7237      46.7237      46.7237 
   24000    110.99406   -7309.5683   -6729.5844   -787.30247     102002.7      46.7237      46.7237      46.7237 
   25000    111.49686   -7309.2993    -6726.688   -824.69685     102002.7      46.7237      46.7237      46.7237 
   26000    105.30349    -7294.159   -6743.9104   -482.34015     102002.7      46.7237      46.7237      46.7237 
   27000     112.9624   -7304.1032    -6713.834   -458.27788     102002.7      46.7237      46.7237      46.7237 
   28000    109.41392   -7267.3722    -6695.645   -602.67391     102002.7      46.7237      46.7237      46.7237 
   29000    107.70069   -7291.0876   -6728.3127   -549.29904     102002.7      46.7237      46.7237      46.7237 
   30000    111.32082   -7276.3978   -6694.7064   -637.58277     102002.7      46.7237      46.7237      46.7237 
   31000    109.07397   -7309.1046   -6739.1538   -410.86451     102002.7      46.7237      46.7237      46.7237 
   32000    110.88497   -7291.9949    -6712.581    -1013.158     102002.7      46.7237      46.7237      46.7237 
   33000    110.78736   -7262.7664   -6683.8626   -660.42232     102002.7      46.7237      46.7237      46.7237 
   34000    109.39694   -7299.2209   -6727.5825   -959.94972     102002.7      46.7237      46.7237      46.7237 
   35000    109.28356   -7312.6727   -6741.6268   -809.68375     102002.7      46.7237      46.7237      46.7237 
   36000    112.78305   -7307.1369   -6717.8049   -621.96869     102002.7      46.7237      46.7237      46.7237 
   37000    111.77651   -7284.2026   -6700.1301   -795.12005     102002.7      46.7237      46.7237      46.7237 
   38000    108.44925   -7293.4966   -6726.8102   -495.18104     102002.7      46.7237      46.7237      46.7237 
   39000    114.75475   -7302.8868   -6703.2519   -886.58334     102002.7      46.7237      46.7237      46.7237 
   40000    112.67738   -7308.4475   -6719.6676   -911.67441     102002.7      46.7237      46.7237      46.7237 
   41000     110.4535   -7282.3231   -6705.1638   -766.92623     102002.7      46.7237      46.7237      46.7237 
   42000    108.61441   -7272.5724    -6705.023   -793.17214     102002.7      46.7237      46.7237      46.7237 
   43000    108.42802    -7307.946   -6741.3705   -665.47342     102002.7      46.7237      46.7237      46.7237 
   44000     113.3546   -7294.9172   -6702.5986    -500.0587     102002.7      46.7237      46.7237      46.7237 
   45000    109.30906   -7298.0193   -6726.8401   -610.18011     102002.7      46.7237      46.7237      46.7237 
   46000    112.40828   -7276.9068    -6689.533   -840.67426     102002.7      46.7237      46.7237      46.7237 
   47000     106.9918   -7297.6545   -6738.5839   -376.41896     102002.7      46.7237      46.7237      46.7237 
   48000    111.46253   -7314.1708   -6731.7389   -721.74018     102002.7      46.7237      46.7237      46.7237 
   49000    111.71715   -7282.9639   -6699.2016    -819.6396     102002.7      46.7237      46.7237      46.7237 
   50000    109.55918    -7290.752   -6718.2659   -681.58297     102002.7      46.7237      46.7237      46.7237 
   51000    115.04812   -7277.4436   -6676.2758   -869.78002     102002.7      46.7237      46.7237      46.7237 
   52000    110.33089    -7295.762   -6719.2434    -825.8954     102002.7      46.7237      46.7237      46.7237 
   53000    109.29294   -7294.2024   -6723.1074   -647.10091     102002.7      46.7237      46.7237      46.7237 
   54000    110.45833    -7306.024   -6728.8395   -1219.3748     102002.7      46.7237      46.7237      46.7237 
   55000    111.92144   -7297.7686   -6712.9388   -743.77816     102002.7      46.7237      46.7237      46.7237 
   56000    107.04332   -7281.6504   -6722.3105   -768.16938     102002.7      46.7237      46.7237      46.7237 
   57000    111.79936   -7294.0734   -6709.8815   -443.94118     102002.7      46.7237      46.7237      46.7237 
   58000    111.44862   -7297.0998   -6714.7407   -316.57023     102002.7      46.7237      46.7237      46.7237 
   59000    108.60734   -7294.1955   -6726.6831   -1016.2759     102002.7      46.7237      46.7237      46.7237 
   60000    108.47458   -7290.6168    -6723.798   -519.51761     102002.7      46.7237      46.7237      46.7237 
   61000    109.34522   -7292.4779   -6721.1098   -458.58074     102002.7      46.7237      46.7237      46.7237 
   62000    110.36629   -7310.8131   -6734.1095   -814.69421     102002.7      46.7237      46.7237      46.7237 
   63000    110.36683   -7286.3436   -6709.6371   -452.11686     102002.7      46.7237      46.7237      46.7237 
   64000    110.16462   -7294.9088    -6719.259   -566.73629     102002.7      46.7237      46.7237      46.7237 
   65000    106.61231   -7284.2721   -6727.1844   -802.61888     102002.7      46.7237      46.7237      46.7237 
   66000    108.04649   -7267.9462   -6703.3643   -574.43229     102002.7      46.7237      46.7237      46.7237 
   67000    107.37414   -7279.6886   -6718.6201   -578.20511     102002.7      46.7237      46.7237      46.7237 
   68000    111.84518   -7284.9159   -6700.4845   -847.13352     102002.7      46.7237      46.7237      46.7237 
   69000    112.07624    -7306.442   -6720.8033   -292.64125     102002.7      46.7237      46.7237      46.7237 
   70000    110.36956   -7272.1825   -6695.4618   -924.12104     102002.7      46.7237      46.7237      46.7237 
   71000    108.67697   -7293.2836   -6725.4073   -624.73671     102002.7      46.7237      46.7237      46.7237 
   72000    114.11742   -7290.3897   -6694.0851   -568.40322     102002.7      46.7237      46.7237      46.7237 
   73000    112.27672    -7292.514   -6705.8277   -984.85585     102002.7      46.7237      46.7237      46.7237 
   74000    106.11875   -7313.3445   -6758.8359   -760.02566     102002.7      46.7237      46.7237      46.7237 
   75000    107.71678    -7274.201    -6711.342   -914.43368     102002.7      46.7237      46.7237      46.7237 
   76000    107.34399   -7299.3925   -6738.4815   -861.00871     102002.7      46.7237      46.7237      46.7237 
   77000    109.63738   -7289.3234   -6716.4286   -696.52728     102002.7      46.7237      46.7237      46.7237 
   78000    110.99779   -7281.1477   -6701.1443   -603.87052     102002.7      46.7237      46.7237      46.7237 
   79000    111.85288   -7305.3936    -6720.922   -608.28021     102002.7      46.7237      46.7237      46.7237 
   80000    109.06012   -7266.7884     -6696.91   -801.38455     102002.7      46.7237      46.7237      46.7237 
   81000    113.14826   -7305.7253   -6714.4849   -728.13265     102002.7      46.7237      46.7237      46.7237 
   82000    106.94399   -7285.2869   -6726.4661   -751.85813     102002.7      46.7237      46.7237      46.7237 
   83000    111.89898    -7269.924   -6685.2115    -640.2832     102002.7      46.7237      46.7237      46.7237 
   84000     108.6313   -7276.3016    -6708.664   -665.82868     102002.7      46.7237      46.7237      46.7237 
   85000    109.57294   -7297.4131    -6724.855   -533.67105     102002.7      46.7237      46.7237      46.7237 
   86000    112.51418   -7295.1313   -6707.2042   -683.26924     102002.7      46.7237      46.7237      46.7237 
   87000    113.98167   -7293.4067   -6697.8114    -784.0082     102002.7      46.7237      46.7237      46.7237 
   88000    107.05922   -7285.7554   -6726.3324   -683.55794     102002.7      46.7237      46.7237      46.7237 
   89000    107.97097   -7290.0511   -6725.8639    -595.1525     102002.7      46.7237      46.7237      46.7237 
   90000    110.07815    -7276.578     -6701.38    -596.9244     102002.7      46.7237      46.7237      46.7237 
   91000    110.60319   -7312.0206   -6734.0791   -688.08185     102002.7      46.7237      46.7237      46.7237 
   92000    106.54777   -7290.9436   -6734.1932   -702.79037     102002.7      46.7237      46.7237      46.7237 
   93000    110.76942   -7287.0586   -6708.2484   -336.49385     102002.7      46.7237      46.7237      46.7237 
   94000    106.73778   -7294.6234     -6736.88   -715.29259     102002.7      46.7237      46.7237      46.7237 
   95000    110.83165   -7285.7784   -6706.6431   -641.10163     102002.7      46.7237      46.7237      46.7237 
   96000    111.90846    -7279.951    -6695.189   -510.50002     102002.7      46.7237      46.7237      46.7237 
   97000    110.27714   -7303.8172   -6727.5795   -754.26376     102002.7      46.7237      46.7237      46.7237 
   98000    110.60637   -7278.8946   -6700.9365   -701.59348     102002.7      46.7237      46.7237      46.7237 
   99000    111.53514   -7285.6914   -6702.8801   -671.85218     102002.7      46.7237      46.7237      46.7237 
  100000    114.20966   -7301.5389   -6704.7523   -803.69171     102002.7      46.7237      46.7237      46.7237 
  101000    110.54864    -7307.798   -6730.1415   -544.59275     102002.7      46.7237      46.7237      46.7237 
  102000    110.89006    -7291.086   -6711.6456   -556.07879     102002.7      46.7237      46.7237      46.7237 
  103000     107.4092   -7300.1816   -6738.9299   -464.70375     102002.7      46.7237      46.7237      46.7237 
  104000    110.67074   -7300.4629   -6722.1685   -685.55154     102002.7      46.7237      46.7237      46.7237 
  105000    109.17933    -7292.134   -6721.6327    -918.2859     102002.7      46.7237      46.7237      46.7237 
  106000    108.43276   -7301.7923   -6735.1921   -552.18611     102002.7      46.7237      46.7237      46.7237 
  107000     108.3548   -7294.8803   -6728.6874   -751.26732     102002.7      46.7237      46.7237      46.7237 
  108000    110.52614   -7287.2271   -6709.6882   -873.71909     102002.7      46.7237      46.7237      46.7237 
  109000    108.51602   -7301.6379   -6734.6027    -773.9499     102002.7      46.7237      46.7237      46.7237 
  110000    109.43485   -7293.0566   -6721.2201   -770.53485     102002.7      46.7237      46.7237      46.7237 
  111000    106.15818   -7297.4955   -6742.7809   -592.61799     102002.7      46.7237      46.7237      46.7237 
  112000     111.6347   -7297.4492   -6714.1177   -471.59588     102002.7      46.7237      46.7237      46.7237 
  113000    107.27569   -7292.4829   -6731.9288   -530.25841     102002.7      46.7237      46.7237      46.7237 
  114000    111.32282   -7256.2442   -6674.5424   -826.68249     102002.7      46.7237      46.7237      46.7237 
  115000    111.61612    -7303.748   -6720.5136   -517.78077     102002.7      46.7237      46.7237      46.7237 
  116000    109.92069   -7257.2894   -6682.9142    -869.4789     102002.7      46.7237      46.7237      46.7237 
  117000    110.19611   -7297.7094    -6721.895   -427.01303     102002.7      46.7237      46.7237      46.7237 
  118000    110.09849   -7275.5295   -6700.2253   -736.50359     102002.7      46.7237      46.7237      46.7237 
  119000    108.34934   -7301.8311   -6735.6668   -623.45494     102002.7      46.7237      46.7237      46.7237 
  120000    113.63872   -7298.0085   -6704.2053   -709.52265     102002.7      46.7237      46.7237      46.7237 
  121000    109.22362   -7310.3373   -6739.6046   -867.74246     102002.7      46.7237      46.7237      46.7237 
  122000     110.7652   -7294.0218   -6715.2337   -722.22236     102002.7      46.7237      46.7237      46.7237 
  123000    108.88024   -7299.1065    -6730.168    -923.8227     102002.7      46.7237      46.7237      46.7237 
  124000    110.35903   -7302.9768   -6726.3111   -773.29304     102002.7      46.7237      46.7237      46.7237 
  125000    110.13749   -7273.5546   -6698.0466   -714.37903     102002.7      46.7237      46.7237      46.7237 
  126000    109.89098   -7277.9539    -6703.734   -980.18204     102002.7      46.7237      46.7237      46.7237 
  127000    105.79077   -7281.0505   -6728.2556    -903.1559     102002.7      46.7237      46.7237      46.7237 
  128000    110.89842   -7281.7546   -6702.2705   -848.97911     102002.7      46.7237      46.7237      46.7237 
  129000    108.98606   -7284.6827   -6715.1913   -848.53581     102002.7      46.7237      46.7237      46.7237 
  130000    111.58151   -7292.1907   -6709.1372    -713.0511     102002.7      46.7237      46.7237      46.7237 
  131000    109.12311   -7285.6724   -6715.4649   -375.12678     102002.7      46.7237      46.7237      46.7237 
  132000    106.41196   -7288.5705   -6732.5297   -837.82991     102002.7      46.7237      46.7237      46.7237 
  133000    112.32327   -7302.1053   -6715.1758   -788.56848     102002.7      46.7237      46.7237      46.7237 
  134000    115.02067    -7301.398   -6700.3736   -778.80021     102002.7      46.7237      46.7237      46.7237 
  135000    107.98476   -7286.9456   -6722.6863   -1010.4805     102002.7      46.7237      46.7237      46.7237 
  136000    109.79727   -7295.1293   -6721.3991   -869.78727     102002.7      46.7237      46.7237      46.7237 
  137000    114.55703   -7285.4144   -6686.8126   -556.60653     102002.7      46.7237      46.7237      46.7237 
  138000    111.96547   -7290.5878   -6705.5279   -961.84298     102002.7      46.7237      46.7237      46.7237 
  139000    109.47126   -7310.6004   -6738.5737   -437.47349     102002.7      46.7237      46.7237      46.7237 
  140000    107.24994   -7289.8989   -6729.4794   -769.19043     102002.7      46.7237      46.7237      46.7237 
  141000     112.2259   -7290.0415   -6703.6208    -957.5385     102002.7      46.7237      46.7237      46.7237 
  142000    112.10291   -7309.7645   -6723.9864     -914.424     102002.7      46.7237      46.7237      46.7237 
  143000    109.49198   -7292.6714   -6720.5363   -785.27734     102002.7      46.7237      46.7237      46.7237 
  144000    110.00077   -7267.3928   -6692.5991   -802.09745     102002.7      46.7237      46.7237      46.7237 
  145000    109.45321   -7289.9045   -6717.9721   -997.20432     102002.7      46.7237      46.7237      46.7237 
  146000    114.56858   -7290.6133   -6691.9513   -921.74903     102002.7      46.7237      46.7237      46.7237 
  147000    109.44343   -7302.0687   -6730.1874   -886.45158     102002.7      46.7237      46.7237      46.7237 
  148000    111.84313   -7291.1961   -6706.7755   -580.28987     102002.7      46.7237      46.7237      46.7237 
  149000    109.65947   -7282.6399   -6709.6297   -945.03853     102002.7      46.7237      46.7237      46.7237 
  150000    110.84031   -7303.7016   -6724.5211   -942.98007     102002.7      46.7237      46.7237      46.7237 
  151000    111.04066   -7310.1246   -6729.8972   -765.47676     102002.7      46.7237      46.7237      46.7237 
  152000    111.09473   -7283.8651   -6703.3551   -748.61099     102002.7      46.7237      46.7237      46.7237 
  153000    111.07937   -7307.5033   -6727.0736   -437.47339     102002.7      46.7237      46.7237      46.7237 
  154000    111.49747   -7281.2249   -6698.6105   -721.60087     102002.7      46.7237      46.7237      46.7237 
  155000    106.63471    -7277.096   -6719.8913   -436.15778     102002.7      46.7237      46.7237      46.7237 
  156000    106.48946   -7270.4511   -6714.0053   -665.15455     102002.7      46.7237      46.7237      46.7237 
  157000    107.37105   -7298.3301   -6737.2777    -706.3839     102002.7      46.7237      46.7237      46.7237 
  158000    113.92494   -7285.6394   -6690.3406   -730.17146     102002.7      46.7237      46.7237      46.7237 
  159000     108.3871   -7283.8817   -6717.5201   -608.21173     102002.7      46.7237      46.7237      46.7237 
  160000    109.72417   -7300.6491   -6727.3007   -700.16501     102002.7      46.7237      46.7237      46.7237 
  161000    109.88147   -7288.1417   -6713.9715   -797.01274     102002.7      46.7237      46.7237      46.7237 
  162000    110.07126   -7302.9858   -6727.8238   -486.22653     102002.7      46.7237      46.7237      46.7237 
  163000     113.7555   -7291.7073   -6697.2939   -824.34028     102002.7      46.7237      46.7237      46.7237 
  164000    110.55644   -7294.8563   -6717.1591    -678.3817     102002.7      46.7237      46.7237      46.7237 
  165000    109.52406   -7306.7437   -6734.4411   -700.31884     102002.7      46.7237      46.7237      46.7237 
  166000    107.15449   -7297.8607   -6737.9399   -826.60277     102002.7      46.7237      46.7237      46.7237 
  167000    108.40216   -7273.0862   -6706.6458   -588.45454     102002.7      46.7237      46.7237      46.7237 
  168000    108.71869   -7301.3307   -6733.2364   -1196.4827     102002.7      46.7237      46.7237      46.7237 
  169000    112.62595   -7294.1409   -6705.6298   -538.19411     102002.7      46.7237      46.7237      46.7237 
  170000     108.0168   -7285.0361   -6720.6095   -780.66089     102002.7      46.7237      46.7237      46.7237 
  171000    109.69137   -7303.3946   -6730.2177   -755.20428     102002.7      46.7237      46.7237      46.7237 
  172000    111.29069   -7286.3809    -6704.847   -810.93778     102002.7      46.7237      46.7237      46.7237 
  173000    110.61403   -7286.5135   -6708.5153   -694.43083     102002.7      46.7237      46.7237      46.7237 
  174000    111.05653   -7307.5236   -6727.2133    -636.2804     102002.7      46.7237      46.7237      46.7237 
  175000    112.63473   -7298.8489   -6710.2919   -811.90421     102002.7      46.7237      46.7237      46.7237 
  176000    107.84102   -7308.0812    -6744.573   -750.55865     102002.7      46.7237      46.7237      46.7237 
  177000    108.79617   -7268.4692     -6699.97   -704.83017     102002.7      46.7237      46.7237      46.7237 
  178000    108.90983   -7307.5265   -6738.4334   -826.99473     102002.7      46.7237      46.7237      46.7237 
  179000    109.32706   -7278.9362   -6707.6629   -789.24093     102002.7      46.7237      46.7237      46.7237 
  180000    108.17187   -7282.8287   -6717.5917   -669.61851     102002.7      46.7237      46.7237      46.7237 
  181000    106.50932    -7290.348   -6733.7985   -684.92422     102002.7      46.7237      46.7237      46.7237 
  182000    109.39983   -7271.8507   -6700.1972   -546.30069     102002.7      46.7237      46.7237      46.7237 
  183000    108.54671   -7295.8105   -6728.6148    -602.5004     102002.7      46.7237      46.7237      46.7237 
  184000    112.50487   -7287.2645   -6699.3861   -695.64155     102002.7      46.7237      46.7237      46.7237 
  185000    110.50894   -7305.7557   -6728.3067   -656.05402     102002.7      46.7237      46.7237      46.7237 
  186000    110.97488   -7292.9189   -6713.0352   -605.90652     102002.7      46.7237      46.7237      46.7237 
  187000    107.71636   -7285.2173   -6722.3606   -777.67885     102002.7      46.7237      46.7237      46.7237 
  188000    109.74885   -7277.9937   -6704.5165   -634.40588     102002.7      46.7237      46.7237      46.7237 
  189000    110.39315   -7284.8632   -6708.0193   -630.77799     102002.7      46.7237      46.7237      46.7237 
  190000    107.39013   -7304.3857   -6743.2336   -741.40196     102002.7      46.7237      46.7237      46.7237 
  191000    112.69816   -7291.4347   -6702.5462   -612.65698     102002.7      46.7237      46.7237      46.7237 
  192000     109.1201   -7276.3186   -6706.1268   -569.05466     102002.7      46.7237      46.7237      46.7237 
  193000    110.45264   -7296.3843   -6719.2295   -431.74308     102002.7      46.7237      46.7237      46.7237 
  194000    111.03107   -7258.3711   -6678.1938   -707.59691     102002.7      46.7237      46.7237      46.7237 
  195000    109.07812   -7291.3574   -6721.3849    -504.0474     102002.7      46.7237      46.7237      46.7237 
  196000    107.39892   -7305.3626   -6744.1646   -656.53691     102002.7      46.7237      46.7237      46.7237 
  197000      108.685   -7281.4145   -6713.4962   -621.97024     102002.7      46.7237      46.7237      46.7237 
  198000    108.89519   -7279.5918   -6710.5752   -607.50075     102002.7      46.7237      46.7237      46.7237 
  199000    109.53112   -7291.6578   -6719.3183   -787.59372     102002.7      46.7237      46.7237      46.7237 
  200000    110.65988   -7292.9039   -6714.6662   -900.39257     102002.7      46.7237      46.7237      46.7237 
  201000    111.15597   -7292.0482   -6711.2182   -658.45679     102002.7      46.7237      46.7237      46.7237 
  202000    106.78087   -7298.4946   -6740.5262   -1057.3915     102002.7      46.7237      46.7237      46.7237 
  203000    107.71926   -7266.6873   -6703.8154   -825.33005     102002.7      46.7237      46.7237      46.7237 
  204000    109.62915   -7279.1279   -6706.2761   -846.39494     102002.7      46.7237      46.7237      46.7237 
  205000    110.96981   -7296.6089   -6716.7517    -913.6654     102002.7      46.7237      46.7237      46.7237 
  206000     110.8732   -7273.2789   -6693.9266   -535.57413     102002.7      46.7237      46.7237      46.7237 
  207000    106.70916   -7284.6796   -6727.0858   -750.71265     102002.7      46.7237      46.7237      46.7237 
  208000    110.45892   -7272.3629   -6695.1753   -712.58929     102002.7      46.7237      46.7237      46.7237 
  209000    108.20926   -7289.8488   -6724.4164   -646.97018     102002.7      46.7237      46.7237      46.7237 
  210000    111.56026   -7293.5477   -6710.6052   -502.35968     102002.7      46.7237      46.7237      46.7237 
  211000    111.73988   -7294.3545   -6710.4734   -757.35426     102002.7      46.7237      46.7237      46.7237 
  212000    109.67962   -7294.1184   -6721.0029   -775.21842     102002.7      46.7237      46.7237      46.7237 
  213000    109.02704   -7270.4074   -6700.7019   -620.30495     102002.7      46.7237      46.7237      46.7237 
  214000    109.33603   -7302.5885   -6731.2684   -797.86285     102002.7      46.7237      46.7237      46.7237 
  215000    112.23281   -7279.1315   -6692.6746     -651.556     102002.7      46.7237      46.7237      46.7237 
  216000    110.39182   -7301.3359   -6724.4989   -467.22272     102002.7      46.7237      46.7237      46.7237 
  217000    108.50679   -7285.1064   -6718.1194   -688.85713     102002.7      46.7237      46.7237      46.7237 
  218000    113.72617   -7299.5603   -6705.3001   -745.12857     102002.7      46.7237      46.7237      46.7237 
  219000    112.90951   -7301.2699    -6711.277   -888.26663     102002.7      46.7237      46.7237      46.7237 
  220000    111.94907    -7313.706   -6728.7318   -628.42486     102002.7      46.7237      46.7237      46.7237 
  221000       110.67    -7299.569   -6721.2785   -561.71969     102002.7      46.7237      46.7237      46.7237 
  222000      109.119   -7315.0292   -6744.8432   -932.81611     102002.7      46.7237      46.7237      46.7237 
  223000     112.9776    -7297.985   -6707.6364   -696.48387     102002.7      46.7237      46.7237      46.7237 
  224000    111.28446   -7296.0192   -6714.5179    -323.7998     102002.7      46.7237      46.7237      46.7237 
  225000    114.18616   -7299.9436   -6703.2798   -770.03251     102002.7      46.7237      46.7237      46.7237 
  226000    107.06205   -7290.0309   -6730.5931   -474.63091     102002.7      46.7237      46.7237      46.7237 
  227000    109.51763   -7306.0545   -6733.7855   -635.58329     102002.7      46.7237      46.7237      46.7237 
  228000    110.02526   -7286.8377   -6711.9161    -415.7972     102002.7      46.7237      46.7237      46.7237 
  229000    107.33493   -7299.4702   -6738.6066   -292.52756     102002.7      46.7237      46.7237      46.7237 
  230000    105.83753   -7290.8647   -6737.8255    -654.3644     102002.7      46.7237      46.7237      46.7237 
  231000    110.23437   -7273.9266   -6697.9123   -414.46377     102002.7      46.7237      46.7237      46.7237 
  232000    108.94183   -7318.5989   -6749.3387    -545.4805     102002.7      46.7237      46.7237      46.7237 
  233000    110.90641   -7287.9849    -6708.459   -659.88314     102002.7      46.7237      46.7237      46.7237 
  234000    114.02198   -7296.4682   -6700.6623   -450.47209     102002.7      46.7237      46.7237      46.7237 
  235000    109.11171   -7300.9035   -6730.7555   -490.18457     102002.7      46.7237      46.7237      46.7237 
  236000    112.09914   -7300.3368   -6714.5784   -518.27584     102002.7      46.7237      46.7237      46.7237 
  237000    110.12793   -7285.7497   -6710.2916   -542.05772     102002.7      46.7237      46.7237      46.7237 
  238000    107.57403   -7304.7002   -6742.5871   -640.73853     102002.7      46.7237      46.7237      46.7237 
  239000    110.61178   -7299.2217   -6721.2353   -830.05513     102002.7      46.7237      46.7237      46.7237 
  240000    109.37242   -7274.2315   -6702.7212   -704.11606     102002.7      46.7237      46.7237      46.7237 
  241000    110.05976    -7300.891   -6725.7892   -717.25962     102002.7      46.7237      46.7237      46.7237 
  242000    109.32891   -7323.2338   -6751.9509   -535.82979     102002.7      46.7237      46.7237      46.7237 
  243000     112.2525   -7291.3751   -6704.8154   -588.77313     102002.7      46.7237      46.7237      46.7237 
  244000    109.56224   -7304.8179   -6732.3158   -592.28879     102002.7      46.7237      46.7237      46.7237 
  245000    109.55258   -7298.2636   -6725.8119   -787.24898     102002.7      46.7237      46.7237      46.7237 
  246000    113.85749   -7285.8006   -6690.8543   -857.36124     102002.7      46.7237      46.7237      46.7237 
  247000    109.71456   -7295.3107   -6722.0127   -642.13248     102002.7      46.7237      46.7237      46.7237 
  248000    110.56804   -7284.7535   -6706.9957   -732.12412     102002.7      46.7237      46.7237      46.7237 
  249000    107.11274   -7303.1077   -6743.4051   -619.62927     102002.7      46.7237      46.7237      46.7237 
  250000    109.35095   -7301.9262   -6730.5282   -665.33122     102002.7      46.7237      46.7237      46.7237 
  251000    109.46278   -7295.3575    -6723.375   -590.51158     102002.7      46.7237      46.7237      46.7237 
  252000    109.56983   -7281.4034   -6708.8615   -461.92166     102002.7      46.7237      46.7237      46.7237 
  253000    105.74284    -7298.353   -6745.8086   -399.78039     102002.7      46.7237      46.7237      46.7237 
  254000    108.80041   -7292.7473    -6724.226   -425.36878     102002.7      46.7237      46.7237      46.7237 
  255000    112.72288   -7300.8922   -6711.8746   -338.12068     102002.7      46.7237      46.7237      46.7237 
  256000    107.58242   -7310.3849    -6748.228    -437.1724     102002.7      46.7237      46.7237      46.7237 
  257000     111.3245   -7273.5386    -6691.828   -700.86441     102002.7      46.7237      46.7237      46.7237 
  258000    108.94632   -7299.3664   -6730.0827   -460.32792     102002.7      46.7237      46.7237      46.7237 
  259000      112.821   -7306.4822   -6716.9519   -480.36351     102002.7      46.7237      46.7237      46.7237 
  260000    109.26802   -7289.9252   -6718.9605   -901.49606     102002.7      46.7237      46.7237      46.7237 
  261000    111.06706    -7321.885   -6741.5196   -741.73437     102002.7      46.7237      46.7237      46.7237 
  262000    109.24315   -7282.6442   -6711.8094    -743.2032     102002.7      46.7237      46.7237      46.7237 
  263000     110.1189     -7279.31   -6703.8991   -517.15501     102002.7      46.7237      46.7237      46.7237 
  264000    110.64495   -7286.4902   -6708.3305   -592.51479     102002.7      46.7237      46.7237      46.7237 
  265000    108.61449   -7288.8586   -6721.3088   -762.32127     102002.7      46.7237      46.7237      46.7237 
  266000    109.72451   -7279.9224   -6706.5723   -680.38881     102002.7      46.7237      46.7237      46.7237 
  267000    110.84759   -7300.4466    -6721.228   -819.20146     102002.7      46.7237      46.7237      46.7237 
  268000    112.58166   -7269.2585   -6680.9788   -758.80482     102002.7      46.7237      46.7237      46.7237 
  269000    108.92788   -7292.4888   -6723.3014   -764.03391     102002.7      46.7237      46.7237      46.7237 
  270000    106.07548    -7297.177   -6742.8945   -986.23681     102002.7      46.7237      46.7237      46.7237 
  271000    113.97018   -7304.5653     -6709.03   -509.65614     102002.7      46.7237      46.7237      46.7237 
  272000    108.59976   -7286.9942   -6719.5213    -594.3062     102002.7      46.7237      46.7237      46.7237 
  273000    109.91358   -7305.1473   -6730.8092   -491.16749     102002.7      46.7237      46.7237      46.7237 
  274000    111.46789   -7276.8312   -6694.3714   -778.00683     102002.7      46.7237      46.7237      46.7237 
  275000    113.44026   -7292.2371   -6699.4709    -598.6424     102002.7      46.7237      46.7237      46.7237 
  276000    110.13011   -7293.9569   -6718.4875   -787.38454     102002.7      46.7237      46.7237      46.7237 
  277000    108.37227   -7298.1336   -6731.8494   -798.69068     102002.7      46.7237      46.7237      46.7237 
  278000    115.18215   -7295.2974   -6693.4292   -380.54796     102002.7      46.7237      46.7237      46.7237 
  279000    108.48175    -7276.412   -6709.5558   -696.25127     102002.7      46.7237      46.7237      46.7237 
  280000     110.7864   -7306.8151   -6727.9163   -386.90531     102002.7      46.7237      46.7237      46.7237 
  281000    109.44342   -7292.3599   -6720.4786   -765.98008     102002.7      46.7237      46.7237      46.7237 
  282000    109.91805   -7285.0002   -6710.6389   -573.28429     102002.7      46.7237      46.7237      46.7237 
  283000    110.79258    -7292.136   -6713.2049   -839.67877     102002.7      46.7237      46.7237      46.7237 
  284000     109.6884   -7308.2519   -6735.0905   -833.74114     102002.7      46.7237      46.7237      46.7237 
  285000    106.80616   -7295.2102   -6737.1095   -620.66251     102002.7      46.7237      46.7237      46.7237 
  286000     109.6308   -7278.5804     -6705.72   -799.94354     102002.7      46.7237      46.7237      46.7237 
  287000    107.98838   -7304.5027   -6740.2246   -613.75818     102002.7      46.7237      46.7237      46.7237 
  288000     110.7522   -7293.2053   -6714.4852   -574.93271     102002.7      46.7237      46.7237      46.7237 
  289000    105.79271   -7290.3877   -6737.5827   -789.80493     102002.7      46.7237      46.7237      46.7237 
  290000    111.77953   -7299.5794   -6715.4911   -760.46005     102002.7      46.7237      46.7237      46.7237 
  291000    111.95403   -7275.2392    -6690.239   -820.65603     102002.7      46.7237      46.7237      46.7237 
  292000    112.55181   -7286.9526   -6698.8289   -352.71191     102002.7      46.7237      46.7237      46.7237 
  293000    108.49455   -7284.0965   -6717.1734   -722.08454     102002.7      46.7237      46.7237      46.7237 
  294000    109.70217   -7288.9826   -6715.7492   -517.97776     102002.7      46.7237      46.7237      46.7237 
  295000    110.05993   -7295.5292   -6720.4264   -479.67176     102002.7      46.7237      46.7237      46.7237 
  296000     105.4794   -7281.8328    -6730.665    -492.7446     102002.7      46.7237      46.7237      46.7237 
  297000     109.3828   -7265.3651   -6693.8005   -502.02514     102002.7      46.7237      46.7237      46.7237 
  298000    110.98732   -7292.7679   -6712.8192    -624.2376     102002.7      46.7237      46.7237      46.7237 
  299000    106.36203     -7279.01   -6723.2301   -402.09245     102002.7      46.7237      46.7237      46.7237 
  300000    108.60211   -7285.7749   -6718.2898   -653.60116     102002.7      46.7237      46.7237      46.7237 
  301000    110.20799   -7287.6726   -6711.7962    -737.4458     102002.7      46.7237      46.7237      46.7237 
  302000    111.95558   -7279.2662    -6694.258   -576.83719     102002.7      46.7237      46.7237      46.7237 
  303000    110.52055   -7301.3944   -6723.8847   -574.93494     102002.7      46.7237      46.7237      46.7237 
  304000    110.78881   -7269.5915     -6690.68   -814.17933     102002.7      46.7237      46.7237      46.7237 
  305000    108.60987   -7290.1744   -6722.6488   -649.48212     102002.7      46.7237      46.7237      46.7237 
  306000    111.57044   -7276.7753   -6693.7796   -641.56768     102002.7      46.7237      46.7237      46.7237 
  307000    110.69972   -7299.1649    -6720.719   -888.47524     102002.7      46.7237      46.7237      46.7237 
  308000    108.85652   -7315.2202   -6746.4057   -397.06651     102002.7      46.7237      46.7237      46.7237 
  309000    109.50369    -7286.945   -6714.7488   -747.25669     102002.7      46.7237      46.7237      46.7237 
  310000    110.59193   -7273.7323   -6695.8497   -779.14717     102002.7      46.7237      46.7237      46.7237 
  311000    109.29862   -7292.8224   -6721.6977   -667.65634     102002.7      46.7237      46.7237      46.7237 
  312000    113.19724   -7278.5849   -6687.0886   -1056.7021     102002.7      46.7237      46.7237      46.7237 
  313000    108.21365   -7300.4453     -6734.99   -859.22949     102002.7      46.7237      46.7237      46.7237 
  314000    109.40545   -7299.5667   -6727.8839    -667.1452     102002.7      46.7237      46.7237      46.7237 
  315000    111.82559   -7279.4105   -6695.0815   -845.71149     102002.7      46.7237      46.7237      46.7237 
  316000    109.55696   -7307.3974   -6734.9228   -792.57081     102002.7      46.7237      46.7237      46.7237 
  317000    111.25633   -7279.1469   -6697.7925   -740.10609     102002.7      46.7237      46.7237      46.7237 
  318000    107.40548   -7298.7213   -6737.4889   -928.03956     102002.7      46.7237      46.7237      46.7237 
  319000    107.12131   -7286.3055    -6726.558   -764.87934     102002.7      46.7237      46.7237      46.7237 
  320000    112.21817   -7274.9294   -6688.5491   -926.19036     102002.7      46.7237      46.7237      46.7237 
  321000    107.60866   -7273.7175   -6711.4235   -1046.7189     102002.7      46.7237      46.7237      46.7237 
  322000     109.0317   -7280.8118   -6711.0819   -708.98898     102002.7      46.7237      46.7237      46.7237 
  323000    111.28054   -7303.0689    -6721.588   -823.31797     102002.7      46.7237      46.7237      46.7237 
  324000      107.638   -7305.3284   -6742.8811   -549.61676     102002.7      46.7237      46.7237      46.7237 
  325000    112.12576   -7278.7131   -6692.8156   -569.49479     102002.7      46.7237      46.7237      46.7237 
  326000    111.37784   -7289.9634    -6707.974   -645.83425     102002.7      46.7237      46.7237      46.7237 
  327000    108.95783   -7293.4305   -6724.0866   -521.85145     102002.7      46.7237      46.7237      46.7237 
  328000    113.07187    -7293.602   -6702.7608   -386.57433     102002.7      46.7237      46.7237      46.7237 
  329000    110.48716   -7290.3052     -6712.97   -379.30331     102002.7      46.7237      46.7237      46.7237 
  330000    105.95615   -7310.2184   -6756.5594   -535.27975     102002.7      46.7237      46.7237      46.7237 
  331000    111.13802   -7279.3443   -6698.6081   -83.619876     102002.7      46.7237      46.7237      46.7237 
  332000    111.66271   -7284.3635   -6700.8856   -718.59004     102002.7      46.7237      46.7237      46.7237 
  333000    110.85703   -7309.1612   -6729.8932   -468.80924     102002.7      46.7237      46.7237      46.7237 
  334000    113.86327   -7285.2716    -6690.295   -448.51671     102002.7      46.7237      46.7237      46.7237 
  335000    108.73857   -7294.6993   -6726.5011   -643.27735     102002.7      46.7237      46.7237      46.7237 
  336000    114.34865    -7284.583   -6687.0702   -467.05577     102002.7      46.7237      46.7237      46.7237 
  337000    108.14317   -7289.8957   -6724.8087   -425.90193     102002.7      46.7237      46.7237      46.7237 
  338000    109.89285   -7300.7324   -6726.5027   -550.09493     102002.7      46.7237      46.7237      46.7237 
  339000    110.43473   -7280.0859   -6703.0246   -432.05703     102002.7      46.7237      46.7237      46.7237 
  340000    108.35202   -7315.9528   -6749.7745   -479.26873     102002.7      46.7237      46.7237      46.7237 
  341000    110.44436    -7297.936   -6720.8244   -395.00812     102002.7      46.7237      46.7237      46.7237 
  342000     108.4944   -7277.4251   -6710.5028   -873.66217     102002.7      46.7237      46.7237      46.7237 
  343000    109.16766   -7302.7329   -6732.2926   -531.93761     102002.7      46.7237      46.7237      46.7237 
  344000    111.66913   -7298.2718   -6714.7604   -538.11705     102002.7      46.7237      46.7237      46.7237 
  345000    113.88254   -7284.0873     -6689.01   -981.18018     102002.7      46.7237      46.7237      46.7237 
  346000    111.37974   -7303.8541   -6721.8549   -630.92981     102002.7      46.7237      46.7237      46.7237 
  347000    109.49608   -7296.6905   -6724.5341    -1101.495     102002.7      46.7237      46.7237      46.7237 
  348000    112.42508   -7313.3045   -6725.8429   -752.06435     102002.7      46.7237      46.7237      46.7237 
  349000    111.09669   -7286.7254   -6706.2051   -759.64029     102002.7      46.7237      46.7237      46.7237 
  350000    106.93818   -7287.4305     -6728.64   -578.98419     102002.7      46.7237      46.7237      46.7237 
  351000    109.16133   -7280.9184   -6710.5111   -384.36143     102002.7      46.7237      46.7237      46.7237 
  352000    109.34274   -7277.4129   -6706.0578   -573.06155     102002.7      46.7237      46.7237      46.7237 
  353000    108.91301   -7291.0745   -6721.9648   -818.48619     102002.7      46.7237      46.7237      46.7237 
  354000    110.81716   -7310.0553   -6730.9958   -623.84509     102002.7      46.7237      46.7237      46.7237 
  355000    111.36737   -7290.5677   -6708.6331     -804.552     102002.7      46.7237      46.7237      46.7237 
  356000    106.92547   -7299.6031    -6740.879   -626.65643     102002.7      46.7237      46.7237      46.7237 
  357000    109.95616   -7281.3536   -6706.7931    -449.9817     102002.7      46.7237      46.7237      46.7237 
  358000    108.29669    -7275.328   -6709.4388   -384.13361     102002.7      46.7237      46.7237      46.7237 
  359000    110.21262   -7296.8576    -6720.957   -482.56446     102002.7      46.7237      46.7237      46.7237 
  360000    110.84401   -7278.9143   -6699.7144   -502.64951     102002.7      46.7237      46.7237      46.7237 
  361000    105.83939   -7293.7883   -6740.7394   -491.14416     102002.7      46.7237      46.7237      46.7237 
  362000    109.13212   -7289.0011   -6718.7465   -744.99908     102002.7      46.7237      46.7237      46.7237 
  363000    113.84768   -7303.4332   -6708.5381   -579.44076     102002.7      46.7237      46.7237      46.7237 
  364000    109.38014   -7286.3693   -6714.8187   -463.53424     102002.7      46.7237      46.7237      46.7237 
  365000    109.13833    -7288.722   -6718.4349   -712.50838     102002.7      46.7237      46.7237      46.7237 
  366000     112.4456   -7290.0117    -6702.443   -735.28126     102002.7      46.7237      46.7237      46.7237 
  367000    108.63699   -7292.4047   -6724.7373   -678.13974     102002.7      46.7237      46.7237      46.7237 
  368000    112.17246   -7292.1381   -6705.9966   -930.33415     102002.7      46.7237      46.7237      46.7237 
  369000    108.47133   -7287.4618     -6720.66   -877.10583     102002.7      46.7237      46.7237      46.7237 
  370000    108.70925   -7267.0181   -6698.9731   -876.87962     102002.7      46.7237      46.7237      46.7237 
  371000       109.78   -7284.7256   -6711.0856   -702.40476     102002.7      46.7237      46.7237      46.7237 
  372000    107.34416   -7285.1919     -6724.28   -997.95852     102002.7      46.7237      46.7237      46.7237 
  373000    112.58242   -7292.0818   -6703.7981   -708.32594     102002.7      46.7237      46.7237      46.7237 
  374000    108.39411   -7307.7361   -6741.3378   -591.14346     102002.7      46.7237      46.7237      46.7237 
  375000    108.37381   -7283.7036   -6717.4114   -832.76061     102002.7      46.7237      46.7237      46.7237 
  376000    109.70677    -7285.554   -6712.2966   -710.19508     102002.7      46.7237      46.7237      46.7237 
  377000    106.86887   -7289.2427   -6730.8144   -635.13487     102002.7      46.7237      46.7237      46.7237 
  378000    107.26088   -7286.8938   -6726.4171   -935.65351     102002.7      46.7237      46.7237      46.7237 
  379000    109.91042   -7254.1097   -6679.7882    -653.4638     102002.7      46.7237      46.7237      46.7237 
  380000    109.77123   -7299.2012    -6725.607   -525.17319     102002.7      46.7237      46.7237      46.7237 
  381000    108.39791   -7274.9542   -6708.5361   -435.85753     102002.7      46.7237      46.7237      46.7237 
  382000    112.41702   -7293.4198   -6706.0004    -781.4202     102002.7      46.7237      46.7237      46.7237 
  383000    104.17853   -7298.2979   -6753.9276   -703.40201     102002.7      46.7237      46.7237      46.7237 
  384000    110.68659   -7281.1264   -6702.7491   -588.83669     102002.7      46.7237      46.7237      46.7237 
  385000    107.65604   -7301.5634   -6739.0219   -712.90904     102002.7      46.7237      46.7237      46.7237 
  386000       110.98   -7285.9693   -6706.0589   -883.43836     102002.7      46.7237      46.7237      46.7237 
  387000    107.07659   -7306.4286   -6746.9148   -711.85663     102002.7      46.7237      46.7237      46.7237 
  388000    107.93406   -7294.6343     -6730.64   -737.93684     102002.7      46.7237      46.7237      46.7237 
  389000     110.6207   -7291.0561   -6713.0231   -568.24642     102002.7      46.7237      46.7237      46.7237 
  390000    109.96662   -7290.8446   -6716.2294   -319.03113     102002.7      46.7237      46.7237      46.7237 
  391000    109.62447   -7275.4479   -6702.6206   -952.90309     102002.7      46.7237      46.7237      46.7237 
  392000    108.85884   -7293.8494   -6725.0228   -566.92896     102002.7      46.7237      46.7237      46.7237 
  393000    111.68308   -7296.8788   -6713.2945   -844.61293     102002.7      46.7237      46.7237      46.7237 
  394000    107.05264   -7285.4488   -6726.0602    -723.0697     102002.7      46.7237      46.7237      46.7237 
  395000    108.70333   -7304.0923   -6736.0782   -658.16722     102002.7      46.7237      46.7237      46.7237 
  396000    112.18689   -7296.1267   -6709.9098   -692.23557     102002.7      46.7237      46.7237      46.7237 
  397000     107.7563   -7304.7783   -6741.7128   -819.63203     102002.7      46.7237      46.7237      46.7237 
  398000    111.43872   -7292.6754    -6710.368   -654.31992     102002.7      46.7237      46.7237      46.7237 
  399000    108.81206   -7285.2254   -6716.6432   -537.02905     102002.7      46.7237      46.7237      46.7237 
  400000    111.81007   -7307.9345   -6723.6866   -900.21838     102002.7      46.7237      46.7237      46.7237 
  401000    109.44491   -7290.9114   -6719.0224   -725.58023     102002.7      46.7237      46.7237      46.7237 
  402000     109.5511   -7290.6609   -6718.2169   -713.26896     102002.7      46.7237      46.7237      46.7237 
  403000    109.33031   -7288.8992    -6717.609   -566.80171     102002.7      46.7237      46.7237      46.7237 
  404000    109.74291   -7278.3279   -6704.8816   -664.57673     102002.7      46.7237      46.7237      46.7237 
  405000    106.30803    -7299.797   -6744.2993   -882.94091     102002.7      46.7237      46.7237      46.7237 
  406000     111.4178    -7293.833   -6711.6349   -771.95253     102002.7      46.7237      46.7237      46.7237 
  407000    116.28385   -7292.8204   -6685.1955   -579.88319     102002.7      46.7237      46.7237      46.7237 
  408000     110.1839   -7299.8117   -6724.0611   -679.11648     102002.7      46.7237      46.7237      46.7237 
  409000    110.54566   -7264.9611   -6687.3202   -503.63055     102002.7      46.7237      46.7237      46.7237 
  410000     109.5047   -7307.4774   -6735.2759   -794.80762     102002.7      46.7237      46.7237      46.7237 
  411000    106.36948   -7313.9891   -6758.1703   -858.83765     102002.7      46.7237      46.7237      46.7237 
  412000    112.69045   -7283.8648   -6695.0167   -792.79769     102002.7      46.7237      46.7237      46.7237 
  413000    105.60567   -7280.4876   -6728.6599   -715.56335     102002.7      46.7237      46.7237      46.7237 
  414000    107.55704   -7287.1146   -6725.0903   -813.31088     102002.7      46.7237      46.7237      46.7237 
  415000    112.91226   -7291.3392    -6701.332   -737.92578     102002.7      46.7237      46.7237      46.7237 
  416000    111.79208   -7270.2179    -6686.064   -653.04663     102002.7      46.7237      46.7237      46.7237 
  417000    111.63288   -7294.6282   -6711.3062   -722.76141     102002.7      46.7237      46.7237      46.7237 
  418000    110.14553   -7264.2825   -6688.7324   -824.09309     102002.7      46.7237      46.7237      46.7237 
  419000    111.08091   -7299.6173   -6719.1796   -575.10669     102002.7      46.7237      46.7237      46.7237 
  420000    109.99097   -7283.4964    -6708.754   -628.28961     102002.7      46.7237      46.7237      46.7237 
  421000     109.2351   -7304.9395   -6734.1468    -728.1593     102002.7      46.7237      46.7237      46.7237 
  422000    105.90223      -7293.6   -6740.2228   -812.98001     102002.7      46.7237      46.7237      46.7237 
  423000    112.15843   -7291.7335   -6705.6653   -359.32711     102002.7      46.7237      46.7237      46.7237 
  424000    103.95225   -7279.9232   -6736.7353   -923.40662     102002.7      46.7237      46.7237      46.7237 
  425000    112.55456   -7285.7371    -6697.599   -571.17879     102002.7      46.7237      46.7237      46.7237 
  426000    108.02817   -7290.9539   -6726.4678   -495.21158     102002.7      46.7237      46.7237      46.7237 
  427000    106.67571   -7305.8853   -6748.4664   -855.24739     102002.7      46.7237      46.7237      46.7237 
  428000    110.79208   -7286.6693   -6707.7408   -729.16332     102002.7      46.7237      46.7237      46.7237 
  429000    106.39978    -7291.641   -6735.6639   -1180.0759     102002.7      46.7237      46.7237      46.7237 
  430000    118.10403   -7302.9857   -6685.8497   -619.39208     102002.7      46.7237      46.7237      46.7237 
  431000    113.04637   -7306.5983   -6715.8903    -826.2714     102002.7      46.7237      46.7237      46.7237 
  432000    112.84933   -7279.9022   -6690.2238    -515.3071     102002.7      46.7237      46.7237      46.7237 
  433000    109.52651   -7288.8546   -6716.5392   -748.29473     102002.7      46.7237      46.7237      46.7237 
  434000    106.46457   -7296.5876   -6740.2719   -751.21922     102002.7      46.7237      46.7237      46.7237 
  435000    107.49714    -7280.683   -6718.9717   -350.46944     102002.7      46.7237      46.7237      46.7237 
  436000    109.80448   -7271.3568   -6697.5889   -1153.6922     102002.7      46.7237      46.7237      46.7237 
  437000    109.11917    -7278.819   -6708.6321    -608.5103     102002.7      46.7237      46.7237      46.7237 
  438000    108.35902    -7276.874   -6710.6591    -582.7358     102002.7      46.7237      46.7237      46.7237 
  439000    109.11914   -7293.2657   -6723.0789   -734.16451     102002.7      46.7237      46.7237      46.7237 
  440000    108.55379   -7281.1493   -6713.9166    -532.8294     102002.7      46.7237      46.7237      46.7237 
  441000    114.05477   -7287.2488   -6691.2716   -675.19271     102002.7      46.7237      46.7237      46.7237 
  442000    111.23129   -7281.5473   -6700.3238   -598.90643     102002.7      46.7237      46.7237      46.7237 
  443000    106.04647   -7287.4897   -6733.3587   -540.43637     102002.7      46.7237      46.7237      46.7237 
  444000    110.83546   -7315.3749   -6736.2197    -455.3446     102002.7      46.7237      46.7237      46.7237 
  445000    113.18042   -7297.8058   -6706.3973   -741.15255     102002.7      46.7237      46.7237      46.7237 
  446000    108.08721   -7296.7243   -6731.9297   -748.49883     102002.7      46.7237      46.7237      46.7237 
  447000     112.3566   -7289.6489   -6702.5452   -696.82605     102002.7      46.7237      46.7237      46.7237 
  448000    112.02364   -7289.8716   -6704.5078   -568.85325     102002.7      46.7237      46.7237      46.7237 
  449000     110.3948    -7301.255   -6724.4024   -361.45974     102002.7      46.7237      46.7237      46.7237 
  450000    107.82545   -7314.7692   -6751.3424   -773.17923     102002.7      46.7237      46.7237      46.7237 
  451000    110.87235   -7283.1652   -6703.8173   -580.77536     102002.7      46.7237      46.7237      46.7237 
  452000    112.30763   -7292.4922   -6705.6444    -491.6415     102002.7      46.7237      46.7237      46.7237 
  453000    113.00345   -7287.8447   -6697.3609   -571.02468     102002.7      46.7237      46.7237      46.7237 
  454000    113.75673   -7290.7231   -6696.3032   -587.94365     102002.7      46.7237      46.7237      46.7237 
  455000    106.82324   -7288.2411   -6730.0512    -872.0766     102002.7      46.7237      46.7237      46.7237 
  456000    111.20245   -7286.1726   -6705.0998   -750.74433     102002.7      46.7237      46.7237      46.7237 
  457000    106.40242   -7276.4911   -6720.5002   -754.37777     102002.7      46.7237      46.7237      46.7237 
  458000    109.05231    -7302.911   -6733.0734   -784.57679     102002.7      46.7237      46.7237      46.7237 
  459000    109.44215   -7280.9257   -6709.0511   -860.00802     102002.7      46.7237      46.7237      46.7237 
  460000    105.19963   -7306.3298   -6756.6239   -777.24899     102002.7      46.7237      46.7237      46.7237 
  461000    108.98961    -7280.799    -6711.289   -938.65581     102002.7      46.7237      46.7237      46.7237 
  462000    109.32261   -7298.3106   -6727.0607   -865.77011     102002.7      46.7237      46.7237      46.7237 
  463000    110.70888   -7286.9723   -6708.4786   -676.15677     102002.7      46.7237      46.7237      46.7237 
  464000    107.79528   -7287.4126   -6724.1434   -968.53436     102002.7      46.7237      46.7237      46.7237 
  465000    107.70708   -7299.0725   -6736.2642   -734.41201     102002.7      46.7237      46.7237      46.7237 
  466000    110.32405   -7286.1915   -6709.7086   -698.46308     102002.7      46.7237      46.7237      46.7237 
  467000    107.79456   -7302.9702   -6739.7048   -731.81223     102002.7      46.7237      46.7237      46.7237 
  468000    113.73221   -7294.6952   -6700.4035   -817.40431     102002.7      46.7237      46.7237      46.7237 
  469000    108.27659   -7298.0252    -6732.241   -712.91726     102002.7      46.7237      46.7237      46.7237 
  470000    108.54485   -7286.6996   -6719.5137   -469.23904     102002.7      46.7237      46.7237      46.7237 
  471000    106.31572   -7304.7735   -6749.2355   -608.00442     102002.7      46.7237      46.7237      46.7237 
  472000    110.58239   -7279.3061   -6701.4733   -771.72568     102002.7      46.7237      46.7237      46.7237 
  473000    106.00292   -7291.9024    -6737.999     -642.257     102002.7      46.7237      46.7237      46.7237 
  474000    112.54131   -7289.8684   -6701.7995   -811.61508     102002.7      46.7237      46.7237      46.7237 
  475000    107.84297   -7287.7355   -6724.2171    -533.7118     102002.7      46.7237      46.7237      46.7237 
  476000    111.81049    -7260.065   -6675.8149   -910.63972     102002.7      46.7237      46.7237      46.7237 
  477000    110.81532   -7294.9722   -6715.9222   -660.54747     102002.7      46.7237      46.7237      46.7237 
  478000    111.36186   -7310.3918   -6728.4861   -482.02021     102002.7      46.7237      46.7237      46.7237 
  479000    112.93167   -7292.0367    -6701.928   -890.06295     102002.7      46.7237      46.7237      46.7237 
  480000    106.91182   -7277.4545   -6718.8017   -495.17878     102002.7      46.7237      46.7237      46.7237 
  481000    109.83196   -7308.8458   -6734.9343   -571.97437     102002.7      46.7237      46.7237      46.7237 
  482000    109.54271   -7305.4199   -6733.0198   -619.19652     102002.7      46.7237      46.7237      46.7237 
  483000    108.73007   -7286.7028   -6718.5491   -484.62278     102002.7      46.7237      46.7237      46.7237 
  484000    115.16459   -7270.5301   -6668.7537   -630.65041     102002.7      46.7237      46.7237      46.7237 
  485000     113.0381   -7302.6694   -6712.0047   -455.97055     102002.7      46.7237      46.7237      46.7237 
  486000    106.64021   -7287.9037   -6730.6702   -411.53071     102002.7      46.7237      46.7237      46.7237 
  487000    109.88526   -7280.5374   -6706.3474   -550.03226     102002.7      46.7237      46.7237      46.7237 
  488000    107.17601   -7285.2649   -6725.2316   -619.98375     102002.7      46.7237      46.7237      46.7237 
  489000    111.20747   -7302.5598   -6721.4608   -838.82518     102002.7      46.7237      46.7237      46.7237 
  490000    109.46563   -7299.9144   -6727.9171   -861.93037     102002.7      46.7237      46.7237      46.7237 
  491000    106.88252   -7297.7421   -6739.2425   -635.48642     102002.7      46.7237      46.7237      46.7237 
  492000    112.48831    -7287.553   -6699.7611   -747.48274     102002.7      46.7237      46.7237      46.7237 
  493000    110.46342   -7307.7444   -6730.5333    -499.7472     102002.7      46.7237      46.7237      46.7237 
  494000    110.56847   -7293.1522   -6715.3921   -679.09836     102002.7      46.7237      46.7237      46.7237 
  495000    113.64899   -7295.8409    -6701.984   -723.19594     102002.7      46.7237      46.7237      46.7237 
  496000    110.44635   -7271.0866   -6693.9647   -647.13993     102002.7      46.7237      46.7237      46.7237 
  497000    113.63244   -7311.3668   -6717.5963   -600.33727     102002.7      46.7237      46.7237      46.7237 
  498000    108.31305    -7282.871   -6716.8963   -612.37553     102002.7      46.7237      46.7237      46.7237 
  499000    111.25346   -7308.2135   -6726.8741   -752.47842     102002.7      46.7237      46.7237      46.7237 
  500000    114.02676   -7287.7128   -6691.8819   -665.04015     102002.7      46.7237      46.7237      46.7237 
  500504    115.25549    -7285.848   -6683.5966   -812.94353     102002.7      46.7237      46.7237      46.7237 
Loop time of 564.337 on 24 procs for 500000 steps with 1754 atoms

Performance: 76.550 ns/day, 0.314 hours/ns, 885.996 timesteps/s
99.9% CPU use with 24 MPI tasks x no OpenMP threads

MPI task timing breakdown:
Section |  min time  |  avg time  |  max time  |%varavg| %total
---------------------------------------------------------------
Pair    | 190.15     | 277.43     | 368.66     | 262.9 | 49.16
Bond    | 63.813     | 78.108     | 95.889     |  91.4 | 13.84
Neigh   | 1.9294     | 1.9509     | 1.9652     |   1.0 |  0.35
Comm    | 110.49     | 199.52     | 285.24     | 303.8 | 35.36
Output  | 0.31644    | 0.31684    | 0.32039    |   0.1 |  0.06
Modify  | 3.5543     | 3.9893     | 4.582      |  15.3 |  0.71
Other   |            | 3.019      |            |       |  0.53

Nlocal:    73.0833 ave 102 max 43 min
Histogram: 1 3 0 2 7 3 2 2 3 1
Nghost:    2003.29 ave 2187 max 1909 min
Histogram: 11 5 0 0 0 0 0 2 4 2
Neighs:    7637.54 ave 11230 max 4331 min
Histogram: 1 4 2 3 2 5 2 1 2 2

Total # of neighbors = 183301
Ave neighs/atom = 104.505
Ave special neighs/atom = 6.56784
Neighbor list builds = 3619
Dangerous builds = 0
Neighbor list info ...
  update every 1 steps, delay 10 steps, check yes
  max neighbors/atom: 2000, page size: 100000
  master list distance cutoff = 16
  ghost atom cutoff = 16
  binsize = 8, bins = 6 6 6
  3 neighbor lists, perpetual/occasional/extra = 3 0 0
  (1) pair buck6d/coul/gauss/dsf, perpetual, skip from (3)
      attributes: half, newton on
      pair build: skip
      stencil: none
      bin: none
  (2) pair lj/cut, perpetual, skip from (3)
      attributes: half, newton on
      pair build: skip
      stencil: none
      bin: none
  (3) neighbor class addition, perpetual
      attributes: half, newton on
      pair build: half/bin/newton
      stencil: half/bin/3d/newton
      bin: standard
Setting up Verlet run ...
  Unit style    : real
  Current step  : 500504
  Time step     : 1
WARNING: Inconsistent image flags (../domain.cpp:786)
Per MPI rank memory allocation (min/avg/max) = 23.92 | 24.45 | 24.57 Mbytes
Step Time TotEng KinEng PotEng E_mol E_pair Temp Pxx Pyy Pzz Pxy Pxz Pyz Cella Cellb Cellc CellAlpha CellBeta CellGamma Volume Press 
  500504       500000   -6683.5966    602.25141    -7285.848    4316.4167   -11602.265    115.25549   -470.67688   -932.74038   -1035.4133    102.89834   -23.022873    -115.0735      46.7237      46.7237      46.7237           90           90           90     102002.7   -812.94353 
  501000       500496   -6717.4184    567.84046   -7285.2588      4291.32   -11576.579    108.67011   -334.31979   -781.79196   -653.55899    -21.45995   -62.347306   -40.392175      46.7237      46.7237      46.7237           90           90           90     102002.7   -589.89025 
  502000       501496   -6696.7124     581.8104   -7278.5228    4309.5028   -11588.026     111.3436   -1071.2979   -357.21504   -829.07336   -61.059529    136.85066   -204.50091      46.7237      46.7237      46.7237           90           90           90     102002.7   -752.52877 
  503000       502496   -6695.6631    596.01958   -7291.6827    4291.9585   -11583.641    114.06287   -911.34304   -808.15426   -774.38414   -99.570846    103.22313   -96.089588      46.7237      46.7237      46.7237           90           90           90     102002.7   -831.29381 
  504000       503496   -6728.4357    567.17819   -7295.6139    4293.6798   -11589.294    108.54337   -228.40282   -65.868144   -485.11514    135.62285    85.750474    360.66495      46.7237      46.7237      46.7237           90           90           90     102002.7   -259.79537 
  505000       504496   -6712.1351    561.54848   -7273.6836    4315.6702   -11589.354    107.46599   -808.24992   -1292.9808   -1011.7248   -155.49157    167.31613    146.67871      46.7237      46.7237      46.7237           90           90           90     102002.7   -1037.6519 
  506000       505496   -6745.0818     568.9667   -7314.0485    4262.9655   -11577.014    108.88565   -328.41314   -402.57412   -16.493243    62.229948    152.63635   -26.501148      46.7237      46.7237      46.7237           90           90           90     102002.7   -249.16017 
  507000       506496   -6712.6832    578.36232   -7291.0456    4292.5003   -11583.546    110.68373   -596.65942    -446.7515   -530.91652    75.199722    161.71593    117.53544      46.7237      46.7237      46.7237           90           90           90     102002.7   -524.77581 
  508000       507496   -6723.2597    571.89715   -7295.1568    4281.5445   -11576.701    109.44646   -828.47967   -343.07617    -805.3598   -38.864298    48.030576    57.323278      46.7237      46.7237      46.7237           90           90           90     102002.7   -658.97188 
  509000       508496   -6710.7488    589.75084   -7300.4997    4298.8061   -11599.306     112.8632   -745.09255   -543.16209   -370.34748   -47.631894    195.76008   -64.549723      46.7237      46.7237      46.7237           90           90           90     102002.7   -552.86737 
  510000       509496   -6707.6167    581.90655   -7289.5232    4286.6654   -11576.189      111.362   -513.67045    -447.0679   -688.03487   -48.295154   -56.036361    8.3890736      46.7237      46.7237      46.7237           90           90           90     102002.7   -549.59107 
  511000       510496   -6700.1693    582.52219   -7282.6915    4306.8061   -11589.498    111.47982   -348.77533   -889.66556   -552.22667   -9.3050283   -121.61729   -140.44055      46.7237      46.7237      46.7237           90           90           90     102002.7   -596.88919 
  512000       511496   -6731.5144    560.89374   -7292.4082    4291.9479   -11584.356    107.34069   -437.24785   -943.45257   -561.96834    -8.387762    134.52935    21.126848      46.7237      46.7237      46.7237           90           90           90     102002.7   -647.55625 
  513000       512496   -6705.2144    580.69155   -7285.9059    4303.3361   -11589.242    111.12948   -572.08619   -210.31966   -747.26154   -48.497062    89.768717     114.9704      46.7237      46.7237      46.7237           90           90           90     102002.7   -509.88913 
  514000       513496   -6710.3459    581.97278   -7292.3187    4279.4511    -11571.77    111.37468   -1011.4036    -494.5202   -584.99968    69.320815    286.02089   -9.4885274      46.7237      46.7237      46.7237           90           90           90     102002.7   -696.97448 
  515000       514496   -6713.9402    572.31454   -7286.2548    4289.5269   -11575.782    109.52634   -553.52984    -564.2963   -889.11392    7.5476099    147.35461    71.715653      46.7237      46.7237      46.7237           90           90           90     102002.7   -668.98002 
  516000       515496   -6706.4588    565.63468   -7272.0935    4316.9834   -11589.077    108.24798   -711.70453   -450.23714   -488.56602    91.381782   -157.91777   -196.54868      46.7237      46.7237      46.7237           90           90           90     102002.7   -550.16923 
  517000       516496   -6702.4125    579.86734   -7282.2799    4297.9558   -11580.236    110.97175   -829.66433   -791.51275   -649.51817   -70.513613   -7.9184064   -107.16689      46.7237      46.7237      46.7237           90           90           90     102002.7   -756.89842 
  518000       517496   -6704.6701    568.82428   -7273.4944    4324.2256    -11597.72    108.85839    -925.9276   -1300.4485   -824.07795   -345.78154    -189.4304   -366.60672      46.7237      46.7237      46.7237           90           90           90     102002.7    -1016.818 
  519000       518496    -6740.997    544.86264   -7285.8596    4292.0142   -11577.874    104.27275   -597.96381    -1002.167   -783.79628   -25.569827    188.03116   -70.668318      46.7237      46.7237      46.7237           90           90           90     102002.7   -794.64238 
  520000       519496   -6698.9141    581.86292    -7280.777    4304.9392   -11585.716    111.35365   -397.55312   -682.73623   -661.78721    189.45628     37.17323   -403.14858      46.7237      46.7237      46.7237           90           90           90     102002.7   -580.69219 
  521000       520496    -6723.968    567.11869   -7291.0867      4283.86   -11574.947    108.53198   -612.20543   -800.61392   -588.56973   -104.71213    103.16916    74.620934      46.7237      46.7237      46.7237           90           90           90     102002.7   -667.12969 
  522000       521496   -6710.8649    573.81999   -7284.6849    4322.5471   -11607.232    109.81444   -448.97704   -426.28713    -194.1398    180.51258    208.08339   -62.404644      46.7237      46.7237      46.7237           90           90           90     102002.7   -356.46799 
  523000       522496   -6729.8583    572.70492   -7302.5633    4273.4109   -11575.974    109.60105    -815.4221   -337.89557   -558.97756   -181.40515    224.20136   -143.66285      46.7237      46.7237      46.7237           90           90           90     102002.7   -570.76508 
  524000       523496   -6698.6517    578.23318   -7276.8848    4293.2985   -11570.183    110.65901   -281.65919   -589.17196   -69.650024   -37.913926     127.4864   -218.99708      46.7237      46.7237      46.7237           90           90           90     102002.7   -313.49373 
  525000       524496    -6706.707    584.98623   -7291.6932    4289.5692   -11581.262    111.95137   -379.27175   -671.20468   -379.83298   -6.9740531    4.7458502     161.7395      46.7237      46.7237      46.7237           90           90           90     102002.7   -476.76981 
  526000       525496   -6690.7006    581.12845    -7271.829    4284.1679   -11555.997    111.21309   -645.35295    -499.5332   -380.95732   -346.36994    59.157117   -123.15774      46.7237      46.7237      46.7237           90           90           90     102002.7   -508.61449 
  527000       526496   -6720.8113    571.39771    -7292.209    4296.9662   -11589.175    109.35088   -365.94373   -925.96965   -434.65575   -271.71204   -154.49155   -38.183891      46.7237      46.7237      46.7237           90           90           90     102002.7   -575.52304 
  528000       527496   -6702.8429    588.42993   -7291.2728    4298.2843   -11589.557    112.61041   -637.90137   -506.96555   -597.53371    -81.15767    185.20709    183.59249      46.7237      46.7237      46.7237           90           90           90     102002.7   -580.80021 
  529000       528496   -6717.5227    549.45866   -7266.9813    4321.3062   -11588.288    105.15231   -562.63065   -473.35131   -634.17655    14.389029    81.961843    96.414755      46.7237      46.7237      46.7237           90           90           90     102002.7    -556.7195 
  530000       529496   -6742.8697    570.13076   -7313.0004    4274.8702   -11587.871    109.10842   -422.44128   -993.98365   -640.22609    196.92445     109.3846    39.832719      46.7237      46.7237      46.7237           90           90           90     102002.7   -685.55034 
  531000       530496   -6703.0409     579.0465   -7282.0874    4318.2752   -11600.363    110.81466    -932.1425   -503.99465   -692.69693    -6.329726    49.918042   -96.111733      46.7237      46.7237      46.7237           90           90           90     102002.7   -709.61136 
  532000       531496    -6734.296    581.43912   -7315.7351    4267.6213   -11583.356    111.27255   -399.36517   -1080.6607     -695.265    50.482707   -138.09987    194.51573      46.7237      46.7237      46.7237           90           90           90     102002.7   -725.09695 
  533000       532496   -6714.7705    569.22797   -7283.9984     4307.385   -11591.383    108.93565    -249.2003     -522.838   -1217.5585   -18.521709   -106.26433    140.60179      46.7237      46.7237      46.7237           90           90           90     102002.7   -663.19894 
  534000       533496   -6717.8647    579.16229    -7297.027    4292.7302   -11589.757    110.83682   -792.08575   -524.72348   -328.27601    9.8447174    71.672749   -174.35392      46.7237      46.7237      46.7237           90           90           90     102002.7   -548.36175 
  535000       534496    -6675.003    600.05773   -7275.0607    4308.3093    -11583.37    114.83567   -457.68302   -292.12189   -941.63857    17.020218   -18.579937   -58.495668      46.7237      46.7237      46.7237           90           90           90     102002.7   -563.81449 
  536000       535496   -6730.4554    571.64752    -7302.103    4293.2557   -11595.359    109.39869   -1002.3554   -329.97441    -202.4228   -203.89158   -202.22607     141.3712      46.7237      46.7237      46.7237           90           90           90     102002.7   -511.58422 
  537000       536496   -6724.1305    576.89547    -7301.026    4285.5932   -11586.619    110.40301   -709.79967   -112.08271    -843.5515    144.55942   -97.620924    136.03675      46.7237      46.7237      46.7237           90           90           90     102002.7   -555.14463 
  538000       537496   -6701.6427    586.70199   -7288.3447    4271.6141   -11559.959    112.27973   -863.22289   -933.84838   -603.55342   -442.48007    140.56486    -60.91089      46.7237      46.7237      46.7237           90           90           90     102002.7   -800.20823 
  539000       538496   -6710.0887    579.62985   -7289.7186    4307.4687   -11597.187     110.9263   -985.05831   -629.29972    -814.8753   -124.81288   -89.723673   -229.34369      46.7237      46.7237      46.7237           90           90           90     102002.7   -809.74445 
  540000       539496   -6736.4745    562.10772   -7298.5822    4302.1704   -11600.753    107.57301   -279.74639   -1037.0903   -748.75081    224.31888    137.59605    96.218864      46.7237      46.7237      46.7237           90           90           90     102002.7   -688.52918 
  541000       540496   -6714.2736    567.64707   -7281.9206    4309.3574   -11591.278     108.6331   -469.99233   -859.08326   -520.47258   -314.60398   -29.379096    39.336772      46.7237      46.7237      46.7237           90           90           90     102002.7   -616.51606 
  542000       541496    -6717.284    574.58859   -7291.8726       4275.8   -11567.673    109.96153   -487.29971   -226.29276   -463.51221   -83.819899    37.000413    122.49191      46.7237      46.7237      46.7237           90           90           90     102002.7   -392.36822 
  543000       542496   -6695.5295    578.23773   -7273.7673    4324.3015   -11598.069    110.65988   -740.45235   -951.29077   -208.48157    150.09799    188.37398   -100.62278      46.7237      46.7237      46.7237           90           90           90     102002.7   -633.40823 
  544000       543496   -6740.4812    557.29099   -7297.7722    4286.9864   -11584.759    106.65121   -657.09591   -795.67167   -592.52586   -12.617568   -18.651957    137.38188      46.7237      46.7237      46.7237           90           90           90     102002.7   -681.76448 
  545000       544496   -6703.7789    578.15966   -7281.9385    4310.0224   -11591.961    110.64494   -823.48495   -644.80027    -534.3959    37.780423   -79.209189    151.11809      46.7237      46.7237      46.7237           90           90           90     102002.7   -667.56037 
  546000       545496   -6741.2945    561.76938   -7303.0639    4284.8525   -11587.916    107.50826   -695.16372   -800.93235   -1206.3566   -8.4342995   -6.2766539     68.41651      46.7237      46.7237      46.7237           90           90           90     102002.7   -900.81755 
  547000       546496   -6738.4111    553.90686    -7292.318     4311.742    -11604.06    106.00358   -624.20306   -1453.3844   -630.69619    198.51901    137.56976   -123.79125      46.7237      46.7237      46.7237           90           90           90     102002.7   -902.76121 
  548000       547496   -6703.3078    573.76592   -7277.0737    4311.1877   -11588.261    109.80409   -801.75032   -417.52268   -493.03157   -34.834497   -2.3663558   -31.403152      46.7237      46.7237      46.7237           90           90           90     102002.7   -570.76819 
  549000       548496   -6725.6308    579.55224    -7305.183    4277.4778   -11582.661    110.91145   -358.24667   -579.18045   -319.36036   -164.25292     78.47954    16.846371      46.7237      46.7237      46.7237           90           90           90     102002.7   -418.92916 
  550000       549496   -6718.5936    565.99012   -7284.5837    4308.5327   -11593.116    108.31601   -898.05626   -1029.1038   -990.25272    145.64421    56.731745   -240.95122      46.7237      46.7237      46.7237           90           90           90     102002.7   -972.47091 
  551000       550496   -6718.5761    563.47991    -7282.056    4320.0877   -11602.144    107.83562   -997.10764   -868.73007   -657.20973   -90.974698   -183.53036   -38.977196      46.7237      46.7237      46.7237           90           90           90     102002.7   -841.01581 
  552000       551496   -6693.0627    582.90877   -7275.9715     4324.309   -11600.281     111.5538    -1078.563   -872.40595   -1170.2062    51.716434    212.01505   -252.45054      46.7237      46.7237      46.7237           90           90           90     102002.7   -1040.3917 
  553000       552496   -6727.8346    568.79715   -7296.6318    4288.9646   -11585.596     108.8532   -609.83524    -667.7121   -768.77349    79.402621     73.72616    -127.6863      46.7237      46.7237      46.7237           90           90           90     102002.7   -682.10694 
  554000       553496   -6734.6047    554.95207   -7289.5568    4311.2104   -11600.767     106.2036   -583.53641   -500.16851   -157.75536   -261.76292   -34.201637   -62.349801      46.7237      46.7237      46.7237           90           90           90     102002.7   -413.82009 
  555000       554496   -6714.0025    585.99041   -7299.9929    4297.4318   -11597.425    112.14355   -361.72089   -792.35432   -1075.0425   -69.393115    28.531942   -21.300613      46.7237      46.7237      46.7237           90           90           90     102002.7   -743.03925 
[...]
  936000       935496   -6712.7957    566.58718   -7279.3828    4321.8612   -11601.244    108.43027   -440.17271    -713.3943   -604.05449   -165.28405     252.4977   -248.21469      46.7237      46.7237      46.7237           90           90           90     102002.7   -585.87383 
  937000       936496   -6714.5005    571.96436   -7286.4648    4292.6445   -11579.109    109.45932   -1078.8413   -683.17682   -463.17803   -38.798547   -183.40394     281.7541      46.7237      46.7237      46.7237           90           90           90     102002.7   -741.73206 
  938000       937496   -6709.0986    581.81514   -7290.9137    4306.4536   -11597.367    111.34451   -762.06675   -638.44122   -703.71029    245.09148    104.46837    304.83794      46.7237      46.7237      46.7237           90           90           90     102002.7   -701.40609 
  939000       938496   -6712.0311     573.6524   -7285.6835    4296.0809   -11581.764    109.78237   -392.89001   -894.13952   -127.19538    175.87026   -19.043758    43.601269      46.7237      46.7237      46.7237           90           90           90     102002.7    -471.4083 
  940000       939496   -6727.1469    570.37088   -7297.5177    4306.6743   -11604.192    109.15437   -443.90723   -1075.5242   -615.83295    7.7581429   -39.892325    19.550334      46.7237      46.7237      46.7237           90           90           90     102002.7   -711.75478 
  941000       940496   -6683.3699     591.3013   -7274.6712    4317.9955   -11592.667    113.15992   -516.94103   -226.75372   -1192.4871   -223.62346   -146.42334   -121.70387      46.7237      46.7237      46.7237           90           90           90     102002.7   -645.39395 
  942000       941496   -6715.4192     579.7447   -7295.1639     4295.025   -11590.189    110.94828    -401.7969   -991.11029   -1123.1957    161.67728   -16.025201   -6.0601725      46.7237      46.7237      46.7237           90           90           90     102002.7   -838.70095 
  943000       942496   -6717.6946    572.81236   -7290.5069    4289.5447   -11580.052    109.62161   -269.27852   -915.90586   -385.39469   -96.907702    28.368112   -133.76216      46.7237      46.7237      46.7237           90           90           90     102002.7   -523.52636 
  944000       943496   -6722.2093    565.75068     -7287.96    4304.0197    -11591.98    108.27018    -754.8717   -504.69539   -515.63136   -35.944785   -3.1163133   -57.312834      46.7237      46.7237      46.7237           90           90           90     102002.7   -591.73282 
  945000       944496   -6722.9786    589.26318   -7312.2417    4266.9124   -11579.154    112.76987   -337.16765   -934.02209   -183.75348    54.338527    69.393054    44.315759      46.7237      46.7237      46.7237           90           90           90     102002.7   -484.98107 
  946000       945496   -6698.5147    589.41498   -7287.9297     4282.815   -11570.745    112.79892   -193.54861   -1145.6077   -155.14537   -131.51872    138.46446   -3.9147004      46.7237      46.7237      46.7237           90           90           90     102002.7   -498.10057 
  947000       946496   -6718.7805    576.51617   -7295.2967    4294.6669   -11589.964    110.33042   -417.36816   -595.07265   -280.67024     -20.3489   -329.58356   -34.794174      46.7237      46.7237      46.7237           90           90           90     102002.7   -431.03701 
  948000       947496    -6685.923    580.37497    -7266.298    4324.4243   -11590.722     111.0689   -746.33307   -880.63913     -762.036   -27.305872    121.13106   -108.61653      46.7237      46.7237      46.7237           90           90           90     102002.7   -796.33607 
  949000       948496    -6730.302    564.82665   -7295.1286    4300.3476   -11595.476    108.09335   -306.47474   -839.82267   -646.68946   -33.191807   -67.856388   -4.1904093      46.7237      46.7237      46.7237           90           90           90     102002.7   -597.66229 
  950000       949496   -6700.6489    566.69176   -7267.3406    4311.5522   -11578.893    108.45028   -506.12514   -580.86467   -631.06534   -69.361495   -90.473035     87.10454      46.7237      46.7237      46.7237           90           90           90     102002.7   -572.68505 
  951000       950496     -6726.54    567.17747   -7293.7175    4281.3259   -11575.043    108.54323   -635.82538   -721.66579    -44.24213   -206.34414     193.6772    94.148248      46.7237      46.7237      46.7237           90           90           90     102002.7   -467.24443 
  952000       951496   -6706.5198    566.39438   -7272.9142    4314.6488   -11587.563    108.39337   -255.04683   -773.70463   -341.98691    29.092275    71.091339    149.76448      46.7237      46.7237      46.7237           90           90           90     102002.7   -456.91279 
  953000       952496    -6733.766    572.53645   -7306.3025    4258.5929   -11564.895     109.5688   -802.65515   -607.95921   -874.73495    36.440116    107.86211   -136.46379      46.7237      46.7237      46.7237           90           90           90     102002.7    -761.7831 
  954000       953496   -6713.9748    578.01339   -7291.9882    4295.7963   -11587.784    110.61695   -558.87675   -772.09189   -742.22656    8.6018387   -276.66475     33.48569      46.7237      46.7237      46.7237           90           90           90     102002.7   -691.06506 
  955000       954496   -6715.4287    565.24871   -7280.6774    4304.1319   -11584.809    108.17412   -961.69295   -563.64574   -716.96241    6.4180674   -67.629324   -142.89141      46.7237      46.7237      46.7237           90           90           90     102002.7    -747.4337 
  956000       955496   -6700.9915    577.90876   -7278.9003    4325.4694    -11604.37    110.59693   -781.95136   -454.96328   -802.92983   -67.994737   -26.560895   -141.84246      46.7237      46.7237      46.7237           90           90           90     102002.7   -679.94816 
  957000       956496   -6724.6725    568.16237   -7292.8349    4292.1818   -11585.017    108.73172   -535.53945   -942.31186   -492.95082    86.213563     332.7648   -57.936752      46.7237      46.7237      46.7237           90           90           90     102002.7   -656.93404 
  958000       957496   -6746.4674    561.62461   -7308.0921    4279.5062   -11587.598    107.48056   -572.94975   -859.19946   -346.87982    45.769092    75.362248    108.46109      46.7237      46.7237      46.7237           90           90           90     102002.7   -593.00968 
  959000       958496   -6698.4555    572.74843    -7271.204    4311.2425   -11582.446    109.60937   -328.55732    -794.1285   -626.19659    182.54736    85.914101    190.23237      46.7237      46.7237      46.7237           90           90           90     102002.7    -582.9608 
  960000       959496   -6717.1988     574.0417   -7291.2405    4304.1968   -11595.437    109.85687   -326.07604   -900.78641   -706.33434   -42.910118     105.6031   -299.51022      46.7237      46.7237      46.7237           90           90           90     102002.7   -644.39893 
  961000       960496   -6718.6293    573.91069     -7292.54    4281.1621   -11573.702     109.8318   -353.54932    -848.7896   -203.28766   -27.520721   -186.65493     91.37325      46.7237      46.7237      46.7237           90           90           90     102002.7   -468.54219 
  962000       961496   -6714.2418    577.71871   -7291.9605    4297.4625   -11589.423    110.56056   -617.25577   -550.02843   -569.19347    106.81456   -213.05074   -244.87608      46.7237      46.7237      46.7237           90           90           90     102002.7   -578.82589 
  963000       962496   -6710.9187     571.5651   -7282.4838    4307.1465    -11589.63    109.38291   -386.51134   -639.81055   -247.75725   0.48406368    36.877452    91.388043      46.7237      46.7237      46.7237           90           90           90     102002.7   -424.69305 
  964000       963496   -6701.5089    583.46832   -7284.9772    4315.9245   -11600.902    111.66088   -275.41888   -590.48996   -1107.0383    -139.0649   -70.705941    205.93967      46.7237      46.7237      46.7237           90           90           90     102002.7   -657.64906 
  965000       964496   -6753.1472    562.45886   -7315.6061    4278.4704   -11594.076    107.64021   -300.82876   -728.18968   -415.37376    28.723217    123.46788    201.36701      46.7237      46.7237      46.7237           90           90           90     102002.7   -481.46407 
  966000       965496   -6725.9974    577.82014   -7303.8175    4292.6653   -11596.483    110.57997   -830.12979   -397.52666    -498.6228    -195.0859    278.16744    61.374038      46.7237      46.7237      46.7237           90           90           90     102002.7   -575.42642 
  967000       966496   -6727.7645    566.92574   -7294.6902    4294.8528   -11589.543    108.49506   -433.46111   -778.11689   -842.59527   -101.06962    187.84877    42.893468      46.7237      46.7237      46.7237           90           90           90     102002.7   -684.72443 
  968000       967496   -6698.7351    590.45012   -7289.1852    4302.8574   -11592.043    112.99702   -473.95806   -773.13951   -794.70073   -114.67208    164.04462     260.2099      46.7237      46.7237      46.7237           90           90           90     102002.7   -680.59943 
  969000       968496   -6718.1023    560.92788   -7279.0302    4316.7647   -11595.795    107.34722   -902.64362   -747.64317   -735.03895    -12.66672    145.61459    58.605996      46.7237      46.7237      46.7237           90           90           90     102002.7   -795.10858 
  970000       969496   -6710.1891    564.97523   -7275.1643    4312.1296   -11587.294    108.12178   -839.59479   -534.05032   -421.08132   -26.817062   -157.20292    150.03513      46.7237      46.7237      46.7237           90           90           90     102002.7   -598.24214 
  971000       970496   -6697.0405    589.73391   -7286.7744    4300.6787   -11587.453    112.85996    -664.5329   -634.80141   -1382.9128    118.27778   -10.726918   -18.020665      46.7237      46.7237      46.7237           90           90           90     102002.7   -894.08238 
  972000       971496   -6714.8781    575.24777   -7290.1258    4292.8015   -11582.927    110.08768   -754.40971    77.812041   -288.47543    100.23211    90.308701     86.18188      46.7237      46.7237      46.7237           90           90           90     102002.7   -321.69103 
  973000       972496    -6727.971    571.13113   -7299.1022    4307.9242   -11607.026    109.29986   -848.52312   -494.19954   -1144.2483    67.027935    13.394115   -107.70427      46.7237      46.7237      46.7237           90           90           90     102002.7   -828.99031 
  974000       973496   -6739.5255    569.15032   -7308.6758    4268.9026   -11577.578    108.92079   -173.60074   -858.85525   -867.47337   -137.41489    83.335164    145.17225      46.7237      46.7237      46.7237           90           90           90     102002.7   -633.30979 
  975000       974496   -6710.2815    574.56104   -7284.8425    4302.4201   -11587.263    109.95626   -375.25643   -556.88223   -766.87343   -72.237076   -172.50055    34.401977      46.7237      46.7237      46.7237           90           90           90     102002.7   -566.33736 
  976000       975496   -6725.0126    574.58112   -7299.5937    4277.3317   -11576.925     109.9601   -441.48413   -594.76516   -832.57109   -285.21164    155.86914    35.254609      46.7237      46.7237      46.7237           90           90           90     102002.7   -622.94013 
  977000       976496   -6705.9328    595.96635   -7301.8991     4290.967   -11592.866    114.05269   -543.01415   -645.90543   -561.04324    235.26458   -253.48432   -3.7422124      46.7237      46.7237      46.7237           90           90           90     102002.7   -583.32094 
  978000       977496   -6721.9181     592.0098   -7313.9279    4282.8617    -11596.79     113.2955   -759.32428   -492.88796   -588.98783    89.665554   -171.68107   -199.03217      46.7237      46.7237      46.7237           90           90           90     102002.7   -613.73336 
  979000       978496   -6751.9861    548.79275   -7300.7788    4287.3183   -11588.097    105.02487   -854.50316    -887.0337   -766.73714     109.1867   -86.291364   -15.633262      46.7237      46.7237      46.7237           90           90           90     102002.7   -836.09133 
  980000       979496   -6703.0493    578.99631   -7282.0456    4303.6877   -11585.733    110.80506    -512.5257   -886.43605   -880.18057   -31.433102    144.79189   -43.548103      46.7237      46.7237      46.7237           90           90           90     102002.7    -759.7141 
  981000       980496   -6734.7929    571.04053   -7305.8334    4287.1478   -11592.981    109.28252   -871.63188   -501.32249   -611.33248   -112.08734     57.74001   -171.75504      46.7237      46.7237      46.7237           90           90           90     102002.7   -661.42895 
  982000       981496   -6707.4833    570.62093   -7278.1043    4314.8625   -11592.967    109.20222   -535.78441   -855.51705    -845.8903    69.890202     101.8243    166.32348      46.7237      46.7237      46.7237           90           90           90     102002.7   -745.73059 
  983000       982496   -6687.5137    587.73315   -7275.2468    4316.5773   -11591.824    112.47706    1.5820549   -243.34826   -691.40248     109.2737     100.5913    172.90212      46.7237      46.7237      46.7237           90           90           90     102002.7   -311.05623 
  984000       983496   -6724.4523    583.42579    -7307.878    4287.2693   -11595.147    111.65274   -26.717612   -580.20758   -530.84049    196.68982   -107.53298   -137.85595      46.7237      46.7237      46.7237           90           90           90     102002.7   -379.25523 
  985000       984496   -6710.2598    575.04579   -7285.3056    4309.3848    -11594.69    110.04903    -775.3321    -328.9792    -376.4913   -183.59077    1.1761104    28.172519      46.7237      46.7237      46.7237           90           90           90     102002.7   -493.60087 
  986000       985496    -6714.265    570.97191   -7285.2369    4311.5312   -11596.768    109.26939   -632.65004   -496.45572   -690.70402    95.772476     38.66622    161.47451      46.7237      46.7237      46.7237           90           90           90     102002.7   -606.60326 
  987000       986496   -6728.2463    572.50084   -7300.7471      4293.19   -11593.937    109.56199   -806.63613   -623.21791   -770.32162    172.71352   -129.10029   -180.64567      46.7237      46.7237      46.7237           90           90           90     102002.7   -733.39188 
  988000       987496   -6696.5009    590.37031   -7286.8712    4313.6293     -11600.5    112.98175   -478.69498   -493.30162   -1120.9082   -272.86919    74.777619   -47.474701      46.7237      46.7237      46.7237           90           90           90     102002.7   -697.63492 
  989000       988496   -6700.5136    588.08501   -7288.5986    4313.7312    -11602.33     112.5444     -875.532   -374.27786    -746.6362    76.948045    320.81201   -91.746672      46.7237      46.7237      46.7237           90           90           90     102002.7   -665.48202 
  990000       989496   -6703.8175    590.35246     -7294.17    4294.7985   -11588.969    112.97833   -763.36376   -922.51121   -235.74568    51.842802    381.90889   -58.365377      46.7237      46.7237      46.7237           90           90           90     102002.7   -640.54021 
  991000       990496   -6711.1912    563.73274   -7274.9239    4334.4901   -11609.414      107.884   -190.78151   -354.88101   -539.07256   -14.391969    14.734379     -19.1869      46.7237      46.7237      46.7237           90           90           90     102002.7   -361.57836 
  992000       991496   -6739.5399    563.40211    -7302.942    4279.6131   -11582.555    107.82073   -678.59557   -696.29338   -587.68925    157.53619   -140.16855   -65.279437      46.7237      46.7237      46.7237           90           90           90     102002.7   -654.19274 
  993000       992496   -6717.9717    577.70661   -7295.6783    4289.6802   -11585.359    110.55824   -681.89424   -886.43565   -262.05143    99.682479    81.354945   -256.10528      46.7237      46.7237      46.7237           90           90           90     102002.7   -610.12711 
  994000       993496   -6695.8295    587.08763   -7282.9172    4313.2612   -11596.178    112.35353    -712.6255    -430.9393   -584.21255    119.72099    177.37879   -56.547806      46.7237      46.7237      46.7237           90           90           90     102002.7   -575.92578 
  995000       994496   -6714.8386    567.44694   -7282.2856    4300.8633   -11583.149     108.5948   -361.23495   -416.35259   -983.36009   -91.406348   -112.41517   -61.280261      46.7237      46.7237      46.7237           90           90           90     102002.7   -586.98254 
  996000       995496   -6705.7905    582.76789   -7288.5584    4286.1386   -11574.697    111.52684   -474.13735   -527.21132   -437.09789   -183.62171   -55.796302   -12.530287      46.7237      46.7237      46.7237           90           90           90     102002.7   -479.48219 
  997000       996496   -6762.3869    552.73559   -7315.1225    4268.0526   -11583.175    105.77943    -771.0171   -606.20813   -447.59625    237.73503    43.201567    119.53836      46.7237      46.7237      46.7237           90           90           90     102002.7   -608.27383 
  998000       997496   -6705.8338    582.95594   -7288.7897    4284.5467   -11573.336    111.56283   -111.57049   -622.29042   -580.92096   -34.200115   -82.010946   -253.18457      46.7237      46.7237      46.7237           90           90           90     102002.7   -438.26062 
  999000       998496   -6692.6002    585.53602   -7278.1362    4311.1443    -11589.28    112.05659    -512.7107   -282.68132   -402.49833   -168.74675    156.71041   -140.14888      46.7237      46.7237      46.7237           90           90           90     102002.7   -399.29679 
 1000000       999496   -6730.4565    573.76945   -7304.2259    4299.9378   -11604.164    109.80477   -813.80397   -501.85121   -833.62591    140.45588    24.497164    219.96879      46.7237      46.7237      46.7237           90           90           90     102002.7   -716.42703 
 1000504      1000000   -6724.4396    566.35397   -7290.7936    4310.3042   -11601.098    108.38564   -1017.1179   -404.29547   -626.81526    90.765953   -8.0637228   -244.10154      46.7237      46.7237      46.7237           90           90           90     102002.7   -682.74286 
Loop time of 608.396 on 24 procs for 500000 steps with 1754 atoms

Performance: 71.006 ns/day, 0.338 hours/ns, 821.833 timesteps/s
99.9% CPU use with 24 MPI tasks x no OpenMP threads

MPI task timing breakdown:
Section |  min time  |  avg time  |  max time  |%varavg| %total
---------------------------------------------------------------
Pair    | 217.76     | 306.7      | 391.76     | 258.2 | 50.41
Bond    | 60.975     | 82.157     | 106.79     | 127.7 | 13.50
Neigh   | 1.9069     | 1.9289     | 1.9432     |   1.0 |  0.32
Comm    | 122.38     | 202.14     | 297.24     | 326.1 | 33.23
Output  | 0.36888    | 0.42566    | 0.42827    |   1.8 |  0.07
Modify  | 11.708     | 12.024     | 12.657     |   8.8 |  1.98
Other   |            | 3.024      |            |       |  0.50

Nlocal:    73.0833 ave 96 max 59 min
Histogram: 5 3 2 3 3 2 3 2 0 1
Nghost:    2004.88 ave 2175 max 1905 min
Histogram: 10 6 0 0 0 0 0 0 0 8
Neighs:    7636.92 ave 11447 max 4812 min
Histogram: 4 3 0 2 7 2 2 2 1 1

Total # of neighbors = 183286
Ave neighs/atom = 104.496
Ave special neighs/atom = 6.56784
Neighbor list builds = 3620
Dangerous builds = 0
Total wall time: 0:19:34
