LAMMPS (30 Mar 2018)
Reading data file ...
  orthogonal box = (0 0 0) to (46.7237 46.7237 46.7237)
  2 by 2 by 4 MPI processor grid
  reading atoms ...
  3173 atoms
  scanning bonds ...
  5 = max bonds/atom
  scanning angles ...
  10 = max angles/atom
  scanning dihedrals ...
  32 = max dihedrals/atom
  scanning impropers ...
  3 = max impropers/atom
  reading bonds ...
  2064 bonds
  reading angles ...
  3696 angles
  reading dihedrals ...
  6240 dihedrals
  reading impropers ...
  1008 impropers
Finding 1-2 1-3 1-4 neighbors ...
  special bond factors lj:   0          0          0         
  special bond factors coul: 0          0          0         
  5 = max # of 1-2 neighbors
  8 = max # of 1-3 neighbors
  20 = max # of 1-4 neighbors
  19 = max # of special neighbors
Finding 1-2 1-3 1-4 neighbors ...
  special bond factors lj:   0          0          1         
  special bond factors coul: 1          1          1         
  5 = max # of 1-2 neighbors
  8 = max # of 1-3 neighbors
  19 = max # of special neighbors
WARNING: Using 'neigh_modify every 1 delay 0 check yes' setting during minimization (../min.cpp:168)
Neighbor list info ...
  update every 1 steps, delay 0 steps, check yes
  max neighbors/atom: 2000, page size: 100000
  master list distance cutoff = 16
  ghost atom cutoff = 16
  binsize = 8, bins = 6 6 6
  3 neighbor lists, perpetual/occasional/extra = 3 0 0
  (1) pair buck6d/coul/gauss/dsf, perpetual, skip from (3)
      attributes: half, newton on
      pair build: skip
      stencil: none
      bin: none
  (2) pair lj/cut, perpetual, skip from (3)
      attributes: half, newton on
      pair build: skip
      stencil: none
      bin: none
  (3) neighbor class addition, perpetual
      attributes: half, newton on
      pair build: half/bin/newton
      stencil: half/bin/3d/newton
      bin: standard
Setting up cg style minimization ...
  Unit style    : real
  Current step  : 0
WARNING: Inconsistent image flags (../domain.cpp:786)
Per MPI rank memory allocation (min/avg/max) = 23.01 | 23.47 | 23.91 Mbytes
Step Temp E_pair E_mol TotEng Press 
       0            0    -15291.02    6482.8914   -8808.1285    6401.2893 
     500            0   -15804.829    3764.8332   -12039.996   -2061.6392 
Loop time of 4.32869 on 16 procs for 500 steps with 3173 atoms

99.9% CPU use with 16 MPI tasks x no OpenMP threads

Minimization stats:
  Stopping criterion = max force evaluations
  Energy initial, next-to-last, final = 
         -8808.1284809     -12039.8983401     -12039.9956682
  Force two-norm initial, final = 2575.95 14.8539
  Force max component initial, final = 152.071 2.02418
  Final line search alpha, max atom move = 0.00722642 0.0146276
  Iterations, force evaluations = 500 1000

MPI task timing breakdown:
Section |  min time  |  avg time  |  max time  |%varavg| %total
---------------------------------------------------------------
Pair    | 2.1448     | 2.9459     | 3.4042     |  21.5 | 68.05
Bond    | 0.29214    | 0.36161    | 0.49126    |   8.9 |  8.35
Neigh   | 0.031108   | 0.031155   | 0.031214   |   0.0 |  0.72
Comm    | 0.4428     | 0.94452    | 1.8141     |  40.9 | 21.82
Output  | 0          | 0          | 0          |   0.0 |  0.00
Modify  | 0          | 0          | 0          |   0.0 |  0.00
Other   |            | 0.04552    |            |       |  1.05

Nlocal:    198.312 ave 221 max 174 min
Histogram: 1 3 1 2 1 0 3 1 2 2
Nghost:    3989.06 ave 4018 max 3956 min
Histogram: 2 0 2 1 1 2 3 3 1 1
Neighs:    11474 ave 15432 max 6946 min
Histogram: 3 0 1 0 2 3 2 1 1 3

Total # of neighbors = 183584
Ave neighs/atom = 57.8582
Ave special neighs/atom = 3.63063
Neighbor list builds = 9
Dangerous builds = 0
Neighbor list info ...
  update every 1 steps, delay 10 steps, check yes
  max neighbors/atom: 2000, page size: 100000
  master list distance cutoff = 16
  ghost atom cutoff = 16
  binsize = 8, bins = 6 6 6
  3 neighbor lists, perpetual/occasional/extra = 3 0 0
  (1) pair buck6d/coul/gauss/dsf, perpetual, skip from (3)
      attributes: half, newton on
      pair build: skip
      stencil: none
      bin: none
  (2) pair lj/cut, perpetual, skip from (3)
      attributes: half, newton on
      pair build: skip
      stencil: none
      bin: none
  (3) neighbor class addition, perpetual
      attributes: half, newton on
      pair build: half/bin/newton
      stencil: half/bin/3d/newton
      bin: standard
Setting up Verlet run ...
  Unit style    : real
  Current step  : 500
  Time step     : 1
WARNING: Inconsistent image flags (../domain.cpp:786)
Per MPI rank memory allocation (min/avg/max) = 22.66 | 22.74 | 22.98 Mbytes
Step Temp PotEng TotEng Press Volume Lx Ly Lz 
     500          130   -12039.996   -10810.829   -1510.7909     102002.7      46.7237      46.7237      46.7237 
    1000    108.95106   -11016.737   -9986.5901   -160.73918     102002.7      46.7237      46.7237      46.7237 
    2000    131.92769   -10862.015    -9614.622     53.97724     102002.7      46.7237      46.7237      46.7237 
    3000    128.33903   -10889.217    -9675.755    441.58854     102002.7      46.7237      46.7237      46.7237 
    4000    131.45915   -10839.357    -9596.394    319.69869     102002.7      46.7237      46.7237      46.7237 
    5000    130.87189   -10880.101   -9642.6907    94.787534     102002.7      46.7237      46.7237      46.7237 
    6000    130.25407    -10869.52   -9637.9513    153.51398     102002.7      46.7237      46.7237      46.7237 
    7000    128.13824   -10870.019   -9658.4555   -53.993246     102002.7      46.7237      46.7237      46.7237 
    8000    129.01048   -10885.504    -9665.693   -90.707956     102002.7      46.7237      46.7237      46.7237 
    9000    132.29087   -10901.682   -9650.8551   -203.35782     102002.7      46.7237      46.7237      46.7237 
   10000    130.37863   -10879.771   -9647.0245   -29.671321     102002.7      46.7237      46.7237      46.7237 
   11000    133.52839   -10866.392   -9603.8634   -107.56842     102002.7      46.7237      46.7237      46.7237 
   12000    127.07993    -10876.38   -9674.8224   -3.6778024     102002.7      46.7237      46.7237      46.7237 
   13000    130.73042   -10878.088   -9642.0151    304.37555     102002.7      46.7237      46.7237      46.7237 
   14000    131.35148   -10889.609    -9647.664    126.36731     102002.7      46.7237      46.7237      46.7237 
   15000    128.36266   -10866.532   -9652.8461    -55.49022     102002.7      46.7237      46.7237      46.7237 
   16000     134.3939   -10892.116   -9621.4039    6.7506413     102002.7      46.7237      46.7237      46.7237 
   17000    128.73257   -10859.013   -9641.8302    301.93856     102002.7      46.7237      46.7237      46.7237 
   18000    128.04829   -10900.994   -9690.2809    81.149437     102002.7      46.7237      46.7237      46.7237 
   19000    132.16059   -10895.553   -9645.9571    138.27901     102002.7      46.7237      46.7237      46.7237 
   20000    130.28136   -10853.096   -9621.2685    16.398549     102002.7      46.7237      46.7237      46.7237 
   21000    130.22686   -10848.262   -9616.9506   -20.884009     102002.7      46.7237      46.7237      46.7237 
   22000    130.59188   -10874.369    -9639.606    34.510311     102002.7      46.7237      46.7237      46.7237 
   23000    128.32433   -10913.473   -9700.1501   -142.48842     102002.7      46.7237      46.7237      46.7237 
   24000    130.73923   -10879.772   -9643.6157   -85.997466     102002.7      46.7237      46.7237      46.7237 
   25000    127.93295   -10891.596   -9681.9729   -177.70769     102002.7      46.7237      46.7237      46.7237 
   26000    132.16213   -10914.973   -9665.3634    -123.3697     102002.7      46.7237      46.7237      46.7237 
   27000    133.58864   -10882.123   -9619.0248     129.9474     102002.7      46.7237      46.7237      46.7237 
   28000    128.30018   -10879.236   -9666.1417    232.17142     102002.7      46.7237      46.7237      46.7237 
   29000    127.63032   -10852.597   -9645.8357    351.77592     102002.7      46.7237      46.7237      46.7237 
   30000    127.64274   -10863.963   -9657.0841    304.60594     102002.7      46.7237      46.7237      46.7237 
   31000    126.99773   -10861.075   -9660.2954    6.0171992     102002.7      46.7237      46.7237      46.7237 
   32000    128.78632   -10851.408   -9633.7166     13.64823     102002.7      46.7237      46.7237      46.7237 
   33000    129.82768   -10905.765   -9678.2277    274.72716     102002.7      46.7237      46.7237      46.7237 
   34000    130.40262    -10840.89    -9607.916   -37.386008     102002.7      46.7237      46.7237      46.7237 
   35000    130.30497   -10868.101   -9636.0505    160.88449     102002.7      46.7237      46.7237      46.7237 
   36000    130.81181    -10891.47   -9654.6273   -35.395897     102002.7      46.7237      46.7237      46.7237 
   37000    130.89053    -10845.89    -9608.303   -25.374761     102002.7      46.7237      46.7237      46.7237 
   38000    130.26521   -10866.186    -9634.512    123.03276     102002.7      46.7237      46.7237      46.7237 
   39000    127.54233   -10877.304   -9671.3751   -54.638404     102002.7      46.7237      46.7237      46.7237 
   40000    130.05903   -10874.871   -9645.1457    147.52762     102002.7      46.7237      46.7237      46.7237 
   41000     126.7015   -10900.675   -9702.6957   -23.038377     102002.7      46.7237      46.7237      46.7237 
   42000    127.25716   -10885.386   -9682.1535     14.51384     102002.7      46.7237      46.7237      46.7237 
   43000    131.40197   -10883.335   -9640.9122    156.64659     102002.7      46.7237      46.7237      46.7237 
   44000    130.26134   -10882.132   -9650.4939    148.95613     102002.7      46.7237      46.7237      46.7237 
   45000    128.45578   -10875.963   -9661.3973    158.80048     102002.7      46.7237      46.7237      46.7237 
   46000    127.46641   -10890.898   -9685.6864    329.11731     102002.7      46.7237      46.7237      46.7237 
   47000    132.31707   -10896.498   -9645.4229    -45.07438     102002.7      46.7237      46.7237      46.7237 
   48000    127.10964   -10885.206   -9683.3679    64.948206     102002.7      46.7237      46.7237      46.7237 
   49000    128.17127    -10885.34   -9673.4644    224.93193     102002.7      46.7237      46.7237      46.7237 
   50000    131.94109   -10886.617   -9639.0966    85.625141     102002.7      46.7237      46.7237      46.7237 
   51000    130.66488   -10885.741   -9650.2872   -316.91818     102002.7      46.7237      46.7237      46.7237 
   52000    128.16876   -10892.949   -9681.0966   -78.381407     102002.7      46.7237      46.7237      46.7237 
   53000    129.74847   -10843.089   -9616.2999   -27.177809     102002.7      46.7237      46.7237      46.7237 
   54000    131.47405   -10853.128   -9610.0241   -159.39006     102002.7      46.7237      46.7237      46.7237 
   55000    131.39248   -10861.572   -9619.2393   -265.11461     102002.7      46.7237      46.7237      46.7237 
   56000    133.06574   -10860.815   -9602.6611    -328.9983     102002.7      46.7237      46.7237      46.7237 
   57000    131.07801   -10875.317   -9635.9571    -98.62382     102002.7      46.7237      46.7237      46.7237 
   58000    129.58791    -10883.05   -9657.7798    284.47048     102002.7      46.7237      46.7237      46.7237 
   59000    125.03033   -10894.349   -9712.1707    136.90653     102002.7      46.7237      46.7237      46.7237 
   60000    132.51696   -10854.695   -9601.7299    227.44347     102002.7      46.7237      46.7237      46.7237 
   61000    128.95564   -10882.353   -9663.0603    51.419043     102002.7      46.7237      46.7237      46.7237 
   62000    130.76926   -10854.785   -9618.3445    154.19002     102002.7      46.7237      46.7237      46.7237 
   63000    131.54953    -10910.87   -9667.0525    75.823036     102002.7      46.7237      46.7237      46.7237 
   64000    130.42731   -10862.946   -9629.7392    322.59161     102002.7      46.7237      46.7237      46.7237 
   65000    128.01728   -10864.544    -9654.124    118.23804     102002.7      46.7237      46.7237      46.7237 
   66000    131.30761   -10837.805   -9596.2742    179.04585     102002.7      46.7237      46.7237      46.7237 
   67000      129.676   -10866.078   -9639.9742    2.3994427     102002.7      46.7237      46.7237      46.7237 
   68000    130.28874   -10857.978   -9626.0813   -167.53386     102002.7      46.7237      46.7237      46.7237 
   69000    131.48538   -10896.711   -9653.4996   -159.09923     102002.7      46.7237      46.7237      46.7237 
   70000    128.84386   -10877.803   -9659.5673    96.105178     102002.7      46.7237      46.7237      46.7237 
   71000    128.41692   -10880.181   -9665.9827   -79.689362     102002.7      46.7237      46.7237      46.7237 
   72000     130.3666   -10865.114   -9632.4805   -115.19925     102002.7      46.7237      46.7237      46.7237 
   73000    128.11386   -10883.889   -9672.5557   -346.52548     102002.7      46.7237      46.7237      46.7237 
   74000     132.8546    -10865.94   -9609.7821   -65.855532     102002.7      46.7237      46.7237      46.7237 
   75000    129.37301   -10883.468   -9660.2294    31.698992     102002.7      46.7237      46.7237      46.7237 
   76000    125.08123   -10870.398   -9687.7391   -171.93485     102002.7      46.7237      46.7237      46.7237 
   77000    129.86811   -10865.621   -9637.7014   -150.11635     102002.7      46.7237      46.7237      46.7237 
   78000    127.65207   -10850.793   -9643.8265    160.26599     102002.7      46.7237      46.7237      46.7237 
   79000    132.21805     -10870.7   -9620.5608   -76.409438     102002.7      46.7237      46.7237      46.7237 
   80000    130.49692    -10880.81   -9646.9451   -166.46411     102002.7      46.7237      46.7237      46.7237 
   81000    133.79292   -10869.738   -9604.7089    203.95016     102002.7      46.7237      46.7237      46.7237 
   82000    128.93199   -10877.213    -9658.144    16.233656     102002.7      46.7237      46.7237      46.7237 
   83000    127.63543   -10868.339   -9661.5299   -139.04059     102002.7      46.7237      46.7237      46.7237 
   84000    130.83612   -10863.672   -9626.5993   -62.663268     102002.7      46.7237      46.7237      46.7237 
   85000    132.97008   -10860.592   -9603.3423    239.95766     102002.7      46.7237      46.7237      46.7237 
   86000    132.71348   -10896.507   -9641.6836    314.79724     102002.7      46.7237      46.7237      46.7237 
   87000    127.71279   -10896.871   -9689.3303   -135.08688     102002.7      46.7237      46.7237      46.7237 
   88000    129.32552    -10880.25   -9657.4606   -1.6265892     102002.7      46.7237      46.7237      46.7237 
   89000    130.94473   -10849.617   -9611.5174    222.18859     102002.7      46.7237      46.7237      46.7237 
   90000    129.99178   -10869.729   -9640.6397    42.990523     102002.7      46.7237      46.7237      46.7237 
   91000    128.08536   -10879.979   -9668.9149    235.50518     102002.7      46.7237      46.7237      46.7237 
   92000    126.31682   -10878.123   -9683.7809    55.249448     102002.7      46.7237      46.7237      46.7237 
   93000    130.69618   -10880.981   -9645.2317    52.679743     102002.7      46.7237      46.7237      46.7237 
   94000    129.96269   -10884.616   -9655.8019    38.681042     102002.7      46.7237      46.7237      46.7237 
   95000    129.63621   -10882.044   -9656.3172    -292.3783     102002.7      46.7237      46.7237      46.7237 
   96000     128.2263    -10897.77   -9685.3741    44.422516     102002.7      46.7237      46.7237      46.7237 
   97000    131.83027   -10895.335   -9648.8626   -176.77329     102002.7      46.7237      46.7237      46.7237 
   98000    128.82565   -10904.104   -9686.0411    235.75849     102002.7      46.7237      46.7237      46.7237 
   99000    133.22001   -10870.065   -9610.4524    590.20726     102002.7      46.7237      46.7237      46.7237 
  100000    131.55434   -10894.007   -9650.1441   -77.910422     102002.7      46.7237      46.7237      46.7237 
  101000    131.27511   -10878.121   -9636.8974    177.19519     102002.7      46.7237      46.7237      46.7237 
  102000    130.46221   -10869.676   -9636.1386    29.835496     102002.7      46.7237      46.7237      46.7237 
  103000     127.4793   -10884.817   -9679.4838   -23.397875     102002.7      46.7237      46.7237      46.7237 
  104000    130.79777   -10890.344   -9653.6341   -229.23399     102002.7      46.7237      46.7237      46.7237 
  105000     132.8618   -10859.241    -9603.016   -384.29653     102002.7      46.7237      46.7237      46.7237 
  106000    130.06854   -10855.023   -9625.2079    -167.1638     102002.7      46.7237      46.7237      46.7237 
  107000     131.7594   -10889.284   -9643.4822   0.82832637     102002.7      46.7237      46.7237      46.7237 
  108000    127.85304   -10886.595   -9677.7283   -49.785555     102002.7      46.7237      46.7237      46.7237 
  109000    130.61154   -10895.953   -9661.0036    36.065768     102002.7      46.7237      46.7237      46.7237 
  110000    127.02501   -10881.521    -9680.483   -210.70079     102002.7      46.7237      46.7237      46.7237 
  111000    129.60496   -10877.744   -9652.3124    40.083582     102002.7      46.7237      46.7237      46.7237 
  112000    129.27337   -10865.697   -9643.4005    266.50746     102002.7      46.7237      46.7237      46.7237 
  113000    132.25424   -10903.472   -9652.9912   -261.18875     102002.7      46.7237      46.7237      46.7237 
  114000    131.34026   -10899.792   -9657.9527   -81.320087     102002.7      46.7237      46.7237      46.7237 
  115000    129.38183   -10878.241    -9654.919   -45.546756     102002.7      46.7237      46.7237      46.7237 
  116000     131.1078       -10885   -9645.3589    198.38093     102002.7      46.7237      46.7237      46.7237 
  117000    126.99936   -10885.139   -9684.3436    26.507034     102002.7      46.7237      46.7237      46.7237 
  118000    131.05828   -10861.456   -9622.2829    94.703878     102002.7      46.7237      46.7237      46.7237 
  119000    127.82084   -10864.635   -9656.0725    145.03914     102002.7      46.7237      46.7237      46.7237 
  120000    129.93887   -10883.469   -9654.8799    195.83612     102002.7      46.7237      46.7237      46.7237 
  121000    131.46854   -10873.137   -9630.0851   -263.48029     102002.7      46.7237      46.7237      46.7237 
  122000    132.12105   -10891.405   -9642.1834     130.4593     102002.7      46.7237      46.7237      46.7237 
  123000     129.2785   -10900.134   -9677.7896   -57.195029     102002.7      46.7237      46.7237      46.7237 
  124000    130.06402   -10872.326   -9642.5544    339.79593     102002.7      46.7237      46.7237      46.7237 
  125000    125.28751   -10905.728   -9721.1181    498.88192     102002.7      46.7237      46.7237      46.7237 
  126000    127.35706   -10872.509   -9668.3316    228.67427     102002.7      46.7237      46.7237      46.7237 
  127000    129.19749   -10871.678   -9650.0987   -48.715541     102002.7      46.7237      46.7237      46.7237 
  128000    128.64049   -10872.283   -9655.9707    114.95234     102002.7      46.7237      46.7237      46.7237 
  129000    127.06347   -10860.786   -9659.3841    259.87595     102002.7      46.7237      46.7237      46.7237 
  130000    131.90219   -10846.314   -9599.1617    161.29512     102002.7      46.7237      46.7237      46.7237 
  131000    128.31825   -10895.173   -9681.9075   -36.394635     102002.7      46.7237      46.7237      46.7237 
  132000    128.67143   -10906.219   -9689.6143    41.205575     102002.7      46.7237      46.7237      46.7237 
  133000    131.75151   -10868.558   -9622.8303   -69.808471     102002.7      46.7237      46.7237      46.7237 
  134000    131.28617   -10847.959   -9606.6312     239.7687     102002.7      46.7237      46.7237      46.7237 
  135000    130.63224    -10866.52   -9631.3752   -374.90162     102002.7      46.7237      46.7237      46.7237 
  136000    129.05841   -10872.587    -9652.323    149.76936     102002.7      46.7237      46.7237      46.7237 
  137000    130.36257   -10883.661   -9651.0661    203.58658     102002.7      46.7237      46.7237      46.7237 
  138000    129.67894   -10897.277   -9671.1457     290.3332     102002.7      46.7237      46.7237      46.7237 
  139000    129.11018   -10912.419   -9691.6651    139.03159     102002.7      46.7237      46.7237      46.7237 
  140000    129.30876   -10900.608   -9677.9769   -176.86982     102002.7      46.7237      46.7237      46.7237 
  141000    128.28775   -10856.301   -9643.3237   -62.114739     102002.7      46.7237      46.7237      46.7237 
  142000    129.38533   -10880.295   -9656.9404   -3.0215522     102002.7      46.7237      46.7237      46.7237 
  143000    130.19192   -10872.679   -9641.6978   -139.76068     102002.7      46.7237      46.7237      46.7237 
  144000    129.27717   -10886.921   -9664.5886    176.72806     102002.7      46.7237      46.7237      46.7237 
  145000    127.63309   -10879.971   -9673.1836    87.754713     102002.7      46.7237      46.7237      46.7237 
  146000    133.55551   -10855.968    -9593.183   -82.104469     102002.7      46.7237      46.7237      46.7237 
  147000    127.67346    -10837.53   -9630.3607    71.182309     102002.7      46.7237      46.7237      46.7237 
  148000    129.93003   -10888.075   -9659.5695    123.45721     102002.7      46.7237      46.7237      46.7237 
  149000    130.58935   -10888.382   -9653.6423    63.630832     102002.7      46.7237      46.7237      46.7237 
  150000    133.19957   -10882.807   -9623.3874    37.205047     102002.7      46.7237      46.7237      46.7237 
  151000    134.28148   -10873.163   -9603.5146    44.429403     102002.7      46.7237      46.7237      46.7237 
  152000    130.81755   -10877.185   -9640.2877    119.06634     102002.7      46.7237      46.7237      46.7237 
  153000    131.46909   -10879.817   -9636.7593    37.537136     102002.7      46.7237      46.7237      46.7237 
  154000    132.01762    -10867.67    -9619.426    196.70118     102002.7      46.7237      46.7237      46.7237 
  155000    126.36097   -10871.733    -9676.974    7.8244153     102002.7      46.7237      46.7237      46.7237 
  156000    127.43368   -10875.554   -9670.6523    3.0649012     102002.7      46.7237      46.7237      46.7237 
  157000    130.51125   -10890.155    -9656.154   -62.096067     102002.7      46.7237      46.7237      46.7237 
  158000    130.02942   -10898.282   -9668.8369   -72.399012     102002.7      46.7237      46.7237      46.7237 
  159000    135.33745   -10893.332    -9613.699   -32.953627     102002.7      46.7237      46.7237      46.7237 
  160000    131.43374   -10907.587   -9664.8639    68.989086     102002.7      46.7237      46.7237      46.7237 
  161000    132.66488   -10874.982   -9620.6183   -55.360197     102002.7      46.7237      46.7237      46.7237 
  162000    131.03042   -10907.494   -9668.5842   -78.731712     102002.7      46.7237      46.7237      46.7237 
  163000    131.46932   -10840.804   -9597.7444    471.98821     102002.7      46.7237      46.7237      46.7237 
  164000     128.1032   -10885.847   -9674.6149     284.2033     102002.7      46.7237      46.7237      46.7237 
  165000    134.17286   -10839.898   -9571.2762   -80.332426     102002.7      46.7237      46.7237      46.7237 
  166000    129.58774   -10881.495   -9656.2256    20.676515     102002.7      46.7237      46.7237      46.7237 
  167000     129.9189   -10869.366   -9640.9659   -78.656491     102002.7      46.7237      46.7237      46.7237 
  168000    128.80726   -10849.923   -9632.0333   -164.81863     102002.7      46.7237      46.7237      46.7237 
  169000    129.87049   -10864.648    -9636.706    168.64642     102002.7      46.7237      46.7237      46.7237 
  170000    130.08633   -10891.863   -9661.8803    64.095049     102002.7      46.7237      46.7237      46.7237 
  171000    130.24533   -10859.326   -9627.8393     456.2991     102002.7      46.7237      46.7237      46.7237 
  172000    131.85366   -10876.297   -9629.6033    24.302216     102002.7      46.7237      46.7237      46.7237 
  173000    129.12754   -10910.301   -9689.3834   -333.92876     102002.7      46.7237      46.7237      46.7237 
  174000    131.01349   -10858.393   -9619.6433    84.962644     102002.7      46.7237      46.7237      46.7237 
  175000    128.03983   -10863.659   -9653.0254     13.93213     102002.7      46.7237      46.7237      46.7237 
  176000    129.38148   -10899.784   -9676.4651   -147.77289     102002.7      46.7237      46.7237      46.7237 
  177000    130.58632   -10874.088   -9639.3772   -93.282786     102002.7      46.7237      46.7237      46.7237 
  178000    131.01138   -10898.191   -9659.4615     24.18585     102002.7      46.7237      46.7237      46.7237 
  179000    129.75561   -10818.264   -9591.4074   -71.029574     102002.7      46.7237      46.7237      46.7237 
  180000    128.84921   -10882.799   -9664.5131   -273.28581     102002.7      46.7237      46.7237      46.7237 
  181000    131.89572    -10887.76    -9640.669    53.729451     102002.7      46.7237      46.7237      46.7237 
  182000    127.11644   -10897.408   -9695.5051   -166.77898     102002.7      46.7237      46.7237      46.7237 
  183000    131.41534   -10894.527   -9651.9784    217.79599     102002.7      46.7237      46.7237      46.7237 
  184000    129.55954   -10883.405   -9658.4031   -119.12994     102002.7      46.7237      46.7237      46.7237 
  185000    128.30623   -10875.064   -9661.9118   -329.91545     102002.7      46.7237      46.7237      46.7237 
  186000    126.81729   -10894.547   -9695.4727   -187.17595     102002.7      46.7237      46.7237      46.7237 
  187000    129.76076   -10878.183   -9651.2779   -122.85995     102002.7      46.7237      46.7237      46.7237 
  188000    131.81782   -10860.802   -9614.4472    52.577328     102002.7      46.7237      46.7237      46.7237 
  189000    130.54578   -10893.377     -9659.05    140.06173     102002.7      46.7237      46.7237      46.7237 
  190000    128.32335   -10881.888   -9668.5743   -92.300536     102002.7      46.7237      46.7237      46.7237 
  191000    129.86559   -10891.206   -9663.3096    38.984492     102002.7      46.7237      46.7237      46.7237 
  192000    126.95822   -10886.591   -9686.1841    160.39109     102002.7      46.7237      46.7237      46.7237 
  193000    129.25473   -10885.346    -9663.226    45.604496     102002.7      46.7237      46.7237      46.7237 
  194000     131.9082   -10927.013   -9679.8037  -0.75449033     102002.7      46.7237      46.7237      46.7237 
  195000    125.83686   -10877.239   -9687.4352    254.20583     102002.7      46.7237      46.7237      46.7237 
  196000    127.64709   -10884.929   -9678.0093   -154.31152     102002.7      46.7237      46.7237      46.7237 
  197000    132.15569   -10893.623   -9644.0734    290.25516     102002.7      46.7237      46.7237      46.7237 
  198000    132.68592   -10888.131   -9633.5688    190.98116     102002.7      46.7237      46.7237      46.7237 
  199000    130.18225   -10888.063   -9657.1727    207.44616     102002.7      46.7237      46.7237      46.7237 
  200000     128.7212   -10860.819   -9643.7439    259.79039     102002.7      46.7237      46.7237      46.7237 
  201000    130.49918   -10869.662   -9635.7754   -59.473494     102002.7      46.7237      46.7237      46.7237 
  202000     128.5471   -10882.255   -9666.8251   -332.36074     102002.7      46.7237      46.7237      46.7237 
  203000    128.63284   -10867.353   -9651.1133    281.86545     102002.7      46.7237      46.7237      46.7237 
  204000    131.06909   -10902.935   -9663.6601   -177.93855     102002.7      46.7237      46.7237      46.7237 
  205000    130.77911   -10896.466   -9659.9322   -415.44337     102002.7      46.7237      46.7237      46.7237 
  206000    130.54445   -10908.299    -9673.984   -263.99657     102002.7      46.7237      46.7237      46.7237 
  207000    130.33128   -10885.355   -9653.0558   -489.02581     102002.7      46.7237      46.7237      46.7237 
  208000    128.02484   -10901.276   -9690.7847    4.2389112     102002.7      46.7237      46.7237      46.7237 
  209000    129.20362   -10875.469    -9653.832    -100.7571     102002.7      46.7237      46.7237      46.7237 
  210000    128.89654    -10903.68   -9684.9466     -190.709     102002.7      46.7237      46.7237      46.7237 
  211000    132.75826   -10865.121   -9609.8747   -70.411486     102002.7      46.7237      46.7237      46.7237 
  212000    129.15506   -10883.811   -9662.6329   -178.02023     102002.7      46.7237      46.7237      46.7237 
  213000    130.08037    -10881.09   -9651.1635    128.34747     102002.7      46.7237      46.7237      46.7237 
  214000     130.0707   -10903.581   -9673.7459    20.162999     102002.7      46.7237      46.7237      46.7237 
  215000    128.55163   -10894.065    -9678.593    18.635355     102002.7      46.7237      46.7237      46.7237 
  216000    131.72536   -10860.642   -9615.1617   -29.347538     102002.7      46.7237      46.7237      46.7237 
  217000    130.58976   -10905.813     -9671.07   -175.28183     102002.7      46.7237      46.7237      46.7237 
  218000    128.74759    -10880.45    -9663.125      109.457     102002.7      46.7237      46.7237      46.7237 
  219000    129.83599   -10856.619   -9629.0033    134.55161     102002.7      46.7237      46.7237      46.7237 
  220000    132.92083   -10892.467   -9635.6829    -137.5972     102002.7      46.7237      46.7237      46.7237 
  221000    128.80361   -10897.217   -9679.3624   -313.49305     102002.7      46.7237      46.7237      46.7237 
  222000    127.19617    -10854.87   -9652.2142   -137.76173     102002.7      46.7237      46.7237      46.7237 
  223000    130.12991   -10876.225   -9645.8303   -349.18216     102002.7      46.7237      46.7237      46.7237 
  224000    131.23253   -10887.629   -9646.8085    -93.96491     102002.7      46.7237      46.7237      46.7237 
  225000    127.78455    -10900.28   -9692.0609      22.7166     102002.7      46.7237      46.7237      46.7237 
  226000    127.77689   -10843.147   -9635.0004      108.017     102002.7      46.7237      46.7237      46.7237 
  227000    129.30784   -10901.283   -9678.6603   -12.831441     102002.7      46.7237      46.7237      46.7237 
  228000    130.68301   -10907.366   -9671.7408   -112.33742     102002.7      46.7237      46.7237      46.7237 
  229000    131.88414   -10882.209   -9635.2279    333.58086     102002.7      46.7237      46.7237      46.7237 
  230000     128.2151   -10882.704   -9670.4131    83.978012     102002.7      46.7237      46.7237      46.7237 
  231000    129.05019   -10852.853   -9632.6668    160.00829     102002.7      46.7237      46.7237      46.7237 
  232000    127.39969   -10856.003   -9651.4222   -288.60378     102002.7      46.7237      46.7237      46.7237 
  233000      132.124   -10877.885    -9628.635   -10.016525     102002.7      46.7237      46.7237      46.7237 
  234000    130.33218   -10884.054   -9651.7463    171.60018     102002.7      46.7237      46.7237      46.7237 
  235000    127.11336    -10914.23   -9712.3568   -123.60312     102002.7      46.7237      46.7237      46.7237 
  236000    127.73735   -10884.981   -9677.2079   -208.05642     102002.7      46.7237      46.7237      46.7237 
  237000    130.93832   -10881.196   -9643.1569    181.79545     102002.7      46.7237      46.7237      46.7237 
  238000    128.74633   -10857.814   -9640.5004   -72.351723     102002.7      46.7237      46.7237      46.7237 
  239000    130.83384    -10873.06   -9636.0091    4.7725242     102002.7      46.7237      46.7237      46.7237 
  240000    129.86472    -10890.03   -9662.1426    -100.2291     102002.7      46.7237      46.7237      46.7237 
  241000    132.49133   -10860.554   -9607.8316    286.76494     102002.7      46.7237      46.7237      46.7237 
  242000    133.49413    -10892.12   -9629.9162   -283.77742     102002.7      46.7237      46.7237      46.7237 
  243000    132.18434   -10872.851   -9623.0311    -5.168509     102002.7      46.7237      46.7237      46.7237 
  244000    133.97067   -10873.124   -9606.4144   -145.21709     102002.7      46.7237      46.7237      46.7237 
  245000    128.48873   -10860.876    -9645.998    19.531584     102002.7      46.7237      46.7237      46.7237 
  246000    131.55299   -10896.615   -9652.7649   -144.80624     102002.7      46.7237      46.7237      46.7237 
  247000    131.59001     -10898.1   -9653.8996   -464.39099     102002.7      46.7237      46.7237      46.7237 
  248000    133.02947   -10858.371   -9600.5597   -364.71324     102002.7      46.7237      46.7237      46.7237 
  249000    130.60177   -10873.031   -9638.1748   -256.48658     102002.7      46.7237      46.7237      46.7237 
  250000    129.48689   -10891.149   -9666.8336   -219.92594     102002.7      46.7237      46.7237      46.7237 
  251000    129.93169   -10893.429   -9664.9083   -118.03792     102002.7      46.7237      46.7237      46.7237 
  252000    130.14151   -10876.125   -9645.6201   -91.950423     102002.7      46.7237      46.7237      46.7237 
  253000    132.14889   -10865.847   -9616.3624   -68.745054     102002.7      46.7237      46.7237      46.7237 
  254000    129.73293    -10872.03   -9645.3881    488.22818     102002.7      46.7237      46.7237      46.7237 
  255000    130.11815   -10854.875    -9624.591    29.416632     102002.7      46.7237      46.7237      46.7237 
  256000    127.89487    -10896.47   -9687.2073   -160.06611     102002.7      46.7237      46.7237      46.7237 
  257000    131.39153    -10868.52   -9626.1965    118.58384     102002.7      46.7237      46.7237      46.7237 
  258000     129.8271   -10887.789   -9660.2571   -259.40918     102002.7      46.7237      46.7237      46.7237 
  259000    132.80413   -10861.985   -9606.3046    54.279196     102002.7      46.7237      46.7237      46.7237 
  260000     130.1063   -10884.979    -9654.807   -75.941589     102002.7      46.7237      46.7237      46.7237 
  261000    128.89412   -10862.379    -9643.668   -12.488553     102002.7      46.7237      46.7237      46.7237 
  262000    130.43617   -10888.765   -9655.4746    181.54279     102002.7      46.7237      46.7237      46.7237 
  263000    127.38717   -10879.351   -9674.8884   -177.29021     102002.7      46.7237      46.7237      46.7237 
  264000    130.37382    -10851.55   -9618.8488   -156.03196     102002.7      46.7237      46.7237      46.7237 
  265000    131.96541   -10923.427   -9675.6768   -87.407213     102002.7      46.7237      46.7237      46.7237 
  266000    131.76713    -10865.11   -9619.2349   -78.912151     102002.7      46.7237      46.7237      46.7237 
  267000    128.17671   -10846.524   -9634.5965    58.608655     102002.7      46.7237      46.7237      46.7237 
  268000    129.03302   -10887.816   -9667.7919   -72.754748     102002.7      46.7237      46.7237      46.7237 
  269000     129.7057   -10896.537   -9670.1528   -218.38786     102002.7      46.7237      46.7237      46.7237 
  270000    131.84909   -10872.749   -9626.0989   -161.35038     102002.7      46.7237      46.7237      46.7237 
  271000    131.85057   -10888.464   -9641.8002    -415.3163     102002.7      46.7237      46.7237      46.7237 
  272000    133.12819   -10840.682   -9581.9374    -94.17123     102002.7      46.7237      46.7237      46.7237 
  273000    128.32772   -10881.518    -9668.163   -195.66896     102002.7      46.7237      46.7237      46.7237 
  274000     132.5185   -10881.624   -9628.6444    -229.5792     102002.7      46.7237      46.7237      46.7237 
  275000    127.16169   -10898.393   -9696.0629   -7.8373487     102002.7      46.7237      46.7237      46.7237 
  276000    129.66585   -10869.067   -9643.0593   -157.55087     102002.7      46.7237      46.7237      46.7237 
  277000    127.76819   -10889.357   -9681.2917    276.06607     102002.7      46.7237      46.7237      46.7237 
  278000    130.27812   -10883.597   -9651.8005    178.21869     102002.7      46.7237      46.7237      46.7237 
  279000    128.39351   -10885.089   -9671.1118   -148.15751     102002.7      46.7237      46.7237      46.7237 
  280000    130.41087    -10895.21   -9662.1586   -149.07951     102002.7      46.7237      46.7237      46.7237 
  281000    130.46257   -10885.907   -9652.3664    128.04353     102002.7      46.7237      46.7237      46.7237 
  282000    133.17951   -10876.179   -9616.9494   -160.08736     102002.7      46.7237      46.7237      46.7237 
  283000    129.98388   -10862.223   -9633.2085    -160.5046     102002.7      46.7237      46.7237      46.7237 
  284000    128.86449   -10886.615   -9668.1848   -333.77826     102002.7      46.7237      46.7237      46.7237 
  285000    129.80048   -10905.639   -9678.3589   -119.77936     102002.7      46.7237      46.7237      46.7237 
  286000    130.58187    -10849.58   -9614.9112   0.55599008     102002.7      46.7237      46.7237      46.7237 
  287000    130.42018   -10908.664   -9675.5243   -177.13473     102002.7      46.7237      46.7237      46.7237 
  288000    126.67647    -10875.99   -9678.2477   -252.65576     102002.7      46.7237      46.7237      46.7237 
  289000     129.5603   -10883.011   -9658.0016    -79.45691     102002.7      46.7237      46.7237      46.7237 
  290000    126.90211   -10864.148   -9664.2722    469.39279     102002.7      46.7237      46.7237      46.7237 
  291000    128.97786    -10856.06   -9636.5579    245.56395     102002.7      46.7237      46.7237      46.7237 
  292000    132.09927   -10878.014   -9628.9985   -60.744274     102002.7      46.7237      46.7237      46.7237 
  293000    129.92387   -10850.044   -9621.5969   -39.942992     102002.7      46.7237      46.7237      46.7237 
  294000    129.51249    -10903.25   -9678.6926    -132.3764     102002.7      46.7237      46.7237      46.7237 
  295000    129.43166   -10923.628   -9699.8346    161.49935     102002.7      46.7237      46.7237      46.7237 
  296000    132.29449   -10888.263   -9637.4011     26.59207     102002.7      46.7237      46.7237      46.7237 
  297000    128.16483   -10889.737   -9677.9218   -156.63266     102002.7      46.7237      46.7237      46.7237 
  298000     128.9462    -10876.19   -9656.9871    355.33018     102002.7      46.7237      46.7237      46.7237 
  299000    132.12751   -10870.565   -9621.2828   -45.841596     102002.7      46.7237      46.7237      46.7237 
  300000    128.91629    -10880.29   -9661.3695    247.15615     102002.7      46.7237      46.7237      46.7237 
  301000     129.1025    -10887.54   -9666.8594   -77.190566     102002.7      46.7237      46.7237      46.7237 
  302000    128.77961   -10853.563   -9635.9354   -256.30549     102002.7      46.7237      46.7237      46.7237 
  303000    130.90906    -10874.42   -9636.6582   -162.30317     102002.7      46.7237      46.7237      46.7237 
  304000    132.36704   -10887.402   -9635.8546   -127.49121     102002.7      46.7237      46.7237      46.7237 
  305000    130.93767   -10886.532   -9648.4995   -308.22301     102002.7      46.7237      46.7237      46.7237 
  306000    129.11548    -10881.44   -9660.6368    279.33494     102002.7      46.7237      46.7237      46.7237 
  307000    129.30361   -10857.214   -9634.6314   -98.302899     102002.7      46.7237      46.7237      46.7237 
  308000    127.14279   -10876.424   -9674.2723    218.06766     102002.7      46.7237      46.7237      46.7237 
  309000    131.92144   -10879.135   -9631.8006    125.19362     102002.7      46.7237      46.7237      46.7237 
  310000    131.20723   -10866.877   -9626.2956   -27.503329     102002.7      46.7237      46.7237      46.7237 
  311000    129.23073   -10874.361   -9652.4674   -114.66642     102002.7      46.7237      46.7237      46.7237 
  312000    128.07234   -10882.321   -9671.3805   -65.826005     102002.7      46.7237      46.7237      46.7237 
  313000    129.86429   -10872.748   -9644.8639    207.02553     102002.7      46.7237      46.7237      46.7237 
  314000    130.23465   -10880.807   -9649.4212    201.03615     102002.7      46.7237      46.7237      46.7237 
  315000      127.487   -10878.378   -9672.9721    62.977526     102002.7      46.7237      46.7237      46.7237 
  316000    129.55379   -10871.539   -9646.5908    324.60835     102002.7      46.7237      46.7237      46.7237 
  317000    130.32172   -10890.766   -9658.5576    387.56492     102002.7      46.7237      46.7237      46.7237 
  318000    126.98467    -10900.04   -9699.3839   -55.144472     102002.7      46.7237      46.7237      46.7237 
  319000    130.22285   -10882.246   -9650.9718     89.63489     102002.7      46.7237      46.7237      46.7237 
  320000    128.87086   -10867.602   -9649.1113   -337.57765     102002.7      46.7237      46.7237      46.7237 
  321000    127.58481   -10902.102   -9695.7708   -345.38958     102002.7      46.7237      46.7237      46.7237 
  322000    127.71422   -10868.656   -9661.1016   -46.954645     102002.7      46.7237      46.7237      46.7237 
  323000     129.0795   -10889.154   -9668.6903   -422.13125     102002.7      46.7237      46.7237      46.7237 
  324000    128.93664    -10860.21    -9641.097    1.3907583     102002.7      46.7237      46.7237      46.7237 
  325000    129.95213   -10877.137   -9648.4232   -44.109803     102002.7      46.7237      46.7237      46.7237 
  326000    132.91859   -10863.963      -9607.2    163.82538     102002.7      46.7237      46.7237      46.7237 
  327000    131.56394    -10877.19   -9633.2359    9.7709717     102002.7      46.7237      46.7237      46.7237 
  328000    127.64854   -10872.162    -9665.229   -481.49331     102002.7      46.7237      46.7237      46.7237 
  329000    130.60794   -10877.772   -9642.8573   -397.31543     102002.7      46.7237      46.7237      46.7237 
  330000    129.07701   -10898.602   -9678.1621   -343.22686     102002.7      46.7237      46.7237      46.7237 
  331000    131.53435   -10870.046    -9626.372   -349.64501     102002.7      46.7237      46.7237      46.7237 
  332000     130.2012   -10871.652   -9640.5831   -158.00298     102002.7      46.7237      46.7237      46.7237 
  333000    131.46634   -10906.452   -9663.4212   -281.63568     102002.7      46.7237      46.7237      46.7237 
  334000    127.19521   -10895.562   -9692.9146   -182.81734     102002.7      46.7237      46.7237      46.7237 
  335000    127.53189   -10879.374   -9673.5433    7.5942035     102002.7      46.7237      46.7237      46.7237 
  336000    127.97428   -10889.683   -9679.6699   -184.20694     102002.7      46.7237      46.7237      46.7237 
  337000    130.46306   -10888.799    -9655.254   -135.32368     102002.7      46.7237      46.7237      46.7237 
  338000     131.2905   -10869.236   -9627.8677    91.665985     102002.7      46.7237      46.7237      46.7237 
  339000    127.86204   -10879.341   -9670.3887   -309.11113     102002.7      46.7237      46.7237      46.7237 
  340000    130.21225   -10870.594   -9639.4202     166.9397     102002.7      46.7237      46.7237      46.7237 
  341000    132.35009   -10867.395    -9616.008   -79.982265     102002.7      46.7237      46.7237      46.7237 
  342000    129.65054   -10876.916   -9651.0529   -58.925344     102002.7      46.7237      46.7237      46.7237 
  343000    130.48881   -10898.348    -9664.559    225.34849     102002.7      46.7237      46.7237      46.7237 
  344000    130.24947   -10871.215   -9639.6896     436.7815     102002.7      46.7237      46.7237      46.7237 
  345000     129.7436   -10914.174   -9687.4316   -149.52146     102002.7      46.7237      46.7237      46.7237 
  346000    133.31289   -10883.547   -9623.0559   -93.347538     102002.7      46.7237      46.7237      46.7237 
  347000    130.67569   -10872.674   -9637.1186     144.1688     102002.7      46.7237      46.7237      46.7237 
  348000    131.73565   -10860.149    -9614.571    273.37003     102002.7      46.7237      46.7237      46.7237 
  349000    129.88544   -10860.461   -9632.3778    49.466553     102002.7      46.7237      46.7237      46.7237 
  350000    129.02532   -10876.184   -9656.2329   -235.54522     102002.7      46.7237      46.7237      46.7237 
  351000    130.61947   -10908.251   -9673.2271   -216.37997     102002.7      46.7237      46.7237      46.7237 
  352000    131.50098   -10880.412   -9637.0536   -107.66251     102002.7      46.7237      46.7237      46.7237 
  353000    128.20733   -10897.984   -9685.7667    201.60103     102002.7      46.7237      46.7237      46.7237 
  354000    130.05827   -10850.662   -9620.9443   -376.85643     102002.7      46.7237      46.7237      46.7237 
  355000    131.24854   -10864.405   -9623.4327    -113.6318     102002.7      46.7237      46.7237      46.7237 
  356000    127.43156   -10867.347    -9662.465   -145.52414     102002.7      46.7237      46.7237      46.7237 
  357000    129.58288   -10883.334   -9658.1114     15.27702     102002.7      46.7237      46.7237      46.7237 
  358000    127.16483   -10897.692   -9695.3322    70.524555     102002.7      46.7237      46.7237      46.7237 
  359000     130.1612   -10898.588   -9667.8967   -27.428372     102002.7      46.7237      46.7237      46.7237 
  360000    129.67093   -10844.356   -9618.3008    231.38337     102002.7      46.7237      46.7237      46.7237 
  361000    130.65021   -10872.082   -9636.7669   -154.39827     102002.7      46.7237      46.7237      46.7237 
  362000    129.28683   -10879.215   -9656.7912    327.84028     102002.7      46.7237      46.7237      46.7237 
  363000    127.94746   -10854.893   -9645.1328     87.29733     102002.7      46.7237      46.7237      46.7237 
  364000    127.34164   -10896.257   -9692.2253    -324.3348     102002.7      46.7237      46.7237      46.7237 
  365000    129.40892   -10876.943   -9653.3651   -258.23197     102002.7      46.7237      46.7237      46.7237 
  366000    128.25215   -10885.185   -9672.5445   -56.665855     102002.7      46.7237      46.7237      46.7237 
  367000    133.41645    -10836.03   -9574.5599    25.405966     102002.7      46.7237      46.7237      46.7237 
  368000    127.63302   -10840.869   -9634.0824    172.29111     102002.7      46.7237      46.7237      46.7237 
  369000    130.41635   -10878.509   -9645.4057    5.9090472     102002.7      46.7237      46.7237      46.7237 
  370000    129.35275   -10873.027   -9649.9797   -23.732405     102002.7      46.7237      46.7237      46.7237 
  371000    133.27245   -10860.574   -9600.4657   -8.6574034     102002.7      46.7237      46.7237      46.7237 
  372000    129.04654   -10872.167   -9652.0151    -257.7016     102002.7      46.7237      46.7237      46.7237 
  373000    129.99391   -10870.611   -9641.5017   -13.032634     102002.7      46.7237      46.7237      46.7237 
  374000    129.13196   -10900.264   -9679.3042    101.03719     102002.7      46.7237      46.7237      46.7237 
  375000    131.44488   -10854.677    -9611.849   -12.760342     102002.7      46.7237      46.7237      46.7237 
  376000    129.79724   -10857.476   -9630.2262    46.674453     102002.7      46.7237      46.7237      46.7237 
  377000    129.11441   -10887.764   -9666.9704    469.38203     102002.7      46.7237      46.7237      46.7237 
  378000    131.42544   -10894.735   -9652.0908   -166.47369     102002.7      46.7237      46.7237      46.7237 
  379000    130.94582   -10863.815   -9625.7056    205.69131     102002.7      46.7237      46.7237      46.7237 
  380000     126.6344   -10856.332   -9658.9872    61.899887     102002.7      46.7237      46.7237      46.7237 
  381000    127.65779   -10882.282   -9675.2611   -89.334867     102002.7      46.7237      46.7237      46.7237 
  382000    130.00058   -10886.428   -9657.2557    9.7499207     102002.7      46.7237      46.7237      46.7237 
  383000    129.24063   -10885.096   -9663.1091   -175.11428     102002.7      46.7237      46.7237      46.7237 
  384000    127.48731   -10884.367   -9678.9579    100.09858     102002.7      46.7237      46.7237      46.7237 
  385000    128.08355   -10881.912   -9670.8653    -126.6631     102002.7      46.7237      46.7237      46.7237 
  386000    128.21315   -10881.579   -9669.3075   -20.767399     102002.7      46.7237      46.7237      46.7237 
  387000    132.54943   -10863.753   -9610.4807   -76.759398     102002.7      46.7237      46.7237      46.7237 
  388000    128.31827   -10890.692   -9677.4264   -270.65488     102002.7      46.7237      46.7237      46.7237 
  389000    134.24272   -10869.172     -9599.89    370.35974     102002.7      46.7237      46.7237      46.7237 
  390000    129.46911     -10866.2   -9642.0528    37.715346     102002.7      46.7237      46.7237      46.7237 
  391000    129.50783   -10887.674   -9663.1605   -26.712295     102002.7      46.7237      46.7237      46.7237 
  392000    128.61651     -10886.3   -9670.2143    21.750061     102002.7      46.7237      46.7237      46.7237 
  393000    129.56707   -10904.723     -9679.65   -4.5282503     102002.7      46.7237      46.7237      46.7237 
  394000    128.12191   -10880.322   -9668.9129    121.03751     102002.7      46.7237      46.7237      46.7237 
  395000    129.48885    -10900.18   -9675.8465    131.52053     102002.7      46.7237      46.7237      46.7237 
  396000    129.37471   -10844.482   -9621.2277   -38.634008     102002.7      46.7237      46.7237      46.7237 
  397000    131.88675    -10876.54   -9629.5333    382.32103     102002.7      46.7237      46.7237      46.7237 
  398000    126.25792   -10860.839   -9667.0544    100.45781     102002.7      46.7237      46.7237      46.7237 
  399000    130.73235   -10864.622   -9628.5308    110.81989     102002.7      46.7237      46.7237      46.7237 
  400000    131.57244    -10861.17    -9617.136   -110.80002     102002.7      46.7237      46.7237      46.7237 
  401000    130.01126   -10898.626    -9669.353   -249.42137     102002.7      46.7237      46.7237      46.7237 
  402000     128.8479   -10851.423   -9633.1498   -30.487957     102002.7      46.7237      46.7237      46.7237 
  403000    132.96271   -10894.748    -9637.568    157.43793     102002.7      46.7237      46.7237      46.7237 
  404000    127.20614   -10909.301   -9706.5507   -352.49021     102002.7      46.7237      46.7237      46.7237 
  405000    127.32356   -10894.477   -9690.6166    212.30551     102002.7      46.7237      46.7237      46.7237 
  406000     129.9073   -10862.687   -9634.3967    373.53271     102002.7      46.7237      46.7237      46.7237 
  407000    129.67032   -10865.937   -9639.8878    134.67811     102002.7      46.7237      46.7237      46.7237 
  408000    130.66094   -10851.029   -9615.6133    87.086876     102002.7      46.7237      46.7237      46.7237 
  409000    128.91859   -10919.987   -9701.0451   -12.726748     102002.7      46.7237      46.7237      46.7237 
  410000    130.77734   -10864.019   -9627.5019    32.792149     102002.7      46.7237      46.7237      46.7237 
  411000    131.97084   -10873.108   -9625.3067    270.80694     102002.7      46.7237      46.7237      46.7237 
  412000    130.28049   -10887.517   -9655.6983    79.012686     102002.7      46.7237      46.7237      46.7237 
  413000    131.05641   -10857.174    -9618.019    32.652666     102002.7      46.7237      46.7237      46.7237 
  414000    127.44827   -10904.534   -9699.4942     157.5943     102002.7      46.7237      46.7237      46.7237 
  415000     132.4971   -10867.813   -9615.0362    41.207983     102002.7      46.7237      46.7237      46.7237 
  416000    130.79992   -10883.252   -9646.5223   -149.78852     102002.7      46.7237      46.7237      46.7237 
  417000    128.56963    -10888.95   -9673.3071    205.03453     102002.7      46.7237      46.7237      46.7237 
  418000    130.00311   -10880.144   -9650.9482   -22.486101     102002.7      46.7237      46.7237      46.7237 
  419000    128.16812    -10865.61   -9653.7642      253.286     102002.7      46.7237      46.7237      46.7237 
  420000    128.88071   -10870.482   -9651.8979    147.44356     102002.7      46.7237      46.7237      46.7237 
  421000     131.5041   -10848.979   -9605.5905   -81.084534     102002.7      46.7237      46.7237      46.7237 
  422000    131.96642   -10868.992   -9621.2321    279.32913     102002.7      46.7237      46.7237      46.7237 
  423000    134.93677   -10876.685   -9600.8402    191.44038     102002.7      46.7237      46.7237      46.7237 
  424000     131.8267    -10854.19    -9607.751     71.11774     102002.7      46.7237      46.7237      46.7237 
  425000    128.31907   -10870.532   -9657.2589    48.085585     102002.7      46.7237      46.7237      46.7237 
  426000    131.07433   -10885.568   -9646.2432   -170.31025     102002.7      46.7237      46.7237      46.7237 
  427000     132.0588   -10882.103   -9633.4701    4.5834137     102002.7      46.7237      46.7237      46.7237 
  428000    131.98584   -10878.355   -9630.4115   -39.870171     102002.7      46.7237      46.7237      46.7237 
  429000     129.3212     -10910.9   -9688.1511   -383.71126     102002.7      46.7237      46.7237      46.7237 
  430000    128.32532   -10856.605   -9643.2725   -105.27132     102002.7      46.7237      46.7237      46.7237 
  431000    131.23586   -10886.829   -9645.9769   -20.859825     102002.7      46.7237      46.7237      46.7237 
  432000    127.38481   -10851.151   -9646.7109   -171.09224     102002.7      46.7237      46.7237      46.7237 
  433000    132.39376   -10870.313    -9618.513   -60.259502     102002.7      46.7237      46.7237      46.7237 
  434000    131.87919    -10878.61   -9631.6748    138.26582     102002.7      46.7237      46.7237      46.7237 
  435000     129.5965   -10864.355   -9639.0037   -131.09308     102002.7      46.7237      46.7237      46.7237 
  436000    128.15035   -10882.306   -9670.6275    414.38869     102002.7      46.7237      46.7237      46.7237 
  437000     128.9857   -10905.466   -9685.8893    201.64066     102002.7      46.7237      46.7237      46.7237 
  438000     129.1428   -10901.429   -9680.3668    105.83121     102002.7      46.7237      46.7237      46.7237 
  439000     127.7781   -10902.661   -9694.5028     155.1362     102002.7      46.7237      46.7237      46.7237 
  440000     131.5064   -10909.988   -9666.5777   -231.61994     102002.7      46.7237      46.7237      46.7237 
  441000    129.03264   -10874.888   -9654.8674   -95.029699     102002.7      46.7237      46.7237      46.7237 
  442000    129.14343    -10902.92   -9681.8524   -226.33478     102002.7      46.7237      46.7237      46.7237 
  443000     131.4506   -10890.175   -9647.2925   -131.43137     102002.7      46.7237      46.7237      46.7237 
  444000    133.01093    -10883.91   -9626.2743    16.899603     102002.7      46.7237      46.7237      46.7237 
  445000    127.58109   -10866.407   -9660.1111    26.011783     102002.7      46.7237      46.7237      46.7237 
  446000    127.78697   -10868.178   -9659.9354    40.294362     102002.7      46.7237      46.7237      46.7237 
  447000    130.28977    -10870.25   -9638.3435   -80.302889     102002.7      46.7237      46.7237      46.7237 
  448000    131.87069   -10860.227   -9613.3724   -44.300461     102002.7      46.7237      46.7237      46.7237 
  449000    132.27311   -10893.903   -9643.2432   -182.31029     102002.7      46.7237      46.7237      46.7237 
  450000    131.25792    -10896.32   -9655.2598      108.366     102002.7      46.7237      46.7237      46.7237 
  451000    131.27043   -10860.006   -9618.8266    248.32212     102002.7      46.7237      46.7237      46.7237 
  452000    132.58539   -10896.902   -9643.2895   -336.08208     102002.7      46.7237      46.7237      46.7237 
  453000    128.72891   -10883.104   -9665.9554    260.78663     102002.7      46.7237      46.7237      46.7237 
  454000    130.30327   -10894.781    -9662.747    78.601177     102002.7      46.7237      46.7237      46.7237 
  455000    134.47719   -10892.216   -9620.7166   -40.191534     102002.7      46.7237      46.7237      46.7237 
  456000    128.20334   -10882.817   -9670.6382    180.80091     102002.7      46.7237      46.7237      46.7237 
  457000    132.13291   -10893.166   -9643.8323    47.272868     102002.7      46.7237      46.7237      46.7237 
  458000     130.9468   -10879.807   -9641.6883   -63.592583     102002.7      46.7237      46.7237      46.7237 
  459000    130.80331   -10885.853    -9649.091    241.52702     102002.7      46.7237      46.7237      46.7237 
  460000    129.51662   -10877.905   -9653.3088   -42.611172     102002.7      46.7237      46.7237      46.7237 
  461000    127.35027   -10860.874   -9656.7606   -166.75259     102002.7      46.7237      46.7237      46.7237 
  462000    128.67407   -10906.853   -9690.2227   -312.60616     102002.7      46.7237      46.7237      46.7237 
  463000    127.06738   -10877.938      -9676.5   -153.56227     102002.7      46.7237      46.7237      46.7237 
  464000    132.81896   -10880.437   -9624.6168    133.17358     102002.7      46.7237      46.7237      46.7237 
  465000    125.45207   -10880.367   -9694.2017   -227.49638     102002.7      46.7237      46.7237      46.7237 
  466000    130.16966    -10914.66   -9683.8895   -34.421142     102002.7      46.7237      46.7237      46.7237 
  467000    134.76375   -10909.079   -9634.8706     199.8802     102002.7      46.7237      46.7237      46.7237 
  468000    129.57494   -10886.721   -9661.5732    290.78496     102002.7      46.7237      46.7237      46.7237 
  469000     130.4005    -10875.98   -9643.0264    223.70552     102002.7      46.7237      46.7237      46.7237 
  470000     130.3573   -10901.481   -9668.9362    159.36897     102002.7      46.7237      46.7237      46.7237 
  471000    128.38874    -10899.89   -9685.9583   -35.192509     102002.7      46.7237      46.7237      46.7237 
  472000    129.16819   -10875.775    -9654.473    181.92284     102002.7      46.7237      46.7237      46.7237 
  473000    129.52279   -10871.014   -9646.3593    48.661986     102002.7      46.7237      46.7237      46.7237 
  474000    126.95929   -10887.106   -9686.6893     104.4992     102002.7      46.7237      46.7237      46.7237 
  475000    133.71889   -10882.131   -9617.8018   -77.629043     102002.7      46.7237      46.7237      46.7237 
  476000    130.46078   -10877.209   -9643.6856   -28.700055     102002.7      46.7237      46.7237      46.7237 
  477000    128.95283   -10892.156   -9672.8898   -141.62474     102002.7      46.7237      46.7237      46.7237 
  478000    132.29054   -10856.574   -9605.7502   -310.81823     102002.7      46.7237      46.7237      46.7237 
  479000    128.62061   -10886.192   -9670.0679    248.14961     102002.7      46.7237      46.7237      46.7237 
  480000    130.85067   -10834.877   -9597.6668   -39.773444     102002.7      46.7237      46.7237      46.7237 
  481000    127.97824   -10884.299    -9674.248   -350.78358     102002.7      46.7237      46.7237      46.7237 
  482000    128.55069    -10910.94   -9695.4765    44.495077     102002.7      46.7237      46.7237      46.7237 
  483000    129.69392   -10892.989   -9666.7162    88.809462     102002.7      46.7237      46.7237      46.7237 
  484000    130.69467   -10884.982   -9649.2474   -39.336699     102002.7      46.7237      46.7237      46.7237 
  485000    131.52111   -10873.671   -9630.1221   -141.50198     102002.7      46.7237      46.7237      46.7237 
  486000    131.79764   -10891.939   -9645.7754   -24.669321     102002.7      46.7237      46.7237      46.7237 
  487000    129.07201    -10906.58   -9686.1872   -86.766383     102002.7      46.7237      46.7237      46.7237 
  488000    128.03875   -10866.256   -9655.6326    33.510814     102002.7      46.7237      46.7237      46.7237 
  489000    133.46482   -10883.791    -9621.864   -1.4172853     102002.7      46.7237      46.7237      46.7237 
  490000    130.34835   -10899.622   -9667.1616    31.578582     102002.7      46.7237      46.7237      46.7237 
  491000    131.78893   -10896.282   -9650.2004    154.65122     102002.7      46.7237      46.7237      46.7237 
  492000    126.51851   -10905.808   -9709.5592   -95.753733     102002.7      46.7237      46.7237      46.7237 
  493000    130.84439   -10911.755   -9674.6047    148.59249     102002.7      46.7237      46.7237      46.7237 
  494000    132.55174   -10891.063   -9637.7691   -17.478775     102002.7      46.7237      46.7237      46.7237 
  495000    126.76996   -10889.784   -9691.1573    56.184939     102002.7      46.7237      46.7237      46.7237 
  496000    126.86923    -10894.78   -9695.2154  -0.29065445     102002.7      46.7237      46.7237      46.7237 
  497000    131.56437   -10873.771   -9629.8129     130.2435     102002.7      46.7237      46.7237      46.7237 
  498000    131.62138    -10836.72   -9592.2232    176.20172     102002.7      46.7237      46.7237      46.7237 
  499000    129.04256   -10874.607    -9654.493   -255.03372     102002.7      46.7237      46.7237      46.7237 
  500000     129.8159   -10881.592   -9654.1659    164.98456     102002.7      46.7237      46.7237      46.7237 
  500500    127.77849   -10897.676   -9689.5137    335.98094     102002.7      46.7237      46.7237      46.7237 
Loop time of 1785.09 on 16 procs for 500000 steps with 3173 atoms

Performance: 24.200 ns/day, 0.992 hours/ns, 280.098 timesteps/s
99.8% CPU use with 16 MPI tasks x no OpenMP threads

MPI task timing breakdown:
Section |  min time  |  avg time  |  max time  |%varavg| %total
---------------------------------------------------------------
Pair    | 1023       | 1149.5     | 1311.3     | 232.1 | 64.40
Bond    | 130.76     | 174.58     | 217.62     | 249.9 |  9.78
Neigh   | 17.628     | 17.655     | 17.685     |   0.4 |  0.99
Comm    | 225.65     | 425.7      | 552.12     | 448.0 | 23.85
Output  | 0.021683   | 0.022159   | 0.026151   |   0.7 |  0.00
Modify  | 9.6892     | 10.689     | 11.8       |  21.1 |  0.60
Other   |            | 6.902      |            |       |  0.39

Nlocal:    198.312 ave 242 max 163 min
Histogram: 2 2 2 2 1 1 1 2 2 1
Nghost:    4033.44 ave 4085 max 3990 min
Histogram: 4 2 0 0 2 1 3 1 2 1
Neighs:    11462.9 ave 14895 max 7644 min
Histogram: 1 0 2 3 0 4 1 2 2 1

Total # of neighbors = 183406
Ave neighs/atom = 57.8021
Ave special neighs/atom = 3.63063
Neighbor list builds = 5158
Dangerous builds = 0
Neighbor list info ...
  update every 1 steps, delay 10 steps, check yes
  max neighbors/atom: 2000, page size: 100000
  master list distance cutoff = 16
  ghost atom cutoff = 16
  binsize = 8, bins = 6 6 6
  3 neighbor lists, perpetual/occasional/extra = 3 0 0
  (1) pair buck6d/coul/gauss/dsf, perpetual, skip from (3)
      attributes: half, newton on
      pair build: skip
      stencil: none
      bin: none
  (2) pair lj/cut, perpetual, skip from (3)
      attributes: half, newton on
      pair build: skip
      stencil: none
      bin: none
  (3) neighbor class addition, perpetual
      attributes: half, newton on
      pair build: half/bin/newton
      stencil: half/bin/3d/newton
      bin: standard
Setting up Verlet run ...
  Unit style    : real
  Current step  : 500500
  Time step     : 1
WARNING: Inconsistent image flags (../domain.cpp:786)
Per MPI rank memory allocation (min/avg/max) = 22.66 | 23.19 | 23.44 Mbytes
Step Time TotEng KinEng PotEng E_mol E_pair Temp Pxx Pyy Pzz Pxy Pxz Pyz Cella Cellb Cellc CellAlpha CellBeta CellGamma Volume Press 
  500500       500000   -9689.5137    1208.1622   -10897.676     4355.168   -15252.844    127.77849     404.8098     38.30848    564.82454   -22.480245    -128.8615   -106.65758      46.7237      46.7237      46.7237           90           90           90     102002.7    335.98094 
  501000       500500   -9644.9997    1256.0034   -10901.003    4355.7842   -15256.787    132.83831     413.7114   -311.24362   -502.17871    355.58152     200.0372    127.20618      46.7237      46.7237      46.7237           90           90           90     102002.7   -133.23697 
  502000       501500   -9661.4467    1229.6085   -10891.055     4371.311   -15262.366    130.04671    -134.6886     129.7259     150.7388    130.61338    123.48644    91.755451      46.7237      46.7237      46.7237           90           90           90     102002.7    48.592036 
  503000       502500   -9622.2583    1256.1659   -10878.424    4384.3481   -15262.772     132.8555    116.47542   -206.26006    75.459536    134.15991   -229.77935   -184.90134      46.7237      46.7237      46.7237           90           90           90     102002.7   -4.7750357 
  504000       503500   -9609.7898    1274.8582   -10884.648    4373.8501   -15258.498    134.83244    146.21943    74.275224   -67.779948    428.50587   -70.369434    94.328964      46.7237      46.7237      46.7237           90           90           90     102002.7    50.904902 
  505000       504500   -9642.5266    1247.4861   -10890.013    4375.5924   -15265.605    131.93749    245.37906   -30.280762   -71.760703   -198.32692    125.92972   -188.67485      46.7237      46.7237      46.7237           90           90           90     102002.7    47.779198 
  506000       505500   -9652.3157     1211.582   -10863.898    4392.3164   -15256.214    128.14018    112.93838    -128.7431    38.903601   -327.86051   -77.307763   -133.89799      46.7237      46.7237      46.7237           90           90           90     102002.7    7.6996267 
  507000       506500   -9640.3035    1239.1296   -10879.433    4391.6977   -15271.131    131.05368   -355.94092    244.50967   -87.925655   -543.67026   -169.20368    263.01304      46.7237      46.7237      46.7237           90           90           90     102002.7   -66.452302 
  508000       507500   -9682.9157    1194.8906   -10877.806    4389.9848   -15267.791    126.37485    116.84393   -70.479156    39.043736    71.390028   -209.17516    115.87881      46.7237      46.7237      46.7237           90           90           90     102002.7    28.469504 
  509000       508500   -9669.5371    1219.5342   -10889.071    4381.8007   -15270.872    128.98123   -155.33758     153.6875   -188.10566     192.8592    175.50927    143.15354      46.7237      46.7237      46.7237           90           90           90     102002.7   -63.251916 
  510000       509500   -9626.2656    1251.6875   -10877.953    4375.6523   -15253.605    132.38185    341.30353    21.774276    4.5581893    271.08952    185.71038    119.91136      46.7237      46.7237      46.7237           90           90           90     102002.7    122.54533 
  511000       510500   -9688.1327    1215.8934   -10904.026      4372.05   -15276.076    128.59616   -51.686728    122.93078    282.01924    72.184717   -68.570742    34.540638      46.7237      46.7237      46.7237           90           90           90     102002.7    117.75443 
  512000       511500   -9645.0968      1203.75   -10848.847    4397.1155   -15245.962    127.31184    156.77185   -417.17458    135.89502   -188.38664   -7.7256968    185.32636      46.7237      46.7237      46.7237           90           90           90     102002.7   -41.502569 
  513000       512500   -9675.1672    1218.6776   -10893.845    4371.8306   -15265.675    128.89063   -59.502574   -227.87312    424.78069    68.067081   -235.90325    221.74004      46.7237      46.7237      46.7237           90           90           90     102002.7    45.801668 
  514000       513500   -9608.2785    1275.3298   -10883.608    4388.1298   -15271.738    134.88232   -91.356867   -69.097047    286.77882   -147.23759   -43.297193   -96.568441      46.7237      46.7237      46.7237           90           90           90     102002.7      42.1083 
  515000       514500   -9643.6864    1242.4645   -10886.151    4357.8633   -15244.014     131.4064   -237.93584   -94.627406   -59.134691    84.178961   -46.845288   -127.75316      46.7237      46.7237      46.7237           90           90           90     102002.7   -130.56598 
  516000       515500   -9686.1345    1199.3594   -10885.494    4379.0081   -15264.502    126.84748    279.44645   -283.27101   -2.6413487    154.45459    21.991721   -58.692534      46.7237      46.7237      46.7237           90           90           90     102002.7   -2.1553037 
  517000       516500   -9623.2443    1242.1445   -10865.389     4426.838   -15292.227    131.37255   -101.13202   -500.84004   -90.370752     71.05975    40.703202    371.65883      46.7237      46.7237      46.7237           90           90           90     102002.7   -230.78094 
  518000       517500    -9658.286    1238.1485   -10896.434    4371.5639   -15267.998    130.94992   -564.00169   -25.710056   -155.65438    0.1197382    31.162188    225.46344      46.7237      46.7237      46.7237           90           90           90     102002.7   -248.45538 
  519000       518500   -9623.3195    1225.1125   -10848.432    4425.1501   -15273.582     129.5712    322.07394   -397.06238    72.539575   -75.318778    110.77407   -310.22707      46.7237      46.7237      46.7237           90           90           90     102002.7  -0.81628872 
  520000       519500   -9630.0751     1234.075    -10864.15    4395.4857   -15259.636     130.5191   -20.819972   -158.12187   -122.40906   -31.927589   -103.24856    243.47737      46.7237      46.7237      46.7237           90           90           90     102002.7    -100.4503 
  521000       520500   -9625.8466    1246.6361   -10872.483    4416.7088   -15289.191    131.84759   -148.98786   -34.546288    138.98556   -32.303624    227.85406    239.61678      46.7237      46.7237      46.7237           90           90           90     102002.7   -14.849532 
  522000       521500   -9642.7285    1223.6637   -10866.392    4392.7331   -15259.125    129.41797    145.60487    -407.2862    178.49259    93.032027     -74.1416   -327.29912      46.7237      46.7237      46.7237           90           90           90     102002.7   -27.729583 
  523000       522500    -9643.181     1229.577   -10872.758    4392.9543   -15265.712    130.04338   -248.14484     372.9435    161.40932   -17.876432    -182.2654   -293.97197      46.7237      46.7237      46.7237           90           90           90     102002.7    95.402662 
  524000       523500   -9658.9144     1240.511   -10899.425    4369.5086   -15268.934    131.19979    73.397175   -153.86533    264.69188   -53.694932    47.638035    106.39138      46.7237      46.7237      46.7237           90           90           90     102002.7    61.407906 
  525000       524500   -9673.1942    1229.2025   -10902.397    4377.7305   -15280.127    130.00377   -906.82159    250.50671   -214.42838   -201.03798    -59.63561    7.6543601      46.7237      46.7237      46.7237           90           90           90     102002.7   -290.24776 
  526000       525500   -9666.9802    1217.6034   -10884.584    4377.9565    -15262.54    128.77702   -228.98405    77.886014   -65.313163    188.26156    107.86248    344.76236      46.7237      46.7237      46.7237           90           90           90     102002.7   -72.137066 
  527000       526500   -9663.6113    1237.4543   -10901.066    4347.2751   -15248.341    130.87651    79.986365   -374.41474    287.01169     62.25314    74.909477    16.225695      46.7237      46.7237      46.7237           90           90           90     102002.7   -2.4722302 
  528000       527500   -9697.6739    1219.9872   -10917.661    4369.6289    -15287.29    129.02914   -198.65148   -3.2323355   -463.33605    197.61777   -107.47748   -146.36782      46.7237      46.7237      46.7237           90           90           90     102002.7   -221.73996 
  529000       528500   -9656.9423     1216.903   -10873.845    4392.6298   -15266.475    128.70295   -475.80989   -112.81624    207.66266   -50.464028    26.410066   -292.20511      46.7237      46.7237      46.7237           90           90           90     102002.7   -126.98782 
  530000       529500   -9691.9971    1209.1403   -10901.137    4372.9761   -15274.113    127.88194    117.15208   -174.46493   -748.89317   -20.261018   -36.963038   -132.40246      46.7237      46.7237      46.7237           90           90           90     102002.7   -268.73534 
  531000       530500   -9626.5629    1250.8748   -10877.438    4382.3797   -15259.817    132.29589   -72.013167   -75.257155    227.00631   -92.694356   -118.39408   -84.952029      46.7237      46.7237      46.7237           90           90           90     102002.7    26.578663 
  532000       531500   -9660.1984    1215.5487   -10875.747    4391.1606   -15266.908    128.55971    255.16952   -135.45565   -238.68006    118.56568   -30.086443    161.81319      46.7237      46.7237      46.7237           90           90           90     102002.7   -39.655398 
  533000       532500   -9707.9919    1195.9133   -10903.905     4369.915    -15273.82    126.48302    171.60484   -180.50441    56.832586    236.54392   -33.212394    330.08607      46.7237      46.7237      46.7237           90           90           90     102002.7    15.977669 
  534000       533500   -9677.0994     1224.687   -10901.786    4356.1315   -15257.918     129.5262    471.24527    105.12664   -510.51934   -54.142878    280.25837    72.600198      46.7237      46.7237      46.7237           90           90           90     102002.7    21.950855 
  535000       534500   -9606.5436     1260.582   -10867.126    4408.7842    -15275.91    133.32255    -432.1705   -185.90712   -65.896806    54.537661    166.09223   -113.38801      46.7237      46.7237      46.7237           90           90           90     102002.7   -227.99148 
  536000       535500   -9653.6872    1241.1127     -10894.8    4386.9037   -15281.704    131.26343   -257.12781   -365.50882    20.061947    210.61348   -330.32447    68.637022      46.7237      46.7237      46.7237           90           90           90     102002.7   -200.85823 
  537000       536500    -9639.649    1233.3324   -10872.981    4367.8146   -15240.796    130.44057   -76.728833   -162.07058    40.514308   -196.97561    154.35603   -124.67809      46.7237      46.7237      46.7237           90           90           90     102002.7   -66.095034 
  538000       537500   -9691.9856    1209.0047    -10900.99    4372.9831   -15273.973     127.8676   -402.26424   -230.26331   -80.927637   -35.543449    115.98262   -284.69587      46.7237      46.7237      46.7237           90           90           90     102002.7    -237.8184 
  539000       538500   -9632.3151    1231.9718   -10864.287    4388.0086   -15252.296    130.29666    -315.7082    125.10824    385.91934   -199.78559     203.4146    249.71538      46.7237      46.7237      46.7237           90           90           90     102002.7    65.106459 
  540000       539500   -9660.9972    1232.3213   -10893.318    4368.4479   -15261.766    130.33362   -500.25573   -28.638574    -224.9685    73.366054   -135.33256    57.724806      46.7237      46.7237      46.7237           90           90           90     102002.7    -251.2876 
  541000       540500   -9660.3251    1234.7291   -10895.054    4390.1212   -15285.175    130.58829   -242.83483       204.82    146.39119    21.839399    111.91755    39.043049      46.7237      46.7237      46.7237           90           90           90     102002.7    36.125454 
  542000       541500   -9629.5089    1231.4121   -10860.921    4386.9376   -15247.859    130.23746   -381.73195   -215.95592   -64.602615    278.85667    54.397347   -41.071183      46.7237      46.7237      46.7237           90           90           90     102002.7    -220.7635 
  543000       542500   -9662.3051    1214.6548    -10876.96    4390.3834   -15267.343    128.46517    119.98418    88.992867    152.43011   -273.25667    111.39143   -119.38023      46.7237      46.7237      46.7237           90           90           90     102002.7    120.46905 
  544000       543500   -9656.6858    1218.5129   -10875.199    4384.4577   -15259.656    128.87321   -145.98887    482.08931    497.18903    18.636379   -349.77998     -23.9894      46.7237      46.7237      46.7237           90           90           90     102002.7    277.76316 
  545000       544500   -9659.5808    1227.1835   -10886.764    4365.1675   -15251.932    129.79024    471.18937   -168.78417   -104.03268    7.3017288   -227.35732   -272.83467      46.7237      46.7237      46.7237           90           90           90     102002.7    66.124172 
  546000       545500   -9664.5693     1214.147   -10878.716    4391.9151   -15270.631    128.41147   -418.96791    -354.8879    314.67509   -86.925518   -249.04985    124.72951      46.7237      46.7237      46.7237           90           90           90     102002.7   -153.06024 
  547000       546500   -9650.6292    1226.2047   -10876.834    4386.0757    -15262.91    129.68672   -209.06097    426.52402   -61.447323   -8.9502744     139.3602    49.535434      46.7237      46.7237      46.7237           90           90           90     102002.7    52.005241 
  548000       547500   -9724.9263    1220.6666   -10945.593    4339.1753   -15284.768      129.101    90.855518    142.28958   -269.30375   -47.650102   -97.788391   -286.62987      46.7237      46.7237      46.7237           90           90           90     102002.7   -12.052884 
  549000       548500   -9682.1302    1208.9243   -10891.054    4373.7946   -15264.849    127.85909    81.861872    70.485101    181.48976    18.332578    232.41262    49.577729      46.7237      46.7237      46.7237           90           90           90     102002.7    111.27891 
  550000       549500   -9692.4209     1229.092   -10921.513    4340.4521   -15261.965    129.99208    -260.0732   -111.50201   -46.497734   -148.02922    33.079201    235.80158      46.7237      46.7237      46.7237           90           90           90     102002.7   -139.35765 
  551000       550500   -9648.3293    1222.0517   -10870.381    4390.1577   -15260.539    129.24748    166.89157   -137.98703   -383.23146   -150.78224     135.2285    144.78424      46.7237      46.7237      46.7237           90           90           90     102002.7   -118.10897 
  552000       551500   -9633.2041    1237.8924   -10871.097     4378.465   -15249.562    130.92284   -431.95258    331.55135    207.22591    29.950201    262.12432    244.81101      46.7237      46.7237      46.7237           90           90           90     102002.7    35.608227 
  553000       552500   -9658.4954    1216.9112   -10875.407    4383.6489   -15259.056    128.70381   -40.509136    239.11166    431.70527    397.84531   -196.53982    102.47177      46.7237      46.7237      46.7237           90           90           90     102002.7     210.1026 
  554000       553500    -9673.423    1216.7466    -10890.17    4340.2791   -15230.449     128.6864   -285.82983     377.1969    -18.83855   -106.22843   -265.23887    375.09596      46.7237      46.7237      46.7237           90           90           90     102002.7    24.176172 
  555000       554500   -9630.6199    1246.6661   -10877.286    4382.0013   -15259.287    131.85077   -79.915569    324.48728    147.14484     147.1483    92.394101   -30.884949      46.7237      46.7237      46.7237           90           90           90     102002.7    130.57218 
[...]
  936000       935500   -9647.4006    1213.3587   -10860.759    4391.6964   -15252.456    128.32809    -299.3452    159.11577   -25.870246    -103.0491      21.3093    -74.90689      46.7237      46.7237      46.7237           90           90           90     102002.7   -55.366557 
  937000       936500   -9638.2531    1219.4897   -10857.743    4409.3785   -15267.121    128.97652    -57.85684    254.30732   -155.16589   -3.0799611    183.25653    44.959518      46.7237      46.7237      46.7237           90           90           90     102002.7    13.761529 
  938000       937500    -9643.998    1229.1446   -10873.143     4375.885   -15249.028    129.99765   -458.72999     382.7988   -132.85664   -197.54396    142.22484    9.9518738      46.7237      46.7237      46.7237           90           90           90     102002.7   -69.595942 
  939000       938500   -9676.2412    1209.5516   -10885.793    4398.4139   -15284.207    127.92545    -368.6412    157.76206   -337.83196    26.802309    -211.1458   -47.297864      46.7237      46.7237      46.7237           90           90           90     102002.7    -182.9037 
  940000       939500   -9650.7192    1247.2693   -10897.988    4364.8804   -15262.869    131.91456   -157.82806    131.51428   -298.12699   -49.992242    44.528978    11.933123      46.7237      46.7237      46.7237           90           90           90     102002.7   -108.14692 
  941000       940500   -9610.7039     1264.643   -10875.347    4405.7513   -15281.098    133.75205   -148.10748    117.21113   -373.59824   -76.343367     225.6408    198.46117      46.7237      46.7237      46.7237           90           90           90     102002.7   -134.83153 
  942000       941500   -9668.3444    1207.8645   -10876.209    4366.5943   -15242.803    127.74701    -188.7511   -322.86978    303.89758    111.82124   -34.700619    20.574285      46.7237      46.7237      46.7237           90           90           90     102002.7   -69.241103 
  943000       942500   -9645.9276    1215.7166   -10861.644    4363.7915   -15225.436    128.57747    296.42037   -4.7802538   -132.95464    -105.8882    19.914694   -190.55034      46.7237      46.7237      46.7237           90           90           90     102002.7    52.895158 
  944000       943500   -9617.8359    1256.0673   -10873.903    4372.9498   -15246.853    132.84507   -791.23219    -334.9419   -241.27664   -359.04836   -5.9221096   -12.193492      46.7237      46.7237      46.7237           90           90           90     102002.7   -455.81691 
  945000       944500   -9676.9384    1222.7909   -10899.729    4361.4007    -15261.13    129.32567   -915.37335   -249.05799     418.3397    44.705073   -11.270507    149.86943      46.7237      46.7237      46.7237           90           90           90     102002.7   -248.69721 
  946000       945500   -9638.4007    1239.6351   -10878.036    4363.7022   -15241.738    131.10715    56.862329   -277.03692   -18.480768   -23.250909    63.823571    168.12057      46.7237      46.7237      46.7237           90           90           90     102002.7   -79.551785 
  947000       946500   -9658.9905    1223.7596    -10882.75    4408.4267   -15291.177    129.42812   -236.25494   -449.73406   -695.82032   -243.32632   -402.39931   -266.33814      46.7237      46.7237      46.7237           90           90           90     102002.7    -460.6031 
  948000       947500   -9653.8604    1212.9689   -10866.829     4386.391    -15253.22    128.28686   -102.52793   -84.469466    -48.74962   -44.275886    75.746955   -145.99822      46.7237      46.7237      46.7237           90           90           90     102002.7   -78.582339 
  949000       948500    -9635.408    1238.6983   -10874.106    4396.0964   -15270.203    131.00808   -526.84577   -130.37429   -143.59916   -22.375436   -40.115653    221.55003      46.7237      46.7237      46.7237           90           90           90     102002.7   -266.93974 
  950000       949500   -9652.9886    1220.4844   -10873.473    4398.6422   -15272.115    129.08173   -114.95715    69.842476    68.907007   -155.75404   -333.95316   -60.139881      46.7237      46.7237      46.7237           90           90           90     102002.7    7.9307789 
  951000       950500   -9640.0635    1222.1447   -10862.208    4384.4875   -15246.696    129.25732   -117.65121   -279.90612    245.32187    37.707476   -206.93885    85.952986      46.7237      46.7237      46.7237           90           90           90     102002.7   -50.745154 
  952000       951500    -9618.138    1244.0618     -10862.2    4401.2039   -15263.404    131.57534   -688.93462      287.744    70.036052   -80.773182   -58.188417    19.887912      46.7237      46.7237      46.7237           90           90           90     102002.7   -110.38486 
  953000       952500    -9633.566    1220.2786   -10853.845    4403.0312   -15256.876    129.05996    350.92779    716.75942    44.138167    -109.4287    158.20255    168.55354      46.7237      46.7237      46.7237           90           90           90     102002.7    370.60846 
  954000       953500   -9694.3206    1232.3498    -10926.67    4337.2936   -15263.964    130.33664    78.168895   -200.19201   -177.56137   -226.91056    405.61678     272.1119      46.7237      46.7237      46.7237           90           90           90     102002.7   -99.861495 
  955000       954500   -9622.4298    1249.8379   -10872.268    4388.0791   -15260.347    132.18623    559.27296    329.23768    191.98343    82.037402    340.31632    271.57751      46.7237      46.7237      46.7237           90           90           90     102002.7    360.16469 
  956000       955500    -9633.974    1234.6015   -10868.576    4398.9805   -15267.556    130.57479    -305.6764    76.004693    -156.5732   -20.057128    252.89314   -113.59809      46.7237      46.7237      46.7237           90           90           90     102002.7    -128.7483 
  957000       956500   -9694.3248    1206.8595   -10901.184    4345.7455    -15246.93    127.64071    70.946924    447.66371     154.6639    171.98267   -20.751143   -135.45922      46.7237      46.7237      46.7237           90           90           90     102002.7    224.42485 
  958000       957500   -9633.2217    1216.3905   -10849.612    4383.7634   -15233.376    128.64874    347.09048     3.485296    532.82987   -314.74875   -280.68277    141.61451      46.7237      46.7237      46.7237           90           90           90     102002.7    294.46855 
  959000       958500   -9644.9423    1228.9018   -10873.844    4383.5535   -15257.398    129.97197   -121.01192   -219.51517    -108.7756   -218.08294    244.49298   -335.32365      46.7237      46.7237      46.7237           90           90           90     102002.7   -149.76756 
  960000       959500   -9610.5791    1267.6897   -10878.269    4372.0718   -15250.341    134.07429    56.731866    173.05689    318.70162    161.94339    57.962009   -96.576393      46.7237      46.7237      46.7237           90           90           90     102002.7    182.83013 
  961000       960500   -9644.8759    1241.0305   -10885.906    4382.1111   -15268.017    131.25473    124.69573    644.77157   -198.33886    46.763749    71.990345    213.66869      46.7237      46.7237      46.7237           90           90           90     102002.7    190.37614 
  962000       961500   -9679.8907    1222.6383   -10902.529    4361.1385   -15263.667    129.30952   -345.75632    78.107647    160.89071   -97.237273   -27.894089    62.925511      46.7237      46.7237      46.7237           90           90           90     102002.7   -35.585988 
  963000       962500   -9635.9365    1226.8099   -10862.746    4406.4332    -15269.18    129.75073   -58.165799   -240.72061   -400.23456   -146.54926    -83.88544   -82.388827      46.7237      46.7237      46.7237           90           90           90     102002.7   -233.04032 
  964000       963500   -9677.1179      1227.33   -10904.448    4372.7869   -15277.235    129.80573    257.35043    -407.7669    46.010634     29.72533   -304.41924   -26.786262      46.7237      46.7237      46.7237           90           90           90     102002.7   -34.801946 
  965000       964500   -9667.8897    1229.9669   -10897.857    4379.2994   -15277.156    130.08462   -35.644726   -252.10099   -308.67242    106.09219    67.805182     67.12257      46.7237      46.7237      46.7237           90           90           90     102002.7   -198.80604 
  966000       965500   -9639.1484    1222.7657   -10861.914    4373.7629   -15235.677      129.323    306.49051    60.981722    154.31523    55.531265   -48.432269   -79.067566      46.7237      46.7237      46.7237           90           90           90     102002.7    173.92916 
  967000       966500   -9668.1184    1212.1605   -10880.279    4380.4248   -15260.704    128.20137    39.223652   -54.937864    191.69095    56.199544   -267.88428   -5.4892818      46.7237      46.7237      46.7237           90           90           90     102002.7    58.658913 
  968000       967500   -9676.0156    1197.8502   -10873.866    4366.2803   -15240.146    126.68787    101.80446    153.62646   -27.760975   -41.803042    -161.4821    127.58492      46.7237      46.7237      46.7237           90           90           90     102002.7    75.889982 
  969000       968500   -9630.4495    1235.6108    -10866.06    4392.9131   -15258.973    130.68153    491.75275    430.05567     139.5825    51.465719   -317.34241    199.51955      46.7237      46.7237      46.7237           90           90           90     102002.7    353.79697 
  970000       969500   -9666.5285    1226.7697   -10893.298    4368.1813    -15261.48    129.74648   -13.368646    350.21495   -112.49929    73.525574   -176.21191   -156.33693      46.7237      46.7237      46.7237           90           90           90     102002.7    74.782338 
  971000       970500   -9701.4996    1189.0051   -10890.505     4389.956   -15280.461    125.75239    528.17315     350.4521   -376.32854    28.093662   -54.058607    25.402408      46.7237      46.7237      46.7237           90           90           90     102002.7    167.43224 
  972000       971500   -9656.4754    1219.4571   -10875.933    4388.8956   -15264.828    128.97308   -303.72157    560.08495    278.07445   -127.95063    48.115188   -17.970248      46.7237      46.7237      46.7237           90           90           90     102002.7    178.14594 
  973000       972500   -9672.7718    1202.2866   -10875.058     4407.783   -15282.841    127.15707   -81.584803     88.70594   -27.195067   -14.743992   -225.67008    117.44873      46.7237      46.7237      46.7237           90           90           90     102002.7   -6.6913102 
  974000       973500   -9652.3596    1233.2615   -10885.621    4359.3634   -15244.984    130.43306    164.49409    423.34525    392.18785   -226.05361   -60.046985    152.52842      46.7237      46.7237      46.7237           90           90           90     102002.7    326.67573 
  975000       974500   -9629.8031    1257.5733   -10887.376    4361.8898   -15249.266    133.00435    49.528387    233.46801    118.25492    -135.3901   -101.85615    304.42182      46.7237      46.7237      46.7237           90           90           90     102002.7    133.75044 
  976000       975500   -9625.3512    1226.3965   -10851.748    4416.3527     -15268.1      129.707   -211.73713    62.766752    159.24848    268.77716    26.194113    177.76657      46.7237      46.7237      46.7237           90           90           90     102002.7     3.426034 
  977000       976500   -9668.0014     1209.663   -10877.664    4374.6493   -15252.314    127.93723    29.195287    436.09157    264.76504     324.7246   -33.843023   -341.51071      46.7237      46.7237      46.7237           90           90           90     102002.7    243.35063 
  978000       977500   -9644.4815    1239.5391   -10884.021    4377.9828   -15262.003    131.09699    170.31219     -406.175   -93.143439   -106.92616   -325.64372    55.961089      46.7237      46.7237      46.7237           90           90           90     102002.7   -109.66875 
  979000       978500   -9660.2727    1239.6716   -10899.944    4369.5685   -15269.513    131.11102    254.62677    75.709706   -410.68476   -430.78528   -115.59711   -49.486374      46.7237      46.7237      46.7237           90           90           90     102002.7   -26.782759 
  980000       979500    -9644.127    1235.4462   -10879.573      4396.05   -15275.623    130.66412     516.1337    12.170958    27.822494    121.00772    118.93033   -16.468285      46.7237      46.7237      46.7237           90           90           90     102002.7    185.37572 
  981000       980500   -9630.7666    1232.4393   -10863.206    4392.1807   -15255.387    130.34611   -61.044495   -313.40076    291.17019    205.95424    4.4639568    109.37155      46.7237      46.7237      46.7237           90           90           90     102002.7   -27.758357 
  982000       981500    -9637.791    1215.5489    -10853.34     4374.202   -15227.542    128.55973    116.73898   -111.49897    203.82573    157.62759   -249.07927   -315.76035      46.7237      46.7237      46.7237           90           90           90     102002.7    69.688577 
  983000       982500   -9653.1145    1212.3742   -10865.489    4388.4986   -15253.987    128.22397   -345.36132   -396.34334   -7.3636997    28.318074    178.31255   -41.875903      46.7237      46.7237      46.7237           90           90           90     102002.7   -249.68945 
  984000       983500   -9643.4567    1232.4386   -10875.895    4390.8943    -15266.79    130.34603    530.53464    641.22919    -347.1153    348.81471    156.10553    61.569326      46.7237      46.7237      46.7237           90           90           90     102002.7    274.88284 
  985000       984500   -9670.7248    1218.7966   -10889.521    4378.7624   -15268.284    128.90322  -0.58157258    120.84038    521.33068   -78.794652    98.275749     208.8624      46.7237      46.7237      46.7237           90           90           90     102002.7    213.86316 
  986000       985500   -9673.6395    1198.4132   -10872.053    4375.4314   -15247.484    126.74741   -394.36411    133.21198   -179.52947   -34.909886   -37.940562    19.144215      46.7237      46.7237      46.7237           90           90           90     102002.7   -146.89387 
  987000       986500   -9694.8489    1201.6514     -10896.5    4384.6175   -15281.118    127.08989    172.24971   -54.086458   -203.58525    59.564306    200.27945    272.15894      46.7237      46.7237      46.7237           90           90           90     102002.7   -28.473999 
  988000       987500   -9657.9517    1222.0827   -10880.034    4404.1007   -15284.135    129.25077     106.2102    420.12329    162.39932   -185.20934   -36.999224    45.935579      46.7237      46.7237      46.7237           90           90           90     102002.7    229.57761 
  989000       988500   -9649.3533    1210.3692   -10859.723    4382.9057   -15242.628    128.01191   -33.121411   -444.70265   -31.545056   -66.946802   -27.049383   -68.196805      46.7237      46.7237      46.7237           90           90           90     102002.7    -169.7897 
  990000       989500    -9640.751    1221.0571   -10861.808    4405.9769   -15267.785    129.14229    150.88213   -78.779737    235.75373    141.26252   -195.88807   -25.144432      46.7237      46.7237      46.7237           90           90           90     102002.7    102.61871 
  991000       990500   -9667.0616    1218.5894   -10885.651    4365.8854   -15251.536     128.8813    77.264582    176.67816   -171.91757   -387.49245    124.88871   -108.18175      46.7237      46.7237      46.7237           90           90           90     102002.7    27.341724 
  992000       991500    -9645.629    1228.6505   -10874.279     4385.181   -15259.461    129.94539    431.79368   -135.59813    282.45117   -9.7568831   -181.42707   -224.87263      46.7237      46.7237      46.7237           90           90           90     102002.7    192.88224 
  993000       992500   -9642.2261    1243.1334   -10885.359    4355.2444   -15240.604    131.47714    122.82366    184.98468   -29.763821   -44.642469    -240.8187   -55.436462      46.7237      46.7237      46.7237           90           90           90     102002.7    92.681504 
  994000       993500    -9602.699    1265.6618   -10868.361    4380.5935   -15248.954    133.85981    152.30763   -135.04533   -31.493829   -173.14173   -8.5274275   -154.31708      46.7237      46.7237      46.7237           90           90           90     102002.7   -4.7438416 
  995000       994500   -9688.5573     1205.475   -10894.032    4375.8864   -15269.919    127.49428   -86.512694   -8.2368556   -693.77115   -18.966958    11.918365   -20.168254      46.7237      46.7237      46.7237           90           90           90     102002.7   -262.84023 
  996000       995500   -9630.7637    1245.3792   -10876.143    4383.6195   -15259.762    131.71466    92.697943   -305.87361   -77.238906     27.25846    165.97341    286.74325      46.7237      46.7237      46.7237           90           90           90     102002.7   -96.804858 
  997000       996500   -9689.0099    1200.3406    -10889.35    4355.8325   -15245.183    126.95126    45.423428    127.00152  -0.94087112    148.98228   -84.381771    109.56459      46.7237      46.7237      46.7237           90           90           90     102002.7    57.161358 
  998000       997500    -9654.616    1228.4221   -10883.038    4372.8982   -15255.936    129.92123    84.919853    569.81947   -61.228513   -140.87518    169.13367   -131.73861      46.7237      46.7237      46.7237           90           90           90     102002.7    197.83694 
  999000       998500    -9674.009    1222.5669   -10896.576    4382.7798   -15279.356    129.30197   -304.72505     61.07893    280.72242    59.157827    -127.6535    104.68943      46.7237      46.7237      46.7237           90           90           90     102002.7    12.358768 
 1000000       999500   -9648.8596    1232.4262   -10881.286    4374.2907   -15255.576    130.34472     -182.818     169.9236   -114.59381   -92.459585    155.52881    105.47077      46.7237      46.7237      46.7237           90           90           90     102002.7   -42.496069 
 1000500      1000000   -9618.3912     1233.787   -10852.178    4397.2322    -15249.41    130.48864    -121.2798    337.38387   -135.33837    -164.7147    14.122058   -54.405054      46.7237      46.7237      46.7237           90           90           90     102002.7    26.921901 
Loop time of 2122.86 on 16 procs for 500000 steps with 3173 atoms

Performance: 20.350 ns/day, 1.179 hours/ns, 235.531 timesteps/s
99.8% CPU use with 16 MPI tasks x no OpenMP threads

MPI task timing breakdown:
Section |  min time  |  avg time  |  max time  |%varavg| %total
---------------------------------------------------------------
Pair    | 1227.4     | 1441.6     | 1681.7     | 346.4 | 67.91
Bond    | 124.92     | 183.32     | 250        | 399.9 |  8.64
Neigh   | 17.32      | 17.348     | 17.378     |   0.5 |  0.82
Comm    | 144.04     | 447.66     | 709.9      | 840.2 | 21.09
Output  | 0.1324     | 0.13877    | 0.13934    |   0.4 |  0.01
Modify  | 24.484     | 25.909     | 27.534     |  21.9 |  1.22
Other   |            | 6.915      |            |       |  0.33

Nlocal:    198.312 ave 230 max 168 min
Histogram: 3 4 1 0 0 0 0 3 2 3
Nghost:    4037 ave 4078 max 3995 min
Histogram: 1 1 3 1 2 2 2 1 1 2
Neighs:    11456.3 ave 13207 max 9142 min
Histogram: 1 1 1 1 3 1 3 1 1 3

Total # of neighbors = 183301
Ave neighs/atom = 57.769
Ave special neighs/atom = 3.63063
Neighbor list builds = 5116
Dangerous builds = 0
Total wall time: 1:05:12
