LAMMPS (30 Mar 2018)
Reading data file ...
  orthogonal box = (0 0 0) to (46.7237 46.7237 46.7237)
  2 by 2 by 4 MPI processor grid
  reading atoms ...
  3134 atoms
  scanning bonds ...
  5 = max bonds/atom
  scanning angles ...
  10 = max angles/atom
  scanning dihedrals ...
  32 = max dihedrals/atom
  scanning impropers ...
  3 = max impropers/atom
  reading bonds ...
  2064 bonds
  reading angles ...
  3696 angles
  reading dihedrals ...
  6240 dihedrals
  reading impropers ...
  1008 impropers
Finding 1-2 1-3 1-4 neighbors ...
  special bond factors lj:   0          0          0         
  special bond factors coul: 0          0          0         
  5 = max # of 1-2 neighbors
  8 = max # of 1-3 neighbors
  20 = max # of 1-4 neighbors
  19 = max # of special neighbors
Finding 1-2 1-3 1-4 neighbors ...
  special bond factors lj:   0          0          1         
  special bond factors coul: 1          1          1         
  5 = max # of 1-2 neighbors
  8 = max # of 1-3 neighbors
  19 = max # of special neighbors
WARNING: Using 'neigh_modify every 1 delay 0 check yes' setting during minimization (../min.cpp:168)
Neighbor list info ...
  update every 1 steps, delay 0 steps, check yes
  max neighbors/atom: 2000, page size: 100000
  master list distance cutoff = 16
  ghost atom cutoff = 16
  binsize = 8, bins = 6 6 6
  3 neighbor lists, perpetual/occasional/extra = 3 0 0
  (1) pair buck6d/coul/gauss/dsf, perpetual, skip from (3)
      attributes: half, newton on
      pair build: skip
      stencil: none
      bin: none
  (2) pair lj/cut, perpetual, skip from (3)
      attributes: half, newton on
      pair build: skip
      stencil: none
      bin: none
  (3) neighbor class addition, perpetual
      attributes: half, newton on
      pair build: half/bin/newton
      stencil: half/bin/3d/newton
      bin: standard
Setting up cg style minimization ...
  Unit style    : real
  Current step  : 0
WARNING: Inconsistent image flags (../domain.cpp:786)
Per MPI rank memory allocation (min/avg/max) = 23.01 | 23.47 | 23.91 Mbytes
Step Temp E_pair E_mol TotEng Press 
       0            0   -15173.181    6482.8914   -8690.2898    6110.6411 
     500            0   -15646.748     3754.624   -11892.124   -2131.1351 
Loop time of 4.46858 on 16 procs for 500 steps with 3134 atoms

99.9% CPU use with 16 MPI tasks x no OpenMP threads

Minimization stats:
  Stopping criterion = max force evaluations
  Energy initial, next-to-last, final = 
        -8690.28983078     -11892.0061255     -11892.1243045
  Force two-norm initial, final = 2575.71 15.383
  Force max component initial, final = 152.388 2.58414
  Final line search alpha, max atom move = 0.00680441 0.0175836
  Iterations, force evaluations = 500 1000

MPI task timing breakdown:
Section |  min time  |  avg time  |  max time  |%varavg| %total
---------------------------------------------------------------
Pair    | 2.3758     | 2.8996     | 3.5422     |  20.1 | 64.89
Bond    | 0.27762    | 0.36087    | 0.44148    |   8.0 |  8.08
Neigh   | 0.037304   | 0.037384   | 0.037488   |   0.0 |  0.84
Comm    | 0.40351    | 1.1259     | 1.6546     |  34.0 | 25.20
Output  | 0          | 0          | 0          |   0.0 |  0.00
Modify  | 0          | 0          | 0          |   0.0 |  0.00
Other   |            | 0.04482    |            |       |  1.00

Nlocal:    195.875 ave 235 max 164 min
Histogram: 2 0 3 2 3 1 1 3 0 1
Nghost:    3921.38 ave 3959 max 3877 min
Histogram: 1 0 0 5 1 3 1 3 0 2
Neighs:    11466.1 ave 16932 max 8263 min
Histogram: 4 3 1 1 2 2 0 0 1 2

Total # of neighbors = 183458
Ave neighs/atom = 58.538
Ave special neighs/atom = 3.67581
Neighbor list builds = 11
Dangerous builds = 0
Neighbor list info ...
  update every 1 steps, delay 10 steps, check yes
  max neighbors/atom: 2000, page size: 100000
  master list distance cutoff = 16
  ghost atom cutoff = 16
  binsize = 8, bins = 6 6 6
  3 neighbor lists, perpetual/occasional/extra = 3 0 0
  (1) pair buck6d/coul/gauss/dsf, perpetual, skip from (3)
      attributes: half, newton on
      pair build: skip
      stencil: none
      bin: none
  (2) pair lj/cut, perpetual, skip from (3)
      attributes: half, newton on
      pair build: skip
      stencil: none
      bin: none
  (3) neighbor class addition, perpetual
      attributes: half, newton on
      pair build: half/bin/newton
      stencil: half/bin/3d/newton
      bin: standard
Setting up Verlet run ...
  Unit style    : real
  Current step  : 500
  Time step     : 1
WARNING: Inconsistent image flags (../domain.cpp:786)
Per MPI rank memory allocation (min/avg/max) = 22.66 | 22.75 | 22.97 Mbytes
Step Temp PotEng TotEng Press Volume Lx Ly Lz 
     500          130   -11892.124    -10678.07   -1587.0595     102002.7      46.7237      46.7237      46.7237 
    1000    112.94408   -10917.808   -9863.0371    -275.7352     102002.7      46.7237      46.7237      46.7237 
    2000    131.46472   -10706.676   -9478.9425   -321.95523     102002.7      46.7237      46.7237      46.7237 
    3000    133.21699   -10771.082   -9526.9847   -479.09026     102002.7      46.7237      46.7237      46.7237 
    4000    131.65733   -10787.197   -9557.6657    184.50067     102002.7      46.7237      46.7237      46.7237 
    5000    130.96628   -10756.783   -9533.7052    -296.1523     102002.7      46.7237      46.7237      46.7237 
    6000    128.11333   -10739.473   -9543.0379   -64.121444     102002.7      46.7237      46.7237      46.7237 
    7000    130.63026   -10746.202   -9526.2616   -278.65349     102002.7      46.7237      46.7237      46.7237 
    8000    127.38924   -10774.893   -9585.2207   -223.74352     102002.7      46.7237      46.7237      46.7237 
    9000    129.03298   -10755.514   -9550.4907   -88.062669     102002.7      46.7237      46.7237      46.7237 
   10000    133.69491    -10724.15   -9475.5896   -111.41353     102002.7      46.7237      46.7237      46.7237 
   11000    132.20344    -10772.87   -9538.2384   -124.20451     102002.7      46.7237      46.7237      46.7237 
   12000     128.1365   -10772.557   -9575.9062   -321.83316     102002.7      46.7237      46.7237      46.7237 
   13000    129.52814   -10743.338     -9533.69   -118.12792     102002.7      46.7237      46.7237      46.7237 
   14000    131.11649   -10751.477   -9526.9959   -114.32838     102002.7      46.7237      46.7237      46.7237 
   15000    129.31486   -10732.227   -9524.5714   -210.53985     102002.7      46.7237      46.7237      46.7237 
   16000    131.15404   -10752.054   -9527.2224   -370.45052     102002.7      46.7237      46.7237      46.7237 
   17000    129.33481   -10753.334   -9545.4923   -251.32459     102002.7      46.7237      46.7237      46.7237 
   18000    131.62587   -10731.339   -9502.1009   -116.11164     102002.7      46.7237      46.7237      46.7237 
   19000    126.83892   -10727.842   -9543.3086   -36.573548     102002.7      46.7237      46.7237      46.7237 
   20000    132.17354   -10739.314   -9504.9612    37.473502     102002.7      46.7237      46.7237      46.7237 
   21000     132.7604     -10751.7   -9511.8666   -101.48448     102002.7      46.7237      46.7237      46.7237 
   22000    131.03439   -10744.807   -9521.0925   -160.53035     102002.7      46.7237      46.7237      46.7237 
   23000    129.50875   -10774.198   -9564.7319   -189.88238     102002.7      46.7237      46.7237      46.7237 
   24000    130.35157   -10778.228    -9560.891   -603.25681     102002.7      46.7237      46.7237      46.7237 
   25000    132.50967   -10760.683   -9523.1918   -406.56088     102002.7      46.7237      46.7237      46.7237 
   26000    125.16068   -10769.489    -9600.629   -406.11051     102002.7      46.7237      46.7237      46.7237 
   27000     126.4017   -10744.043    -9563.593   -119.65672     102002.7      46.7237      46.7237      46.7237 
   28000    128.75085   -10779.277   -9576.8886   -189.25508     102002.7      46.7237      46.7237      46.7237 
   29000    128.52971    -10766.06   -9565.7364   -504.30365     102002.7      46.7237      46.7237      46.7237 
   30000    133.59688   -10759.094   -9511.4487   -205.51263     102002.7      46.7237      46.7237      46.7237 
   31000    128.39774   -10785.143   -9586.0522   -543.25587     102002.7      46.7237      46.7237      46.7237 
   32000    128.87364   -10735.602   -9532.0673   -250.53055     102002.7      46.7237      46.7237      46.7237 
   33000    129.00918   -10761.534   -9556.7332   -9.1279671     102002.7      46.7237      46.7237      46.7237 
   34000    129.53899   -10761.679   -9551.9302   -199.75857     102002.7      46.7237      46.7237      46.7237 
   35000    128.34521   -10753.784   -9555.1835   -274.03154     102002.7      46.7237      46.7237      46.7237 
   36000    129.15967   -10795.123   -9588.9167   -518.69911     102002.7      46.7237      46.7237      46.7237 
   37000    130.31808   -10768.495   -9551.4704   -104.01344     102002.7      46.7237      46.7237      46.7237 
   38000    129.50119   -10764.938   -9555.5425   -344.61222     102002.7      46.7237      46.7237      46.7237 
   39000    128.47499   -10763.794    -9563.982   -162.18961     102002.7      46.7237      46.7237      46.7237 
   40000     132.5973   -10763.766   -9525.4564   -113.46143     102002.7      46.7237      46.7237      46.7237 
   41000    132.25966   -10753.457   -9518.3002   -319.92373     102002.7      46.7237      46.7237      46.7237 
   42000    131.36945    -10755.24   -9528.3971   -390.98765     102002.7      46.7237      46.7237      46.7237 
   43000    129.48492   -10751.051   -9541.8069   -771.42375     102002.7      46.7237      46.7237      46.7237 
   44000     128.3524   -10747.863   -9549.1958    -155.1492     102002.7      46.7237      46.7237      46.7237 
   45000    131.49854   -10774.953   -9546.9044   -309.47613     102002.7      46.7237      46.7237      46.7237 
   46000    128.42161   -10716.257   -9516.9434   -252.66841     102002.7      46.7237      46.7237      46.7237 
   47000    131.25911   -10760.837   -9535.0246   -108.60977     102002.7      46.7237      46.7237      46.7237 
   48000    128.59116   -10775.084   -9574.1867   -457.12787     102002.7      46.7237      46.7237      46.7237 
   49000     130.3209    -10745.94   -9528.8889    135.03129     102002.7      46.7237      46.7237      46.7237 
   50000    129.07588   -10760.656    -9555.232    92.214586     102002.7      46.7237      46.7237      46.7237 
   51000    126.49032   -10756.409   -9575.1318   -350.90344     102002.7      46.7237      46.7237      46.7237 
   52000    134.59158   -10773.901    -9516.967    242.07473     102002.7      46.7237      46.7237      46.7237 
   53000     131.3629   -10766.941   -9540.1589   -171.35667     102002.7      46.7237      46.7237      46.7237 
   54000    125.74266   -10765.156   -9590.8606   -46.176088     102002.7      46.7237      46.7237      46.7237 
   55000    129.05772   -10731.714   -9526.4596   -367.25165     102002.7      46.7237      46.7237      46.7237 
   56000    131.76859   -10735.261   -9504.6901   -483.68548     102002.7      46.7237      46.7237      46.7237 
   57000    131.32183   -10734.314   -9507.9158   -25.621934     102002.7      46.7237      46.7237      46.7237 
   58000     129.0236   -10773.512   -9568.5768   -616.29454     102002.7      46.7237      46.7237      46.7237 
   59000    129.81872   -10758.986   -9546.6243    -89.17137     102002.7      46.7237      46.7237      46.7237 
   60000    128.94995   -10720.762   -9516.5143   -365.83192     102002.7      46.7237      46.7237      46.7237 
   61000    129.20571    -10746.53   -9539.8942   -72.661033     102002.7      46.7237      46.7237      46.7237 
   62000    127.96012   -10748.905   -9553.9013   -186.33746     102002.7      46.7237      46.7237      46.7237 
   63000    131.04566    -10750.15   -9526.3302   -171.92715     102002.7      46.7237      46.7237      46.7237 
   64000    131.37993   -10740.167   -9513.2261    120.26569     102002.7      46.7237      46.7237      46.7237 
   65000     129.7276   -10762.605   -9551.0949    -65.19092     102002.7      46.7237      46.7237      46.7237 
   66000    134.14649   -10755.184    -9502.406   -122.65483     102002.7      46.7237      46.7237      46.7237 
   67000    127.26692   -10747.801   -9559.2711   -381.09919     102002.7      46.7237      46.7237      46.7237 
   68000    131.09594   -10740.028   -9515.7393   -76.644577     102002.7      46.7237      46.7237      46.7237 
   69000    125.03415    -10752.07   -9584.3915   -202.80842     102002.7      46.7237      46.7237      46.7237 
   70000    134.58802   -10759.272   -9502.3707   -113.82463     102002.7      46.7237      46.7237      46.7237 
   71000    128.87766    -10742.52    -9538.947   -221.81148     102002.7      46.7237      46.7237      46.7237 
   72000    126.45384   -10733.211   -9552.2736   -565.12666     102002.7      46.7237      46.7237      46.7237 
   73000    133.52391   -10767.248   -9520.2841   -243.91351     102002.7      46.7237      46.7237      46.7237 
   74000    129.87487   -10782.504   -9569.6182   -373.54017     102002.7      46.7237      46.7237      46.7237 
   75000    131.50807   -10746.108   -9517.9705   -363.01754     102002.7      46.7237      46.7237      46.7237 
   76000    125.28732   -10776.652   -9606.6092   -168.13326     102002.7      46.7237      46.7237      46.7237 
   77000       130.73    -10737.92   -9517.0489   -199.60005     102002.7      46.7237      46.7237      46.7237 
   78000    130.17074   -10746.824   -9531.1757   -194.54244     102002.7      46.7237      46.7237      46.7237 
   79000    128.77991   -10791.569   -9588.9095   -327.82291     102002.7      46.7237      46.7237      46.7237 
   80000    129.56123   -10733.431   -9523.4743   -43.155143     102002.7      46.7237      46.7237      46.7237 
   81000    129.40396   -10765.987    -9557.499   -288.32082     102002.7      46.7237      46.7237      46.7237 
   82000    130.66664   -10736.831   -9516.5517   -43.738839     102002.7      46.7237      46.7237      46.7237 
   83000    128.32747   -10757.589   -9559.1548    97.202832     102002.7      46.7237      46.7237      46.7237 
   84000    129.59763   -10742.911   -9532.6144   -189.47634     102002.7      46.7237      46.7237      46.7237 
   85000    129.34413   -10729.888   -9521.9589    149.49059     102002.7      46.7237      46.7237      46.7237 
   86000    129.09934   -10740.334   -9534.6914    -444.3492     102002.7      46.7237      46.7237      46.7237 
   87000    130.01272   -10743.943   -9529.7699   -228.18935     102002.7      46.7237      46.7237      46.7237 
   88000    130.01735   -10758.883   -9544.6669   -553.77535     102002.7      46.7237      46.7237      46.7237 
   89000    129.00375   -10750.284   -9545.5334   -398.93077     102002.7      46.7237      46.7237      46.7237 
   90000    132.18477   -10761.939   -9527.4818    -573.4493     102002.7      46.7237      46.7237      46.7237 
   91000    128.08686   -10743.747   -9547.5594   -316.28485     102002.7      46.7237      46.7237      46.7237 
   92000    132.68038   -10760.622   -9521.5358   -134.74741     102002.7      46.7237      46.7237      46.7237 
   93000    127.95534   -10747.234   -9552.2749   -704.03461     102002.7      46.7237      46.7237      46.7237 
   94000    129.65226   -10754.978   -9544.1716    342.72334     102002.7      46.7237      46.7237      46.7237 
   95000    130.43983   -10760.533   -9542.3711   -371.68972     102002.7      46.7237      46.7237      46.7237 
   96000    129.62917   -10748.774   -9538.1834   -166.52858     102002.7      46.7237      46.7237      46.7237 
   97000    128.83271   -10764.459   -9561.3065   -172.07632     102002.7      46.7237      46.7237      46.7237 
   98000    132.34554   -10730.672   -9494.7128   -325.72635     102002.7      46.7237      46.7237      46.7237 
   99000    129.52885   -10730.773   -9521.1187   -76.129584     102002.7      46.7237      46.7237      46.7237 
  100000    127.87986   -10769.924   -9575.6695   -87.329913     102002.7      46.7237      46.7237      46.7237 
  101000    131.16957   -10745.446   -9520.4692    171.84587     102002.7      46.7237      46.7237      46.7237 
  102000    127.89693   -10737.648   -9543.2341   -521.29782     102002.7      46.7237      46.7237      46.7237 
  103000    127.33784   -10744.865   -9555.6721   -229.42207     102002.7      46.7237      46.7237      46.7237 
  104000    128.51453   -10771.605   -9571.4239   -406.09972     102002.7      46.7237      46.7237      46.7237 
  105000    129.62966   -10761.922   -9551.3267   -392.71951     102002.7      46.7237      46.7237      46.7237 
  106000    131.35269   -10731.816   -9505.1298   -63.716337     102002.7      46.7237      46.7237      46.7237 
  107000    128.47673   -10725.561   -9525.7329   -476.88836     102002.7      46.7237      46.7237      46.7237 
  108000    131.76138   -10778.181   -9547.6776    202.61779     102002.7      46.7237      46.7237      46.7237 
  109000    132.02832   -10758.142   -9525.1458   -221.45254     102002.7      46.7237      46.7237      46.7237 
  110000    132.03477   -10714.657   -9481.6007    3.2318627     102002.7      46.7237      46.7237      46.7237 
  111000    131.00105   -10747.862   -9524.4589   -141.63926     102002.7      46.7237      46.7237      46.7237 
  112000    130.26863   -10755.848   -9539.2847   -585.20572     102002.7      46.7237      46.7237      46.7237 
  113000    133.29205   -10723.872   -9479.0741   -78.361843     102002.7      46.7237      46.7237      46.7237 
  114000    130.27096   -10745.645     -9529.06   -430.16343     102002.7      46.7237      46.7237      46.7237 
  115000    128.21132   -10724.922   -9527.5725   -24.354718     102002.7      46.7237      46.7237      46.7237 
  116000    132.42216   -10726.913   -9490.2386    -54.15533     102002.7      46.7237      46.7237      46.7237 
  117000    129.82412   -10753.572   -9541.1599   -457.75665     102002.7      46.7237      46.7237      46.7237 
  118000    129.81669    -10753.62   -9541.2782   -34.944656     102002.7      46.7237      46.7237      46.7237 
  119000    129.79501   -10744.006   -9531.8662    39.131479     102002.7      46.7237      46.7237      46.7237 
  120000    133.58275   -10753.567   -9506.0538   -91.500328     102002.7      46.7237      46.7237      46.7237 
  121000    130.64882    -10726.44   -9506.3266   -161.40713     102002.7      46.7237      46.7237      46.7237 
  122000    129.81956   -10739.397   -9527.0279   -139.29786     102002.7      46.7237      46.7237      46.7237 
  123000    128.30033   -10760.429   -9562.2477   -521.31502     102002.7      46.7237      46.7237      46.7237 
  124000    128.52161   -10739.828   -9539.5806   -275.09121     102002.7      46.7237      46.7237      46.7237 
  125000    131.46762   -10757.788   -9530.0284   -586.85521     102002.7      46.7237      46.7237      46.7237 
  126000    128.45237   -10754.669   -9555.0678   -196.38092     102002.7      46.7237      46.7237      46.7237 
  127000    128.00955   -10734.022   -9538.5562   -521.11328     102002.7      46.7237      46.7237      46.7237 
  128000    129.99013   -10767.344   -9553.3824   -569.90454     102002.7      46.7237      46.7237      46.7237 
  129000    132.58311   -10743.986   -9505.8081   -258.46299     102002.7      46.7237      46.7237      46.7237 
  130000    128.09881   -10760.014   -9563.7151   -369.31047     102002.7      46.7237      46.7237      46.7237 
  131000    130.32345   -10769.606   -9552.5314   -575.39719     102002.7      46.7237      46.7237      46.7237 
  132000    129.29969   -10713.956   -9506.4425   -552.79812     102002.7      46.7237      46.7237      46.7237 
  133000    128.28103   -10760.564   -9562.5632   -387.20311     102002.7      46.7237      46.7237      46.7237 
  134000    126.42243   -10755.209   -9574.5655   -343.09566     102002.7      46.7237      46.7237      46.7237 
  135000    131.93909   -10730.572   -9498.4092   -283.80542     102002.7      46.7237      46.7237      46.7237 
  136000    128.71829   -10754.044   -9551.9597   -619.38573     102002.7      46.7237      46.7237      46.7237 
  137000    129.97412   -10730.225   -9516.4125   -179.32751     102002.7      46.7237      46.7237      46.7237 
  138000    132.74802   -10743.629   -9503.9115   -443.58276     102002.7      46.7237      46.7237      46.7237 
  139000    130.58934   -10754.898   -9535.3404   -358.56125     102002.7      46.7237      46.7237      46.7237 
  140000    129.63286   -10753.733   -9543.1078   -150.53422     102002.7      46.7237      46.7237      46.7237 
  141000    125.32611   -10732.566   -9562.1607   -123.47319     102002.7      46.7237      46.7237      46.7237 
  142000    128.67909   -10763.645   -9561.9264   -69.575933     102002.7      46.7237      46.7237      46.7237 
  143000    131.15143   -10760.493   -9535.6859    -62.68144     102002.7      46.7237      46.7237      46.7237 
  144000    131.14644   -10763.554   -9538.7933   -280.52272     102002.7      46.7237      46.7237      46.7237 
  145000      130.021   -10752.951   -9538.7003   -290.08721     102002.7      46.7237      46.7237      46.7237 
  146000    131.44795   -10736.842   -9509.2652   -477.09529     102002.7      46.7237      46.7237      46.7237 
  147000    129.04746   -10764.858   -9559.6997   -352.69644     102002.7      46.7237      46.7237      46.7237 
  148000    132.24331   -10720.642   -9485.6378     -341.031     102002.7      46.7237      46.7237      46.7237 
  149000    129.93054   -10730.813   -9517.4073   -383.27786     102002.7      46.7237      46.7237      46.7237 
  150000    130.15973   -10782.793   -9567.2469   -236.44636     102002.7      46.7237      46.7237      46.7237 
  151000    126.65556   -10752.008   -9569.1869   -403.13842     102002.7      46.7237      46.7237      46.7237 
  152000    133.09441   -10755.204   -9512.2514   -262.99994     102002.7      46.7237      46.7237      46.7237 
  153000    125.78023   -10740.966     -9566.32   -544.97367     102002.7      46.7237      46.7237      46.7237 
  154000    131.03287   -10761.219   -9537.5193   -112.06213     102002.7      46.7237      46.7237      46.7237 
  155000    132.31127   -10747.478   -9511.8396   -299.99671     102002.7      46.7237      46.7237      46.7237 
  156000     131.7759   -10751.202   -9520.5629   -175.24303     102002.7      46.7237      46.7237      46.7237 
  157000    129.90869   -10766.583   -9553.3816   -152.39341     102002.7      46.7237      46.7237      46.7237 
  158000    130.05027   -10771.321   -9556.7971   -264.89138     102002.7      46.7237      46.7237      46.7237 
  159000    129.78903   -10749.721   -9537.6375     228.8749     102002.7      46.7237      46.7237      46.7237 
  160000    133.88515    -10730.93   -9480.5934   -156.31497     102002.7      46.7237      46.7237      46.7237 
  161000    130.17642   -10751.114   -9535.4125    -116.5009     102002.7      46.7237      46.7237      46.7237 
  162000    127.79026   -10754.499   -9561.0815     58.79919     102002.7      46.7237      46.7237      46.7237 
  163000    127.95468   -10755.701   -9560.7477   -96.004959     102002.7      46.7237      46.7237      46.7237 
  164000    127.95345    -10758.65   -9563.7084   -272.95657     102002.7      46.7237      46.7237      46.7237 
  165000    132.53577   -10717.055   -9479.3202    148.75728     102002.7      46.7237      46.7237      46.7237 
  166000    132.24035   -10740.812   -9505.8357   -284.62196     102002.7      46.7237      46.7237      46.7237 
  167000    128.86746   -10766.017   -9562.5391   -520.59568     102002.7      46.7237      46.7237      46.7237 
  168000    128.62989   -10749.046   -9547.7871   -384.16266     102002.7      46.7237      46.7237      46.7237 
  169000    129.67257   -10758.301   -9547.3043   -668.91021     102002.7      46.7237      46.7237      46.7237 
  170000     126.2666   -10750.611   -9571.4222   -249.41912     102002.7      46.7237      46.7237      46.7237 
  171000    134.43298   -10753.648   -9498.1947   -265.77073     102002.7      46.7237      46.7237      46.7237 
  172000    127.32052   -10752.439   -9563.4083   -214.48636     102002.7      46.7237      46.7237      46.7237 
  173000    131.29041   -10778.061   -9551.9561   -237.01235     102002.7      46.7237      46.7237      46.7237 
  174000    133.88092   -10773.243   -9522.9451     -72.9413     102002.7      46.7237      46.7237      46.7237 
  175000    127.97788   -10767.234   -9572.0637   -56.299057     102002.7      46.7237      46.7237      46.7237 
  176000    131.41488   -10752.168   -9524.9006   -76.739492     102002.7      46.7237      46.7237      46.7237 
  177000    130.75668   -10755.647   -9534.5265   -29.412817     102002.7      46.7237      46.7237      46.7237 
  178000    129.11095   -10776.338   -9570.5867   -180.27202     102002.7      46.7237      46.7237      46.7237 
  179000    129.16247   -10758.834   -9552.6014    26.925488     102002.7      46.7237      46.7237      46.7237 
  180000     131.0373   -10752.942   -9529.2005   -373.03154     102002.7      46.7237      46.7237      46.7237 
  181000    132.24777   -10744.624    -9509.578   -404.83408     102002.7      46.7237      46.7237      46.7237 
  182000    129.64383   -10757.148   -9546.4197   -182.52819     102002.7      46.7237      46.7237      46.7237 
  183000    130.62526   -10747.468    -9527.575   -113.49085     102002.7      46.7237      46.7237      46.7237 
  184000    130.64863   -10756.743   -9536.6319   -445.63211     102002.7      46.7237      46.7237      46.7237 
  185000    129.04884   -10729.089   -9523.9175   -486.95604     102002.7      46.7237      46.7237      46.7237 
  186000    127.41655   -10749.851   -9559.9235   -111.31945     102002.7      46.7237      46.7237      46.7237 
  187000    130.67795   -10715.179   -9494.7934   -139.88122     102002.7      46.7237      46.7237      46.7237 
  188000    129.72682   -10736.285   -9524.7825    -118.5639     102002.7      46.7237      46.7237      46.7237 
  189000    126.31426   -10740.234   -9560.6003   -272.97022     102002.7      46.7237      46.7237      46.7237 
  190000    129.36032   -10728.045   -9519.9644   -180.13776     102002.7      46.7237      46.7237      46.7237 
  191000    130.90666   -10745.655   -9523.1342   -41.041295     102002.7      46.7237      46.7237      46.7237 
  192000    133.21348   -10731.156   -9487.0916    -219.0219     102002.7      46.7237      46.7237      46.7237 
  193000    130.00808   -10741.257   -9527.1272    21.414082     102002.7      46.7237      46.7237      46.7237 
  194000     130.5528    -10762.18    -9542.963   -134.64721     102002.7      46.7237      46.7237      46.7237 
  195000    127.16329   -10756.692   -9569.1294   -192.81943     102002.7      46.7237      46.7237      46.7237 
  196000    129.57766    -10740.25   -9530.1398    2.7910796     102002.7      46.7237      46.7237      46.7237 
  197000     125.4988   -10753.646   -9581.6285   -349.90348     102002.7      46.7237      46.7237      46.7237 
  198000    130.56425   -10732.959   -9513.6358    -205.9653     102002.7      46.7237      46.7237      46.7237 
  199000    128.89705    -10770.91    -9567.156   -138.79549     102002.7      46.7237      46.7237      46.7237 
  200000    132.99225   -10725.917   -9483.9185   -209.42308     102002.7      46.7237      46.7237      46.7237 
  201000    126.74958   -10736.376   -9552.6776    52.265137     102002.7      46.7237      46.7237      46.7237 
  202000    129.46732   -10741.364   -9532.2843   -62.826557     102002.7      46.7237      46.7237      46.7237 
  203000    127.84046   -10768.651   -9574.7647   -316.99323     102002.7      46.7237      46.7237      46.7237 
  204000    132.75799   -10754.018   -9514.2075    37.441591     102002.7      46.7237      46.7237      46.7237 
  205000    128.72728   -10740.793   -9538.6247    -310.3243     102002.7      46.7237      46.7237      46.7237 
  206000    132.46341   -10743.964   -9506.9043    169.75297     102002.7      46.7237      46.7237      46.7237 
  207000    132.57323   -10760.464   -9522.3792   -326.98319     102002.7      46.7237      46.7237      46.7237 
  208000    132.20071   -10748.386   -9513.7795   -459.21808     102002.7      46.7237      46.7237      46.7237 
  209000    130.39823   -10706.892   -9489.1185   -88.894289     102002.7      46.7237      46.7237      46.7237 
  210000    131.89187   -10753.915   -9522.1934   -454.81398     102002.7      46.7237      46.7237      46.7237 
  211000    129.16842   -10726.148   -9519.8594   -181.18182     102002.7      46.7237      46.7237      46.7237 
  212000    126.93808    -10755.13   -9569.6713   -341.04301     102002.7      46.7237      46.7237      46.7237 
  213000    130.10529   -10728.614   -9513.5766   -222.70158     102002.7      46.7237      46.7237      46.7237 
  214000    129.12516   -10757.484   -9551.6001   -465.92963     102002.7      46.7237      46.7237      46.7237 
  215000    131.04426   -10739.005   -9515.1983   -212.52451     102002.7      46.7237      46.7237      46.7237 
  216000    130.08535   -10738.044   -9523.1929   -70.058177     102002.7      46.7237      46.7237      46.7237 
  217000    131.27941    -10701.53   -9475.5277    228.62924     102002.7      46.7237      46.7237      46.7237 
  218000    134.97886   -10750.003   -9489.4519   -179.40811     102002.7      46.7237      46.7237      46.7237 
  219000    130.43958   -10724.528   -9506.3691    -9.314295     102002.7      46.7237      46.7237      46.7237 
  220000    126.96479   -10742.045   -9556.3366   -373.93747     102002.7      46.7237      46.7237      46.7237 
  221000    129.58818   -10738.142   -9527.9339   -339.66871     102002.7      46.7237      46.7237      46.7237 
  222000    129.80527   -10740.078   -9527.8424   -253.19562     102002.7      46.7237      46.7237      46.7237 
  223000    128.65661    -10766.99   -9565.4816   -244.02485     102002.7      46.7237      46.7237      46.7237 
  224000    129.11544   -10742.217    -9536.424   -222.27583     102002.7      46.7237      46.7237      46.7237 
  225000    129.97579   -10695.023   -9481.1946   -145.33056     102002.7      46.7237      46.7237      46.7237 
  226000    128.71361   -10741.575   -9539.5339   -52.685416     102002.7      46.7237      46.7237      46.7237 
  227000    131.78096    -10789.18   -9558.4933   -355.85936     102002.7      46.7237      46.7237      46.7237 
  228000    127.05424   -10739.591   -9553.0468   -172.77705     102002.7      46.7237      46.7237      46.7237 
  229000     129.9964   -10731.647   -9517.6264    9.9124843     102002.7      46.7237      46.7237      46.7237 
  230000    129.26813   -10736.917   -9529.6979   -191.74129     102002.7      46.7237      46.7237      46.7237 
  231000    128.27102   -10749.325   -9551.4181   -184.91334     102002.7      46.7237      46.7237      46.7237 
  232000     129.1082   -10735.021   -9529.2954   -88.199253     102002.7      46.7237      46.7237      46.7237 
  233000    129.48992   -10767.567   -9558.2768   -321.60108     102002.7      46.7237      46.7237      46.7237 
  234000    128.86771   -10734.709   -9531.2297   -439.17201     102002.7      46.7237      46.7237      46.7237 
  235000    128.62178   -10745.249   -9544.0654    -518.4145     102002.7      46.7237      46.7237      46.7237 
  236000    129.14376   -10729.132   -9523.0742   -223.94481     102002.7      46.7237      46.7237      46.7237 
  237000    130.73571   -10727.667   -9506.7423   -272.96012     102002.7      46.7237      46.7237      46.7237 
  238000    133.42706    -10724.03   -9477.9706   -236.32479     102002.7      46.7237      46.7237      46.7237 
  239000     127.4559   -10732.341   -9542.0463    -474.0547     102002.7      46.7237      46.7237      46.7237 
  240000    130.46552   -10704.716   -9486.3141   -261.37346     102002.7      46.7237      46.7237      46.7237 
  241000    129.69039   -10751.167   -9540.0046   -492.92372     102002.7      46.7237      46.7237      46.7237 
  242000    133.15222   -10749.187   -9505.6952   -539.09905     102002.7      46.7237      46.7237      46.7237 
  243000    130.37306   -10751.328   -9533.7901   -75.545917     102002.7      46.7237      46.7237      46.7237 
  244000    124.76625   -10758.832   -9593.6552   -17.016314     102002.7      46.7237      46.7237      46.7237 
  245000    131.87483   -10772.194   -9540.6314   -141.14767     102002.7      46.7237      46.7237      46.7237 
  246000    127.72377   -10736.757   -9543.9602   -207.04635     102002.7      46.7237      46.7237      46.7237 
  247000     132.8696   -10735.662   -9494.8087   -121.76094     102002.7      46.7237      46.7237      46.7237 
  248000    131.63468   -10753.908   -9524.5874   -238.06293     102002.7      46.7237      46.7237      46.7237 
  249000    124.49935   -10766.374   -9603.6897   -444.27953     102002.7      46.7237      46.7237      46.7237 
  250000    128.24597   -10765.002   -9567.3284   -219.73682     102002.7      46.7237      46.7237      46.7237 
  251000    131.62384   -10742.988   -9513.7685   -294.18408     102002.7      46.7237      46.7237      46.7237 
  252000    129.59283   -10747.083   -9536.8315   -306.29294     102002.7      46.7237      46.7237      46.7237 
  253000    131.41589   -10740.205   -9512.9275   -225.26791     102002.7      46.7237      46.7237      46.7237 
  254000    130.19421   -10779.433    -9563.565   -208.19848     102002.7      46.7237      46.7237      46.7237 
  255000    131.28955   -10754.375   -9528.2778    248.95117     102002.7      46.7237      46.7237      46.7237 
  256000    133.66456   -10732.997   -9484.7196   -208.02173     102002.7      46.7237      46.7237      46.7237 
  257000    131.81092   -10745.815   -9514.8486   -44.517094     102002.7      46.7237      46.7237      46.7237 
  258000    127.44182   -10736.739    -9546.575   -462.72722     102002.7      46.7237      46.7237      46.7237 
  259000    127.16555   -10731.184    -9543.601   -246.81637     102002.7      46.7237      46.7237      46.7237 
  260000    131.15082   -10722.745    -9497.944    -60.61474     102002.7      46.7237      46.7237      46.7237 
  261000    130.69708   -10758.973   -9538.4093   -644.56981     102002.7      46.7237      46.7237      46.7237 
  262000    129.92465   -10726.158   -9512.8072   -137.35661     102002.7      46.7237      46.7237      46.7237 
  263000    129.86208   -10753.031   -9540.2646   -51.915599     102002.7      46.7237      46.7237      46.7237 
  264000    128.34519   -10757.866   -9559.2662   -250.92682     102002.7      46.7237      46.7237      46.7237 
  265000    130.75288   -10751.542   -9530.4565   -165.18733     102002.7      46.7237      46.7237      46.7237 
  266000     134.8066   -10736.618   -9477.6753    -167.4101     102002.7      46.7237      46.7237      46.7237 
  267000    129.99805   -10756.001   -9541.9649   -160.69743     102002.7      46.7237      46.7237      46.7237 
  268000    129.36173   -10738.731   -9530.6377   -195.93157     102002.7      46.7237      46.7237      46.7237 
  269000    132.70346   -10729.625   -9490.3233   -13.867215     102002.7      46.7237      46.7237      46.7237 
  270000    126.71283   -10746.726   -9563.3706   -246.59539     102002.7      46.7237      46.7237      46.7237 
  271000    127.95224   -10743.343   -9548.4124   -264.59104     102002.7      46.7237      46.7237      46.7237 
  272000    128.08603   -10757.019   -9560.8397   -197.04565     102002.7      46.7237      46.7237      46.7237 
  273000    129.10775   -10690.802   -9485.0809   -263.45312     102002.7      46.7237      46.7237      46.7237 
  274000    131.58166   -10722.729   -9493.9036   -100.83032     102002.7      46.7237      46.7237      46.7237 
  275000    125.03042   -10750.843   -9583.1991   -135.38272     102002.7      46.7237      46.7237      46.7237 
  276000    129.25759   -10712.609   -9505.4884   -420.76812     102002.7      46.7237      46.7237      46.7237 
  277000    127.82239   -10789.343   -9595.6254   -199.54634     102002.7      46.7237      46.7237      46.7237 
  278000    129.62122   -10726.275   -9515.7581   -517.40998     102002.7      46.7237      46.7237      46.7237 
  279000     130.0123    -10736.35   -9522.1813   -293.89998     102002.7      46.7237      46.7237      46.7237 
  280000    128.20483   -10755.476    -9558.187   -417.99173     102002.7      46.7237      46.7237      46.7237 
  281000    130.51049   -10732.447   -9513.6257   -257.05081     102002.7      46.7237      46.7237      46.7237 
  282000    128.22335    -10745.11   -9547.6482   -54.104733     102002.7      46.7237      46.7237      46.7237 
  283000    133.33577   -10747.346   -9502.1399   -465.72676     102002.7      46.7237      46.7237      46.7237 
  284000    130.45437   -10764.047   -9545.7496   -63.745879     102002.7      46.7237      46.7237      46.7237 
  285000     127.9513   -10755.858   -9560.9361    -180.4555     102002.7      46.7237      46.7237      46.7237 
  286000     129.8665   -10759.005   -9546.1974   -182.35358     102002.7      46.7237      46.7237      46.7237 
  287000    130.93538   -10739.077   -9516.2874    66.736674     102002.7      46.7237      46.7237      46.7237 
  288000      129.821   -10735.331   -9522.9484   -81.943064     102002.7      46.7237      46.7237      46.7237 
  289000    128.88229   -10759.125   -9555.5089   -55.341417     102002.7      46.7237      46.7237      46.7237 
  290000    127.11026   -10764.465   -9577.3974   -222.06426     102002.7      46.7237      46.7237      46.7237 
  291000    127.40015   -10711.759   -9521.9842    62.410006     102002.7      46.7237      46.7237      46.7237 
  292000     130.4579    -10744.48   -9526.1495   -123.94483     102002.7      46.7237      46.7237      46.7237 
  293000    131.33717    -10751.55   -9525.0087   -296.88655     102002.7      46.7237      46.7237      46.7237 
  294000    128.85871    -10731.61   -9528.2143   -192.82535     102002.7      46.7237      46.7237      46.7237 
  295000    127.04159   -10766.688   -9580.2625     -388.977     102002.7      46.7237      46.7237      46.7237 
  296000    132.00967   -10716.739   -9483.9169   -515.86305     102002.7      46.7237      46.7237      46.7237 
  297000    129.64143   -10785.369   -9574.6638   -314.23372     102002.7      46.7237      46.7237      46.7237 
  298000    132.54591   -10726.367   -9488.5373   -357.27354     102002.7      46.7237      46.7237      46.7237 
  299000    132.11524   -10774.542    -9540.734   -188.96296     102002.7      46.7237      46.7237      46.7237 
  300000    128.76254   -10761.429   -9558.9316   -374.86031     102002.7      46.7237      46.7237      46.7237 
  301000     131.1637   -10759.086   -9534.1646   -184.14846     102002.7      46.7237      46.7237      46.7237 
  302000    128.54697   -10739.053   -9538.5688   -360.07553     102002.7      46.7237      46.7237      46.7237 
  303000    129.03064   -10731.008   -9526.0063    22.524884     102002.7      46.7237      46.7237      46.7237 
  304000    131.21713    -10730.21    -9504.789   -351.19573     102002.7      46.7237      46.7237      46.7237 
  305000    124.75038   -10762.118    -9597.089   -167.48264     102002.7      46.7237      46.7237      46.7237 
  306000    127.39453   -10731.628   -9541.9065    -176.9848     102002.7      46.7237      46.7237      46.7237 
  307000    127.32077    -10760.98   -9571.9473   -35.173531     102002.7      46.7237      46.7237      46.7237 
  308000    132.76348   -10740.326   -9500.4639      130.339     102002.7      46.7237      46.7237      46.7237 
  309000    127.06653   -10690.479   -9503.8199   -325.75702     102002.7      46.7237      46.7237      46.7237 
  310000    128.34932   -10770.647   -9572.0079   -172.82593     102002.7      46.7237      46.7237      46.7237 
  311000    130.74129   -10748.037   -9527.0604   -326.56773     102002.7      46.7237      46.7237      46.7237 
  312000    129.09662   -10753.838   -9548.2202   -364.53685     102002.7      46.7237      46.7237      46.7237 
  313000     128.1886   -10739.657    -9542.519   -444.66134     102002.7      46.7237      46.7237      46.7237 
  314000     130.0502    -10742.85   -9528.3271   -507.14547     102002.7      46.7237      46.7237      46.7237 
  315000    126.58322   -10719.409   -9537.2636   -224.58346     102002.7      46.7237      46.7237      46.7237 
  316000     128.6582   -10750.603   -9549.0794   -323.15633     102002.7      46.7237      46.7237      46.7237 
  317000    133.21747   -10749.738   -9505.6361   -200.41371     102002.7      46.7237      46.7237      46.7237 
  318000    128.79885    -10767.74   -9564.9036   -306.82576     102002.7      46.7237      46.7237      46.7237 
  319000    125.72001   -10739.473   -9565.3888   -282.91289     102002.7      46.7237      46.7237      46.7237 
  320000    127.73466   -10768.116   -9575.2175   -270.94707     102002.7      46.7237      46.7237      46.7237 
  321000    133.40819   -10713.899   -9468.0163    174.45596     102002.7      46.7237      46.7237      46.7237 
  322000    128.17848   -10792.704   -9595.6606   -112.62803     102002.7      46.7237      46.7237      46.7237 
  323000      130.575   -10760.507   -9541.0834   -198.43148     102002.7      46.7237      46.7237      46.7237 
  324000    128.85025    -10722.32   -9519.0036   -247.99337     102002.7      46.7237      46.7237      46.7237 
  325000    130.15036   -10776.469   -9561.0106   -267.12037     102002.7      46.7237      46.7237      46.7237 
  326000     131.6088   -10766.827   -9537.7481   -386.75802     102002.7      46.7237      46.7237      46.7237 
  327000    132.92237   -10761.225   -9519.8796   -105.73608     102002.7      46.7237      46.7237      46.7237 
  328000    130.23572   -10772.396   -9556.1401   -486.18325     102002.7      46.7237      46.7237      46.7237 
  329000     130.7033   -10732.377    -9511.755     15.40634     102002.7      46.7237      46.7237      46.7237 
  330000    132.02675   -10766.906   -9533.9247   -115.07517     102002.7      46.7237      46.7237      46.7237 
  331000    131.22297   -10720.515   -9495.0397   -192.17327     102002.7      46.7237      46.7237      46.7237 
  332000    131.16406   -10738.303   -9513.3776    172.98861     102002.7      46.7237      46.7237      46.7237 
  333000    126.75774   -10746.458   -9562.6827   -338.61696     102002.7      46.7237      46.7237      46.7237 
  334000    133.38233   -10748.368    -9502.727   -266.68938     102002.7      46.7237      46.7237      46.7237 
  335000    127.47028   -10745.109   -9554.6792    134.95632     102002.7      46.7237      46.7237      46.7237 
  336000    128.52608   -10753.582   -9553.2929   -343.67036     102002.7      46.7237      46.7237      46.7237 
  337000    132.33809    -10756.04    -9520.151   -358.29865     102002.7      46.7237      46.7237      46.7237 
  338000    128.85374   -10715.641    -9512.292   -397.98706     102002.7      46.7237      46.7237      46.7237 
  339000    131.73135   -10756.544   -9526.3207   -359.38158     102002.7      46.7237      46.7237      46.7237 
  340000    131.14138    -10751.93   -9527.2163   -276.30368     102002.7      46.7237      46.7237      46.7237 
  341000    130.30144   -10753.258   -9536.3886   -406.78969     102002.7      46.7237      46.7237      46.7237 
  342000    129.95676   -10771.324   -9557.6739   -391.99785     102002.7      46.7237      46.7237      46.7237 
  343000    128.04525   -10719.849   -9524.0499   -417.44136     102002.7      46.7237      46.7237      46.7237 
  344000    129.32167   -10749.487   -9541.7681   -415.01956     102002.7      46.7237      46.7237      46.7237 
  345000    129.58313   -10761.115   -9550.9539    24.269369     102002.7      46.7237      46.7237      46.7237 
  346000    129.14101   -10741.394   -9535.3617    27.459197     102002.7      46.7237      46.7237      46.7237 
  347000    129.38555   -10768.713   -9560.3972   -584.09473     102002.7      46.7237      46.7237      46.7237 
  348000    131.95166   -10722.526   -9490.2461   -420.17892     102002.7      46.7237      46.7237      46.7237 
  349000    127.16594   -10721.825   -9534.2376   -187.14037     102002.7      46.7237      46.7237      46.7237 
  350000    130.26253   -10765.674   -9549.1681   -381.33919     102002.7      46.7237      46.7237      46.7237 
  351000    132.66355   -10744.735   -9505.8061    140.24559     102002.7      46.7237      46.7237      46.7237 
  352000    127.87287   -10754.739   -9560.5496    108.17236     102002.7      46.7237      46.7237      46.7237 
  353000    129.68673   -10756.501   -9545.3721   -493.87685     102002.7      46.7237      46.7237      46.7237 
  354000    125.91269   -10737.982   -9562.0989   -99.034347     102002.7      46.7237      46.7237      46.7237 
  355000     132.0282   -10740.946   -9507.9502   -382.15023     102002.7      46.7237      46.7237      46.7237 
  356000    129.42364   -10737.577   -9528.9056   -273.68016     102002.7      46.7237      46.7237      46.7237 
  357000     126.9733    -10743.97   -9558.1821   -96.497963     102002.7      46.7237      46.7237      46.7237 
  358000    128.72632   -10742.315   -9540.1558   -474.80845     102002.7      46.7237      46.7237      46.7237 
  359000     131.7013    -10724.46   -9494.5172   -349.81847     102002.7      46.7237      46.7237      46.7237 
  360000    133.93586   -10766.991   -9516.1806   -336.63229     102002.7      46.7237      46.7237      46.7237 
  361000    130.63341     -10749.8   -9529.8304   -155.95933     102002.7      46.7237      46.7237      46.7237 
  362000    125.91947    -10745.86    -9569.914   -280.22297     102002.7      46.7237      46.7237      46.7237 
  363000    128.20256   -10745.968   -9548.7004   -328.39478     102002.7      46.7237      46.7237      46.7237 
  364000    127.59304   -10731.544   -9539.9681   -401.03637     102002.7      46.7237      46.7237      46.7237 
  365000    128.95968   -10722.096   -9517.7572   -357.16267     102002.7      46.7237      46.7237      46.7237 
  366000    126.37693   -10745.902   -9565.6836   -641.18535     102002.7      46.7237      46.7237      46.7237 
  367000     128.3325   -10739.198   -9540.7164    -311.5252     102002.7      46.7237      46.7237      46.7237 
  368000     130.5243   -10718.715   -9499.7644   -465.42728     102002.7      46.7237      46.7237      46.7237 
  369000    128.80634   -10743.737   -9540.8303   -439.82823     102002.7      46.7237      46.7237      46.7237 
  370000    129.93727   -10740.372   -9526.9039   -245.86933     102002.7      46.7237      46.7237      46.7237 
  371000    127.06577   -10776.065   -9589.4136   -177.25808     102002.7      46.7237      46.7237      46.7237 
  372000    128.72059   -10713.973   -9511.8673    -167.0884     102002.7      46.7237      46.7237      46.7237 
  373000    126.16767   -10784.754   -9606.4891   -401.62838     102002.7      46.7237      46.7237      46.7237 
  374000    128.87984   -10733.267   -9529.6734   -441.30656     102002.7      46.7237      46.7237      46.7237 
  375000    125.82197   -10762.343   -9587.3071   -590.69287     102002.7      46.7237      46.7237      46.7237 
  376000     128.7162   -10720.168   -9518.1033   -272.68226     102002.7      46.7237      46.7237      46.7237 
  377000    129.80977   -10780.623   -9568.3458   -229.36059     102002.7      46.7237      46.7237      46.7237 
  378000    130.44565   -10739.933   -9521.7172   -338.46645     102002.7      46.7237      46.7237      46.7237 
  379000    131.33958   -10725.324   -9498.7597   -191.25754     102002.7      46.7237      46.7237      46.7237 
  380000    127.85649   -10748.128   -9554.0918   -315.97306     102002.7      46.7237      46.7237      46.7237 
  381000     127.1822   -10736.178   -9548.4393   -377.82963     102002.7      46.7237      46.7237      46.7237 
  382000    130.02413   -10738.981   -9524.7014   -74.003334     102002.7      46.7237      46.7237      46.7237 
  383000    128.91276   -10743.965   -9540.0644    -114.8829     102002.7      46.7237      46.7237      46.7237 
  384000     128.4185   -10758.021   -9558.7364   -2.2526179     102002.7      46.7237      46.7237      46.7237 
  385000    130.75417   -10735.645   -9514.5477   -9.0066872     102002.7      46.7237      46.7237      46.7237 
  386000    129.26275   -10767.273   -9560.1041   -545.27119     102002.7      46.7237      46.7237      46.7237 
  387000    127.86038   -10737.758   -9543.6851   -182.89117     102002.7      46.7237      46.7237      46.7237 
  388000    134.38109    -10770.24   -9515.2709    1.4316693     102002.7      46.7237      46.7237      46.7237 
  389000    133.44999    -10754.07   -9507.7966    -151.3577     102002.7      46.7237      46.7237      46.7237 
  390000    130.50291   -10753.304   -9534.5529   -68.822399     102002.7      46.7237      46.7237      46.7237 
  391000    128.75962   -10757.952   -9555.4816   -157.43613     102002.7      46.7237      46.7237      46.7237 
  392000     131.4028   -10767.734   -9540.5791   -169.58713     102002.7      46.7237      46.7237      46.7237 
  393000    129.87542   -10739.952   -9527.0614   -225.12093     102002.7      46.7237      46.7237      46.7237 
  394000      130.284   -10737.418   -9520.7115     -267.743     102002.7      46.7237      46.7237      46.7237 
  395000    128.58952    -10752.52   -9551.6384   -219.13461     102002.7      46.7237      46.7237      46.7237 
  396000    133.67046   -10723.467   -9475.1353    -199.8499     102002.7      46.7237      46.7237      46.7237 
  397000     128.1932   -10725.588   -9528.4069   -383.14145     102002.7      46.7237      46.7237      46.7237 
  398000    132.03777   -10764.595   -9531.5101   -314.76902     102002.7      46.7237      46.7237      46.7237 
  399000    130.98687   -10738.538   -9515.2679   -350.14568     102002.7      46.7237      46.7237      46.7237 
  400000    132.08018   -10723.793   -9490.3125   -180.98205     102002.7      46.7237      46.7237      46.7237 
  401000    131.36365   -10753.248   -9526.4587   -426.37183     102002.7      46.7237      46.7237      46.7237 
  402000    130.79262   -10765.487   -9544.0308   -410.76636     102002.7      46.7237      46.7237      46.7237 
  403000    132.14327   -10751.364   -9517.2939   -522.32392     102002.7      46.7237      46.7237      46.7237 
  404000    129.86466   -10748.964   -9536.1741   -515.85071     102002.7      46.7237      46.7237      46.7237 
  405000    130.71566   -10756.603    -9535.865   -84.253171     102002.7      46.7237      46.7237      46.7237 
  406000    130.70491   -10747.283   -9526.6458   -179.71064     102002.7      46.7237      46.7237      46.7237 
  407000    130.20386   -10728.836   -9512.8776   -385.58684     102002.7      46.7237      46.7237      46.7237 
  408000    129.35291   -10745.146   -9537.1352    163.32478     102002.7      46.7237      46.7237      46.7237 
  409000     131.9997   -10748.346   -9515.6169   -284.32507     102002.7      46.7237      46.7237      46.7237 
  410000    131.18174   -10727.433   -9502.3431   -94.512135     102002.7      46.7237      46.7237      46.7237 
  411000    126.60968   -10703.159   -9520.7669   -273.13126     102002.7      46.7237      46.7237      46.7237 
  412000    131.93731   -10741.682   -9509.5352   -168.64637     102002.7      46.7237      46.7237      46.7237 
  413000    129.49262   -10757.428   -9548.1124    52.376362     102002.7      46.7237      46.7237      46.7237 
  414000     132.2406   -10737.013   -9502.0343   -183.51388     102002.7      46.7237      46.7237      46.7237 
  415000    132.76931   -10780.693   -9540.7765   -320.15834     102002.7      46.7237      46.7237      46.7237 
  416000    131.29193   -10756.704   -9530.5845    267.31468     102002.7      46.7237      46.7237      46.7237 
  417000    128.37393   -10742.623   -9543.7546   -470.66889     102002.7      46.7237      46.7237      46.7237 
  418000    130.22526   -10773.812    -9557.654   -295.32973     102002.7      46.7237      46.7237      46.7237 
  419000    134.84679    -10755.58   -9496.2628   -117.12661     102002.7      46.7237      46.7237      46.7237 
  420000     125.1173   -10755.608   -9587.1524   -106.35345     102002.7      46.7237      46.7237      46.7237 
  421000    128.66141   -10745.914   -9544.3608   -330.43617     102002.7      46.7237      46.7237      46.7237 
  422000    131.81673   -10753.981   -9522.9609   -353.47639     102002.7      46.7237      46.7237      46.7237 
  423000    127.13917   -10740.757   -9553.4197   -158.89957     102002.7      46.7237      46.7237      46.7237 
  424000      129.823   -10737.358    -9524.957   -439.43036     102002.7      46.7237      46.7237      46.7237 
  425000    128.34142   -10738.373   -9539.8085    -142.8375     102002.7      46.7237      46.7237      46.7237 
  426000    130.87789   -10737.006   -9514.7535   -50.951512     102002.7      46.7237      46.7237      46.7237 
  427000    128.42802   -10751.696   -9552.3222   -275.81282     102002.7      46.7237      46.7237      46.7237 
  428000    128.70641   -10711.965   -9509.9915   -214.64519     102002.7      46.7237      46.7237      46.7237 
  429000    132.13567   -10763.163   -9529.1638   -293.49819     102002.7      46.7237      46.7237      46.7237 
  430000    129.24207   -10749.587   -9542.6114   -348.88554     102002.7      46.7237      46.7237      46.7237 
  431000    127.75637   -10724.084   -9530.9829   -180.41361     102002.7      46.7237      46.7237      46.7237 
  432000    126.36493   -10748.045   -9567.9385     -326.203     102002.7      46.7237      46.7237      46.7237 
  433000    126.89889   -10781.375   -9596.2816   -461.80493     102002.7      46.7237      46.7237      46.7237 
  434000    132.16655   -10756.939   -9522.6517   -530.19588     102002.7      46.7237      46.7237      46.7237 
  435000    128.10218   -10726.928   -9530.5976   -16.246361     102002.7      46.7237      46.7237      46.7237 
  436000     129.4244    -10761.32   -9552.6415   -167.55949     102002.7      46.7237      46.7237      46.7237 
  437000    131.13802   -10738.493   -9513.8108   -117.27034     102002.7      46.7237      46.7237      46.7237 
  438000    130.92714   -10743.077   -9520.3648   -160.83509     102002.7      46.7237      46.7237      46.7237 
  439000    128.04979   -10751.835   -9555.9936   -202.66148     102002.7      46.7237      46.7237      46.7237 
  440000    125.32175   -10716.495     -9546.13   -251.95797     102002.7      46.7237      46.7237      46.7237 
  441000    128.01657   -10759.589   -9564.0582    102.70979     102002.7      46.7237      46.7237      46.7237 
  442000    129.65102   -10731.598   -9520.8031    101.87844     102002.7      46.7237      46.7237      46.7237 
  443000     135.4051   -10779.328   -9514.7962   -319.09907     102002.7      46.7237      46.7237      46.7237 
  444000    129.63856   -10749.704   -9539.0251   -17.477612     102002.7      46.7237      46.7237      46.7237 
  445000    126.05042   -10763.754   -9586.5845   -381.65702     102002.7      46.7237      46.7237      46.7237 
  446000    132.93434   -10754.778   -9513.3201    214.02323     102002.7      46.7237      46.7237      46.7237 
  447000    129.95164   -10732.296   -9518.6937   -401.87958     102002.7      46.7237      46.7237      46.7237 
  448000    131.01177   -10715.061   -9491.5577   -93.059074     102002.7      46.7237      46.7237      46.7237 
  449000    127.46653   -10764.097   -9573.7024   -60.349299     102002.7      46.7237      46.7237      46.7237 
  450000    129.31264   -10743.908   -9536.2729   -305.45947     102002.7      46.7237      46.7237      46.7237 
  451000    128.09935   -10726.347   -9530.0431   -236.42433     102002.7      46.7237      46.7237      46.7237 
  452000    130.10236   -10739.663   -9524.6524   -167.77373     102002.7      46.7237      46.7237      46.7237 
  453000    131.88582    -10766.51   -9534.8446   -431.49955     102002.7      46.7237      46.7237      46.7237 
  454000    129.35705   -10708.801   -9500.7511    61.249604     102002.7      46.7237      46.7237      46.7237 
  455000    132.01542   -10750.836   -9517.9602      191.771     102002.7      46.7237      46.7237      46.7237 
  456000    128.35096   -10740.257    -9541.603    -110.9337     102002.7      46.7237      46.7237      46.7237 
  457000    134.39478   -10749.033   -9493.9363    74.304704     102002.7      46.7237      46.7237      46.7237 
  458000    130.32128   -10748.904   -9531.8495    -7.640725     102002.7      46.7237      46.7237      46.7237 
  459000    130.57464   -10725.752   -9506.3312   -287.43093     102002.7      46.7237      46.7237      46.7237 
  460000    130.18469   -10704.002   -9488.2232   -19.583176     102002.7      46.7237      46.7237      46.7237 
  461000    129.08018   -10753.465   -9548.0013   -617.98283     102002.7      46.7237      46.7237      46.7237 
  462000     127.8088   -10779.342   -9585.7509   -304.44493     102002.7      46.7237      46.7237      46.7237 
  463000    129.88951     -10744.3   -9531.2782   -19.745926     102002.7      46.7237      46.7237      46.7237 
  464000    131.69829   -10703.498   -9473.5842   -45.558567     102002.7      46.7237      46.7237      46.7237 
  465000    127.64525   -10737.645   -9545.5815   -381.54666     102002.7      46.7237      46.7237      46.7237 
  466000    129.98876   -10742.721   -9528.7721   -125.57443     102002.7      46.7237      46.7237      46.7237 
  467000    131.74393   -10725.562   -9495.2214   -179.62009     102002.7      46.7237      46.7237      46.7237 
  468000    131.65613   -10737.154   -9507.6335    257.09292     102002.7      46.7237      46.7237      46.7237 
  469000    130.47244   -10762.459   -9543.9933   -396.62298     102002.7      46.7237      46.7237      46.7237 
  470000    129.39645    -10776.51   -9568.0927   -415.84529     102002.7      46.7237      46.7237      46.7237 
  471000    130.68223   -10743.138   -9522.7122    145.26013     102002.7      46.7237      46.7237      46.7237 
  472000    128.82535   -10741.054   -9537.9694   -258.18607     102002.7      46.7237      46.7237      46.7237 
  473000    127.14522   -10743.715   -9556.3214    -49.48066     102002.7      46.7237      46.7237      46.7237 
  474000    129.23181   -10743.189   -9536.3093   -546.88711     102002.7      46.7237      46.7237      46.7237 
  475000    130.71364   -10748.973   -9528.2542   -345.58653     102002.7      46.7237      46.7237      46.7237 
  476000    130.14983    -10767.22   -9551.7666   -221.79587     102002.7      46.7237      46.7237      46.7237 
  477000    131.49045   -10761.855   -9533.8819   -126.25251     102002.7      46.7237      46.7237      46.7237 
  478000    132.33116   -10747.642    -9511.817   -442.37687     102002.7      46.7237      46.7237      46.7237 
  479000    132.77843   -10777.727   -9537.7258   -396.90526     102002.7      46.7237      46.7237      46.7237 
  480000    130.37357    -10747.09   -9529.5468    12.941288     102002.7      46.7237      46.7237      46.7237 
  481000    133.50285   -10762.459   -9515.6922   -112.00349     102002.7      46.7237      46.7237      46.7237 
  482000    131.98479   -10764.511   -9531.9214    -213.2171     102002.7      46.7237      46.7237      46.7237 
  483000    128.84029   -10753.544     -9550.32   -405.73481     102002.7      46.7237      46.7237      46.7237 
  484000    131.12376   -10732.781   -9508.2319   -259.83293     102002.7      46.7237      46.7237      46.7237 
  485000    131.24747   -10778.202   -9552.4982   -125.44582     102002.7      46.7237      46.7237      46.7237 
  486000    133.19461   -10761.997    -9518.109   -272.67661     102002.7      46.7237      46.7237      46.7237 
  487000     130.9646   -10761.261   -9538.1985   -59.598855     102002.7      46.7237      46.7237      46.7237 
  488000    131.95094   -10764.224   -9531.9506   -274.19029     102002.7      46.7237      46.7237      46.7237 
  489000    127.35224   -10748.903   -9559.5757   -309.15318     102002.7      46.7237      46.7237      46.7237 
  490000    131.43426   -10766.458   -9539.0092   -155.72387     102002.7      46.7237      46.7237      46.7237 
  491000    129.70661   -10751.769   -9540.4551    269.56842     102002.7      46.7237      46.7237      46.7237 
  492000      130.649   -10762.822   -9542.7065   -67.256658     102002.7      46.7237      46.7237      46.7237 
  493000    130.31538   -10731.578   -9514.5786   -194.00252     102002.7      46.7237      46.7237      46.7237 
  494000    132.64807   -10738.581   -9499.7969   -379.88087     102002.7      46.7237      46.7237      46.7237 
  495000    126.75232   -10728.489    -9544.765   -311.32319     102002.7      46.7237      46.7237      46.7237 
  496000    130.93601   -10748.393   -9525.5974   -423.34801     102002.7      46.7237      46.7237      46.7237 
  497000    130.42052   -10721.168   -9503.1865   -676.11936     102002.7      46.7237      46.7237      46.7237 
  498000     129.5768    -10759.82   -9549.7176   -113.25452     102002.7      46.7237      46.7237      46.7237 
  499000     131.4226   -10759.381   -9532.0416   -128.67001     102002.7      46.7237      46.7237      46.7237 
  500000    127.67529   -10756.096   -9563.7523   -227.06163     102002.7      46.7237      46.7237      46.7237 
  500500    129.23587   -10750.597   -9543.6785   -336.59259     102002.7      46.7237      46.7237      46.7237 
Loop time of 1848.3 on 16 procs for 500000 steps with 3134 atoms

Performance: 23.373 ns/day, 1.027 hours/ns, 270.519 timesteps/s
99.8% CPU use with 16 MPI tasks x no OpenMP threads

MPI task timing breakdown:
Section |  min time  |  avg time  |  max time  |%varavg| %total
---------------------------------------------------------------
Pair    | 866.48     | 1134       | 1365.9     | 470.9 | 61.35
Bond    | 155.13     | 174.55     | 188.99     |  68.0 |  9.44
Neigh   | 17.206     | 17.235     | 17.287     |   0.7 |  0.93
Comm    | 275.17     | 505.29     | 792.67     | 730.4 | 27.34
Output  | 0.021524   | 0.022121   | 0.025708   |   0.6 |  0.00
Modify  | 9.4477     | 10.404     | 11.546     |  23.0 |  0.56
Other   |            | 6.813      |            |       |  0.37

Nlocal:    195.875 ave 217 max 175 min
Histogram: 3 2 2 1 1 0 1 0 2 4
Nghost:    3980.5 ave 4001 max 3948 min
Histogram: 1 1 0 4 0 1 2 1 2 4
Neighs:    11458.6 ave 15776 max 7384 min
Histogram: 1 0 0 2 7 4 1 0 0 1

Total # of neighbors = 183337
Ave neighs/atom = 58.4994
Ave special neighs/atom = 3.67581
Neighbor list builds = 5127
Dangerous builds = 0
Neighbor list info ...
  update every 1 steps, delay 10 steps, check yes
  max neighbors/atom: 2000, page size: 100000
  master list distance cutoff = 16
  ghost atom cutoff = 16
  binsize = 8, bins = 6 6 6
  3 neighbor lists, perpetual/occasional/extra = 3 0 0
  (1) pair buck6d/coul/gauss/dsf, perpetual, skip from (3)
      attributes: half, newton on
      pair build: skip
      stencil: none
      bin: none
  (2) pair lj/cut, perpetual, skip from (3)
      attributes: half, newton on
      pair build: skip
      stencil: none
      bin: none
  (3) neighbor class addition, perpetual
      attributes: half, newton on
      pair build: half/bin/newton
      stencil: half/bin/3d/newton
      bin: standard
Setting up Verlet run ...
  Unit style    : real
  Current step  : 500500
  Time step     : 1
WARNING: Inconsistent image flags (../domain.cpp:786)
Per MPI rank memory allocation (min/avg/max) = 23.43 | 23.43 | 23.43 Mbytes
Step Time TotEng KinEng PotEng E_mol E_pair Temp Pxx Pyy Pzz Pxy Pxz Pyz Cella Cellb Cellc CellAlpha CellBeta CellGamma Volume Press 
  500500       500000   -9543.6785     1206.918   -10750.597    4358.0122   -15108.609    129.23587   -107.89976   -571.44014   -330.43787    1.8312543    93.449955    207.94369      46.7237      46.7237      46.7237           90           90           90     102002.7   -336.59259 
  501000       500500   -9548.8608    1188.4698   -10737.331     4375.495   -15112.826    127.26045   -312.56973    24.570698    383.71952    5.7202153   -251.47546    187.87705      46.7237      46.7237      46.7237           90           90           90     102002.7    31.906832 
  502000       501500   -9590.7714    1189.1597   -10779.931    4343.4086    -15123.34    127.33433   -166.30808   -603.42483   -131.05659    317.73738   -125.26859    161.50279      46.7237      46.7237      46.7237           90           90           90     102002.7   -300.26316 
  503000       502500   -9553.4308     1229.179    -10782.61     4352.574   -15135.184    131.61956   -27.058053    43.350822    38.229145   -215.06417    67.743521   -134.29518      46.7237      46.7237      46.7237           90           90           90     102002.7    18.173971 
  504000       503500   -9593.4383     1209.025   -10802.463    4352.1978   -15154.661    129.46148   -538.32888   -161.69672   -4.8158798   -21.554298   -225.28559   -134.38125      46.7237      46.7237      46.7237           90           90           90     102002.7   -234.94716 
  505000       504500    -9515.077    1239.0954   -10754.172    4382.2794   -15136.452     132.6814   -382.37754   -380.32197   -552.51405      103.688    71.190516   -131.19512      46.7237      46.7237      46.7237           90           90           90     102002.7   -438.40452 
  506000       505500   -9520.0934     1220.333   -10740.426    4381.3098   -15121.736    130.67234   -176.35117   -629.23307   -395.06548    139.45028   -98.049689   -74.931252      46.7237      46.7237      46.7237           90           90           90     102002.7   -400.21657 
  507000       506500   -9502.7292    1242.6901   -10745.419    4376.1711    -15121.59    133.06632   -18.513183   -268.71053   -454.01481   -9.4647355    170.15946     -289.726      46.7237      46.7237      46.7237           90           90           90     102002.7   -247.07951 
  508000       507500    -9510.283    1224.6172     -10734.9    4387.8775   -15122.778    131.13109   -334.39933   -247.98503    -5.848883     151.8105   -88.247374   -235.62439      46.7237      46.7237      46.7237           90           90           90     102002.7   -196.07775 
  509000       508500    -9545.794    1211.1685   -10756.962    4375.2842   -15132.247    129.69101   -545.62735   -602.61497   -56.320545    14.740704    49.166947    50.776464      46.7237      46.7237      46.7237           90           90           90     102002.7   -401.52096 
  510000       509500   -9515.0512    1223.1351   -10738.186    4396.8201   -15135.006    130.97238    -190.1054    140.61358   -123.52742    108.16058   -182.30761    106.78062      46.7237      46.7237      46.7237           90           90           90     102002.7   -57.673077 
  511000       510500   -9555.8061    1208.2996   -10764.106    4365.5552   -15129.661    129.38381   -404.35965   -272.60438   -152.45086    1.8250018    74.868837    108.31865      46.7237      46.7237      46.7237           90           90           90     102002.7   -276.47163 
  512000       511500    -9544.778    1198.0919    -10742.87    4385.4935   -15128.363    128.29078    256.46905   -575.64665    3.6424459   -129.65816     18.13896   -283.50721      46.7237      46.7237      46.7237           90           90           90     102002.7   -105.17839 
  513000       512500   -9576.0787    1168.1352   -10744.214    4354.3953   -15098.609    125.08303   -295.88593    118.09695    117.32371    -127.3524    113.79779   -81.409684      46.7237      46.7237      46.7237           90           90           90     102002.7   -20.155089 
  514000       513500   -9539.6542     1212.628   -10752.282    4397.7079    -15149.99    129.84729   -560.39303    46.999433    182.98109    61.289362    136.96205    89.279474      46.7237      46.7237      46.7237           90           90           90     102002.7    -110.1375 
  515000       514500   -9505.9075    1220.1933   -10726.101    4404.9162   -15131.017    130.65738   -309.56336   -239.03868   -69.425576    308.66449    435.94642    68.627336      46.7237      46.7237      46.7237           90           90           90     102002.7   -206.00921 
  516000       515500   -9558.1471    1181.4629    -10739.61    4375.8187   -15115.429    126.51016   -31.735026   -500.56256    -54.41983   -11.892123   -150.76853    83.508685      46.7237      46.7237      46.7237           90           90           90     102002.7   -195.57247 
  517000       516500   -9539.3124    1203.7383   -10743.051    4385.9613   -15129.012    128.89539   -181.27703   -700.99633   -510.81981   -156.58193   -199.61179   -78.216762      46.7237      46.7237      46.7237           90           90           90     102002.7   -464.36439 
  518000       517500   -9539.7099    1206.9051   -10746.615    4416.6447    -15163.26    129.23449   -479.46309   -226.70324   -424.81247   -69.747237    364.91016    58.474665      46.7237      46.7237      46.7237           90           90           90     102002.7   -376.99293 
  519000       518500    -9502.184    1243.8131   -10745.997    4381.3923   -15127.389    133.18656    297.16122   -16.778416   -782.97313   -155.56914   -100.81606    15.192268      46.7237      46.7237      46.7237           90           90           90     102002.7   -167.53011 
  520000       519500   -9532.4669    1201.0587   -10733.526    4392.6005   -15126.126    128.60846   -171.22634   -372.30892    211.88981   -255.65153    108.16137    197.33067      46.7237      46.7237      46.7237           90           90           90     102002.7   -110.54848 
  521000       520500   -9498.5188    1243.3747   -10741.893    4375.8199   -15117.713    133.13963   -796.13906   -214.45774    88.059406    108.66308    -78.99429    243.13245      46.7237      46.7237      46.7237           90           90           90     102002.7   -307.51246 
  522000       521500   -9545.1197    1213.5033   -10758.623    4392.3954   -15151.018    129.94102   -230.96168    -812.3513   -116.08076    63.315681   -92.342452    46.939356      46.7237      46.7237      46.7237           90           90           90     102002.7   -386.46458 
  523000       522500   -9482.1262    1240.0046   -10722.131    4378.5348   -15100.666    132.77876   -157.18651    184.79338    361.62537    121.50117    49.652777    72.019483      46.7237      46.7237      46.7237           90           90           90     102002.7    129.74408 
  524000       523500   -9505.5431    1217.9977   -10723.541    4397.4952   -15121.036    130.42228   -84.074149    54.137331   -590.38841     222.8135    209.36839   -20.727215      46.7237      46.7237      46.7237           90           90           90     102002.7   -206.77508 
  525000       524500   -9537.5745     1211.369   -10748.944    4372.0641   -15121.008    129.71248   -325.21589   -778.09462   -478.69475   -78.222691    -190.4011    147.32399      46.7237      46.7237      46.7237           90           90           90     102002.7   -527.33509 
  526000       525500   -9552.6218    1227.5761   -10780.198    4388.0363   -15168.234    131.44792   -334.27754    74.973918    122.70871     150.8887   -79.431496   -182.57266      46.7237      46.7237      46.7237           90           90           90     102002.7   -45.531638 
  527000       526500   -9520.3869     1234.773    -10755.16    4385.2951   -15140.455    132.21856   -345.37857   -445.73679   -311.83809   -83.571965   -138.80374   -274.71056      46.7237      46.7237      46.7237           90           90           90     102002.7   -367.65115 
  528000       527500   -9545.7918    1200.2149   -10746.007    4384.4043   -15130.411    128.51811   -649.84769   -830.58124    112.27493   -1.5430972   -292.49662   -139.15027      46.7237      46.7237      46.7237           90           90           90     102002.7   -456.05133 
  529000       528500   -9547.2167    1197.1647   -10744.381    4391.1219   -15135.503     128.1915   -639.88347   -488.79633   -239.01746    372.62087    184.85427    124.71573      46.7237      46.7237      46.7237           90           90           90     102002.7   -455.89909 
  530000       529500   -9531.9509    1225.1425   -10757.093    4373.4936   -15130.587    131.18734   -516.25005    -23.84622   -1.4406016    31.300465   -288.21564   -30.825034      46.7237      46.7237      46.7237           90           90           90     102002.7   -180.51229 
  531000       530500   -9567.8568    1182.4435     -10750.3    4362.7698    -15113.07    126.61516    156.17579   -131.33348     -856.147   -173.15907    318.76847    283.90791      46.7237      46.7237      46.7237           90           90           90     102002.7   -277.10156 
  532000       531500   -9518.7785    1219.2296   -10738.008    4403.0922     -15141.1    130.55418   -507.40899   -363.44764   -215.35784   -58.156549    189.32486    142.17265      46.7237      46.7237      46.7237           90           90           90     102002.7   -362.07149 
  533000       532500   -9563.9587    1203.1903   -10767.149    4377.1162   -15144.265     128.8367   -203.47521   -537.01516   -861.48682    -27.33264    42.012095    467.81188      46.7237      46.7237      46.7237           90           90           90     102002.7    -533.9924 
  534000       533500   -9556.5895    1193.6197   -10750.209    4372.9717   -15123.181    127.81189    25.656439    218.43915   -162.20267    244.42348    150.01949    50.553275      46.7237      46.7237      46.7237           90           90           90     102002.7    27.297639 
  535000       534500    -9515.316     1234.593   -10749.909    4376.9689   -15126.878    132.19929   -371.69756   -103.37777   -598.30952   -134.45588    12.472245    86.013731      46.7237      46.7237      46.7237           90           90           90     102002.7   -357.79495 
  536000       535500   -9496.5216    1223.0405   -10719.562    4406.4801   -15126.042    130.96226   -288.21862   -434.25167   -640.32871    -121.6466   -42.748271    48.325762      46.7237      46.7237      46.7237           90           90           90     102002.7   -454.26633 
  537000       536500   -9541.5068    1205.3674   -10746.874    4381.2016   -15128.076    129.06983   -332.08096   -137.38019    72.160815   -160.88647   -13.831404   -43.651861      46.7237      46.7237      46.7237           90           90           90     102002.7   -132.43345 
  538000       537500   -9543.8332    1200.9996   -10744.833    4400.1536   -15144.986    128.60213   -752.80575   -204.06338   -819.58515   -115.49593    183.21401    8.2837938      46.7237      46.7237      46.7237           90           90           90     102002.7   -592.15143 
  539000       538500   -9524.5296    1200.0812   -10724.611    4402.5163   -15127.127    128.50379   -476.96849   -136.21984   -508.69713    86.185622    -131.0049   -242.91841      46.7237      46.7237      46.7237           90           90           90     102002.7   -373.96182 
  540000       539500   -9565.6847    1203.6012   -10769.286    4369.1378   -15138.424    128.88071   -177.49568   -327.68163   -873.31967    88.791691    -79.02892    203.11695      46.7237      46.7237      46.7237           90           90           90     102002.7   -459.49899 
  541000       540500   -9544.6952    1200.2686   -10744.964    4379.7953   -15124.759    128.52385   -237.57829   -365.69572    78.177581    219.46102    51.704871    199.17479      46.7237      46.7237      46.7237           90           90           90     102002.7   -175.03214 
  542000       541500   -9556.8923    1197.6499   -10754.542    4376.9629   -15131.505    128.24345   -135.75072   -531.16386   -487.07061    50.552373   -82.764212    112.31572      46.7237      46.7237      46.7237           90           90           90     102002.7   -384.66173 
  543000       542500   -9570.1984    1173.9397   -10744.138    4379.1925   -15123.331    125.70458   -717.49832   -41.675146   -356.28703    34.360034   -109.43191    17.609527      46.7237      46.7237      46.7237           90           90           90     102002.7   -371.82017 
  544000       543500   -9511.3827    1230.6341   -10742.017    4395.0285   -15137.045    131.77538   -336.37148    38.650664    89.332851   -84.429813   -108.00019   -22.812343      46.7237      46.7237      46.7237           90           90           90     102002.7   -69.462655 
  545000       544500   -9551.9299    1215.6431   -10767.573    4355.4966    -15123.07    130.17014   -398.63134    93.753894   -178.98866    193.77922    202.11034    130.10311      46.7237      46.7237      46.7237           90           90           90     102002.7    -161.2887 
  546000       545500   -9503.1224    1258.8113   -10761.934    4366.4506   -15128.384    134.79256   -288.79777    560.33139   -362.43428    178.77854    182.13111    102.55852      46.7237      46.7237      46.7237           90           90           90     102002.7   -30.300221 
  547000       546500   -9513.3104    1227.1502   -10740.461    4380.1209   -15120.582    131.40231   -58.430448    494.17092   -275.46361   -123.35837    7.8619121   -36.494929      46.7237      46.7237      46.7237           90           90           90     102002.7     53.42562 
  548000       547500   -9537.7889     1217.033   -10754.822    4367.3303   -15122.152    130.31897   -180.35742    -206.8621   -144.55833   -96.480885    175.97082   -180.65616      46.7237      46.7237      46.7237           90           90           90     102002.7   -177.25928 
  549000       548500   -9519.1155    1227.2509   -10746.366    4383.9442   -15130.311     131.4131   -142.91314   -3.3578737    176.65502   -106.81054   -41.566812    175.73317      46.7237      46.7237      46.7237           90           90           90     102002.7    10.128003 
  550000       549500   -9604.9358    1181.9347   -10786.871    4363.5489   -15150.419    126.56068   -683.40173   -503.74738   -908.52036   -3.1563627   -5.5807932    133.86221      46.7237      46.7237      46.7237           90           90           90     102002.7   -698.55649 
  551000       550500   -9495.0143     1220.893   -10715.907    4410.8987   -15126.806     130.7323   -146.02142   -240.68373    -43.71136    228.98955    83.133882    106.84738      46.7237      46.7237      46.7237           90           90           90     102002.7   -143.47217 
  552000       551500   -9534.6654    1200.3802   -10735.046    4398.9712   -15134.017    128.53581   -556.30612   -197.02723   -167.80262   -167.75816    120.69482    250.10553      46.7237      46.7237      46.7237           90           90           90     102002.7   -307.04532 
  553000       552500   -9526.4858    1204.3139     -10730.8    4383.3355   -15114.135    128.95702   -131.80706   -491.35304   -385.97004   -46.810358   -24.452747     32.62727      46.7237      46.7237      46.7237           90           90           90     102002.7   -336.37671 
  554000       553500   -9500.6288     1213.518   -10714.147    4407.5717   -15121.719     129.9426   -22.769059   -464.54646   -495.18157    141.68263    79.928019   -52.315241      46.7237      46.7237      46.7237           90           90           90     102002.7   -327.49903 
  555000       554500   -9514.7526    1218.5623   -10733.315     4386.064   -15119.379    130.48273   -169.84573   -169.90919   -138.10653   -180.89781    272.12743    147.83078      46.7237      46.7237      46.7237           90           90           90     102002.7   -159.28715 
[...]
  936000       935500   -9508.4295    1228.6366   -10737.066    4404.4544    -15141.52    131.56148     97.51955   -721.20282   -35.236604   -24.542266    66.980383     51.32098      46.7237      46.7237      46.7237           90           90           90     102002.7   -219.63996 
  937000       936500   -9544.0544    1229.0864   -10773.141    4376.3325   -15149.473    131.60964   -8.8500606   -799.70932   -182.16988   -97.706907    209.61959   -190.02256      46.7237      46.7237      46.7237           90           90           90     102002.7   -330.24309 
  938000       937500    -9535.451    1226.4069   -10761.858    4397.4283   -15159.286    131.32272   -432.90428   -306.55412   -3.1985993   -140.43833    109.12561   -73.922864      46.7237      46.7237      46.7237           90           90           90     102002.7   -247.55233 
  939000       938500   -9538.2488    1221.5586   -10759.807     4357.648   -15117.455    130.80357   -466.38177   -256.58754   -449.28394    208.18371    24.012314   -62.183604      46.7237      46.7237      46.7237           90           90           90     102002.7   -390.75108 
  940000       939500   -9544.4454     1204.547   -10748.992    4383.8575    -15132.85    128.98198   -660.00641   -164.53234   -508.75827    34.575379    97.454043   -185.02427      46.7237      46.7237      46.7237           90           90           90     102002.7   -444.43234 
  941000       940500   -9529.9159    1213.1826   -10743.098    4396.8749   -15139.973    129.90668   -488.27286   -34.819151    44.248091    32.783959    111.30333   -67.040161      46.7237      46.7237      46.7237           90           90           90     102002.7   -159.61464 
  942000       941500   -9591.4933    1187.3789   -10778.872    4367.5714   -15146.444    127.14364   -262.63859   -678.05958   -308.76718    68.114611    450.45558   -67.600398      46.7237      46.7237      46.7237           90           90           90     102002.7   -416.48845 
  943000       942500    -9535.553     1201.303   -10736.856    4418.1847   -15155.041    128.63462    -410.5255   -55.973487   -175.05436    187.61066   -40.949226    32.818586      46.7237      46.7237      46.7237           90           90           90     102002.7   -213.85111 
  944000       943500   -9525.9692    1207.0016   -10732.971    4378.6678   -15111.639    129.24482    113.92799    -35.74044   -576.92369    32.184855   -47.561337   -199.08985      46.7237      46.7237      46.7237           90           90           90     102002.7   -166.24538 
  945000       944500   -9503.4683    1231.2018    -10734.67    4365.5988   -15100.269    131.83616    353.60582    63.229743     459.7127    6.3925022    100.99212    234.22888      46.7237      46.7237      46.7237           90           90           90     102002.7    292.18276 
  946000       945500   -9570.4593     1178.462   -10748.921    4390.7064   -15139.628    126.18882    205.16789   -165.77073   -169.88453   -134.19935   -151.59354    5.3707845      46.7237      46.7237      46.7237           90           90           90     102002.7   -43.495792 
  947000       946500   -9554.1711     1212.975   -10767.146    4369.1557   -15136.302    129.88444   -64.976335   -343.83897    244.03604    121.53946    6.7964252    236.29166      46.7237      46.7237      46.7237           90           90           90     102002.7   -54.926424 
  948000       947500    -9524.843    1227.1203   -10751.963    4384.7685   -15136.732    131.39911  -0.46646541   -68.403765   -158.81087   -15.653346   -244.25987    78.277014      46.7237      46.7237      46.7237           90           90           90     102002.7     -75.8937 
  949000       948500   -9538.7445    1222.4378   -10761.182    4379.5714   -15140.754    130.89772   -460.96792   -753.58906   -221.47894    28.088627   -48.800835     -85.6165      46.7237      46.7237      46.7237           90           90           90     102002.7   -478.67864 
  950000       949500   -9544.5355    1223.3642     -10767.9    4369.8552   -15137.755    130.99692   -335.46752   -467.90141   -698.71405   -193.39676    -55.48545     97.83506      46.7237      46.7237      46.7237           90           90           90     102002.7   -500.69433 
  951000       950500     -9526.25     1249.147   -10775.397    4378.7343   -15154.131    133.75772    -281.9435   -371.93528   -815.50796    119.11986    79.191559    74.502862      46.7237      46.7237      46.7237           90           90           90     102002.7   -489.79558 
  952000       951500   -9529.1965    1213.7049   -10742.901    4390.9346   -15133.836    129.96261    -578.5832    33.397141   -129.13359    287.96365    23.931475    267.39191      46.7237      46.7237      46.7237           90           90           90     102002.7   -224.77322 
  953000       952500   -9490.5589    1209.1424   -10699.701    4400.9697   -15100.671    129.47405    18.961663   -561.79996   -452.34302   -83.134099    78.288806    184.47713      46.7237      46.7237      46.7237           90           90           90     102002.7    -331.7271 
  954000       953500   -9525.8713    1218.6187    -10744.49    4371.4823   -15115.972    130.48877   -361.78717   -247.61265   -609.00223   -47.893885   -130.36872    14.454339      46.7237      46.7237      46.7237           90           90           90     102002.7   -406.13401 
  955000       954500   -9552.9401    1203.1079   -10756.048    4405.3789   -15161.427    128.82789   -589.06491   -496.36932   -296.89902    77.603843    157.38711    92.290404      46.7237      46.7237      46.7237           90           90           90     102002.7   -460.77775 
  956000       955500   -9551.9564      1188.98   -10740.936    4382.2233    -15123.16    127.31509    -587.7561   -38.661847   -77.672375    172.00795    99.954086   -30.747974      46.7237      46.7237      46.7237           90           90           90     102002.7   -234.69677 
  957000       956500    -9504.955    1235.4058   -10740.361    4383.5556   -15123.916    132.28633    88.624018   -359.79257    -288.0927    73.312398    -230.0857    98.353637      46.7237      46.7237      46.7237           90           90           90     102002.7   -186.42042 
  958000       957500   -9507.4003    1218.3888   -10725.789    4385.3004   -15111.089    130.46415   -113.71872   -772.14143   -189.78551   -104.30133   -45.774964   -265.89495      46.7237      46.7237      46.7237           90           90           90     102002.7   -358.54855 
  959000       958500   -9527.5795    1224.1068   -10751.686    4382.2475   -15133.934    131.07643   -488.47537   -249.50958    70.530832    91.023141   -125.38134    102.48483      46.7237      46.7237      46.7237           90           90           90     102002.7   -222.48471 
  960000       959500   -9540.4577     1207.487   -10747.945    4399.9846   -15147.929     129.2968    -244.5244    147.76219   -214.33128   -47.237073    192.19815   -29.909605      46.7237      46.7237      46.7237           90           90           90     102002.7   -103.69783 
  961000       960500   -9486.2456    1241.0159   -10727.261    4371.2174   -15098.479    132.88705    117.66811    206.47317   0.87391222    90.102539   -180.29992    361.25225      46.7237      46.7237      46.7237           90           90           90     102002.7     108.3384 
  962000       961500   -9540.5465    1225.3699   -10765.916    4372.0726   -15137.989    131.21168    115.32784   -469.79549    -670.5965   -314.80391    -111.6901   -100.52339      46.7237      46.7237      46.7237           90           90           90     102002.7   -341.68805 
  963000       962500   -9508.5005    1219.4016   -10727.902     4378.672   -15106.574     130.5726    315.61211   -15.950596   -306.34978    20.538751   -273.37821    204.45583      46.7237      46.7237      46.7237           90           90           90     102002.7     -2.22942 
  964000       963500   -9522.2822    1210.3104   -10732.593    4402.4589   -15135.051    129.59912   -257.02839   -713.58286   -324.53164   -52.899873    403.08192    75.519188      46.7237      46.7237      46.7237           90           90           90     102002.7    -431.7143 
  965000       964500   -9546.9229    1184.8592   -10731.782    4407.0584   -15138.841    126.87383    126.23968   -263.72839   -295.18463   -92.961492    40.337982   -27.406317      46.7237      46.7237      46.7237           90           90           90     102002.7   -144.22445 
  966000       965500   -9504.8704    1212.7675   -10717.638    4392.2783   -15109.916    129.86223    118.52022   -497.28793    98.047274   -150.17763   -361.27423    156.96269      46.7237      46.7237      46.7237           90           90           90     102002.7   -93.573479 
  967000       966500   -9547.5989    1214.7827   -10762.382    4370.6048   -15132.986    130.07802   -597.92772   -308.43264   -485.39561   -10.385446    210.70586    70.601115      46.7237      46.7237      46.7237           90           90           90     102002.7   -463.91866 
  968000       967500   -9516.1533    1219.0422   -10735.195    4382.4423   -15117.638    130.53412   -440.38261   -37.449469   -18.651396   -214.76263    192.16167   -140.53572      46.7237      46.7237      46.7237           90           90           90     102002.7   -165.49449 
  969000       968500   -9527.4836     1228.234   -10755.718    4373.7322    -15129.45    131.51837   -60.036513   -421.59984   -434.62291    60.286347    49.499867   -45.191542      46.7237      46.7237      46.7237           90           90           90     102002.7   -305.41976 
  970000       969500   -9538.1169    1202.6076   -10740.724    4381.3081   -15122.033    128.77431   -705.73839    60.817378   -178.25935   -221.52314   -25.740241     46.90373      46.7237      46.7237      46.7237           90           90           90     102002.7   -274.39345 
  971000       970500   -9513.8478    1228.2466   -10742.094    4373.9152    -15116.01    131.51972   -675.27446    114.66526   -259.12343   -280.84195    -62.64593    34.116788      46.7237      46.7237      46.7237           90           90           90     102002.7   -273.24421 
  972000       971500   -9538.6215    1216.3313   -10754.953    4363.4252   -15118.378    130.24384   -670.48962    -476.0175   -482.16898   -333.42426   -119.43679    74.749417      46.7237      46.7237      46.7237           90           90           90     102002.7   -542.89203 
  973000       972500   -9558.1263    1191.0033    -10749.13    4362.0782   -15111.208    127.53173   -124.56497    146.17948    124.31878   -21.751221    12.300423   -154.48467      46.7237      46.7237      46.7237           90           90           90     102002.7    48.644428 
  974000       973500   -9502.0113     1218.374   -10720.385    4411.9031   -15132.288    130.46257   -165.56249   -39.262487   -452.84786   -80.464807     18.82908   -145.78141      46.7237      46.7237      46.7237           90           90           90     102002.7   -219.22428 
  975000       974500   -9524.5086    1225.8484   -10750.357    4384.2231    -15134.58    131.26292   -180.73572   -146.18023    -627.3303   -112.34495    175.96001   -106.11468      46.7237      46.7237      46.7237           90           90           90     102002.7   -318.08208 
  976000       975500   -9542.9979    1231.4272   -10774.425    4360.0385   -15134.464     131.8603   -176.88846   -43.851737   -192.23853   -19.905193   -43.704581   -162.93594      46.7237      46.7237      46.7237           90           90           90     102002.7   -137.65958 
  977000       976500   -9587.1048    1180.9732   -10768.078    4369.6312   -15137.709    126.45772   -500.02188   -336.23423   -284.16856   -108.90082   -69.770669   -123.68479      46.7237      46.7237      46.7237           90           90           90     102002.7   -373.47489 
  978000       977500    -9540.504    1200.2841   -10740.788    4388.4614   -15129.249    128.52552    296.45761    -55.32707   -820.40088   -44.213342    18.506297    198.79411      46.7237      46.7237      46.7237           90           90           90     102002.7   -193.09012 
  979000       978500   -9548.1884    1218.0541   -10766.243    4370.3347   -15136.577    130.42831    34.644651   -140.33323   -586.63591    -240.5836    82.871602    119.70606      46.7237      46.7237      46.7237           90           90           90     102002.7   -230.77483 
  980000       979500   -9541.2572    1224.3979   -10765.655    4358.4494   -15124.105    131.10761    26.809847   -23.013276   -3.6021516   -304.58555   -2.1854606   -74.408109      46.7237      46.7237      46.7237           90           90           90     102002.7  0.064806313 
  981000       980500   -9568.7012     1185.867   -10754.568    4361.7171   -15116.285    126.98174   -58.512563   -431.03747    150.90204   -54.161401   -46.664616   -70.520733      46.7237      46.7237      46.7237           90           90           90     102002.7   -112.88266 
  982000       981500    -9525.991    1198.3649   -10724.356    4391.1876   -15115.544    128.32001   -259.05632   -573.85074   -494.44496   -19.368852   -11.686591    -1.360277      46.7237      46.7237      46.7237           90           90           90     102002.7   -442.45068 
  983000       982500   -9536.9844    1220.9769   -10757.961    4388.9316   -15146.893    130.74128    90.845177   -65.213485   -462.21459   -61.207592    58.597297     381.0609      46.7237      46.7237      46.7237           90           90           90     102002.7   -145.52763 
  984000       983500   -9567.5485     1188.905   -10756.454    4413.5305   -15169.984    127.30705   -777.68737   -457.48565   -48.820653   -506.75834    85.475691   -1.4837099      46.7237      46.7237      46.7237           90           90           90     102002.7   -427.99789 
  985000       984500   -9570.7168    1200.5181   -10771.235    4363.5645   -15134.799    128.55057   -647.09016   -202.33529   -472.83904    45.181543    82.485691    336.06259      46.7237      46.7237      46.7237           90           90           90     102002.7   -440.75483 
  986000       985500   -9534.1952    1220.8122   -10755.007    4403.6793   -15158.687    130.72365   -502.26533   -679.50525   -338.95563   -101.56041   -142.43796   -39.728051      46.7237      46.7237      46.7237           90           90           90     102002.7   -506.90874 
  987000       986500   -9537.9439    1215.4637   -10753.408    4377.7772   -15131.185    130.15094   -262.02226   -146.52023    1.9870462    95.430459     122.5439    182.05476      46.7237      46.7237      46.7237           90           90           90     102002.7   -135.51848 
  988000       987500   -9539.9741    1206.6563    -10746.63    4386.1947   -15132.825    129.20785   -490.55596   -181.78213   -427.62264   -16.619945   -7.1046296   -203.86575      46.7237      46.7237      46.7237           90           90           90     102002.7   -366.65357 
  989000       988500   -9566.7901    1219.9431   -10786.733    4380.9225   -15167.656    130.63059    -398.4594   -747.25459   -724.06498   -57.566708   -240.73742   -335.95236      46.7237      46.7237      46.7237           90           90           90     102002.7   -623.25965 
  990000       989500   -9516.3516    1230.8421   -10747.194    4391.2062     -15138.4    131.79764   -364.18911    -12.67913   -195.27628   -251.09204    244.69424   -171.85181      46.7237      46.7237      46.7237           90           90           90     102002.7   -190.71484 
  991000       990500   -9588.1965    1204.1426   -10792.339    4368.4029   -15160.742    128.93868    -465.3902    -419.3981     244.1326  -0.81950605    31.526781    36.429373      46.7237      46.7237      46.7237           90           90           90     102002.7    -213.5519 
  992000       991500   -9550.1798    1209.8063   -10759.986    4384.7215   -15144.708    129.54515   -694.61459   -219.61701    204.40411   -48.285347    271.66321   -50.149887      46.7237      46.7237      46.7237           90           90           90     102002.7   -236.60916 
  993000       992500   -9504.4029    1237.4614   -10741.864    4418.1196   -15159.984    132.50644    120.04379    431.01932    432.97988   -142.75299    9.8156968    69.466034      46.7237      46.7237      46.7237           90           90           90     102002.7    328.01433 
  994000       993500   -9548.2247     1174.584   -10722.809    4392.4404   -15115.249    125.77357     99.22313    -873.4143    96.547741   -219.04197    31.494287      -175.33      46.7237      46.7237      46.7237           90           90           90     102002.7   -225.88114 
  995000       994500   -9592.8147    1185.2477   -10778.062    4373.9168   -15151.979    126.91543   -329.54889   -216.35323   -635.62502    245.08922    112.79538   -102.58395      46.7237      46.7237      46.7237           90           90           90     102002.7   -393.84238 
  996000       995500   -9563.4793    1187.7956   -10751.275    4389.9016   -15141.176    127.18825   -421.34062   -412.61106   -232.54849     104.5162    66.607336    122.77251      46.7237      46.7237      46.7237           90           90           90     102002.7   -355.50006 
  997000       996500   -9520.0636    1225.4449   -10745.509    4393.2449   -15138.753    131.21972   -206.26614   -300.48238   -310.99401   -70.564517   -20.921767   -189.31201      46.7237      46.7237      46.7237           90           90           90     102002.7   -272.58084 
  998000       997500   -9503.1577    1245.0226    -10748.18    4381.2972   -15129.478    133.31608    132.90762   -712.45212    122.82987    439.13805     83.87498     -57.4837      46.7237      46.7237      46.7237           90           90           90     102002.7   -152.23821 
  999000       998500   -9565.1721    1193.1644   -10758.336    4373.3914   -15131.728    127.76314    -4.938719   -408.76032   -122.36968    194.32804   -1.8167476   -103.20673      46.7237      46.7237      46.7237           90           90           90     102002.7   -178.68957 
 1000000       999500   -9536.4757    1189.0165   -10725.492     4384.989   -15110.481    127.31899    430.81084   -283.25258     108.7349   -119.56654   -83.773795     -438.924      46.7237      46.7237      46.7237           90           90           90     102002.7    85.431054 
 1000500      1000000   -9516.2691    1226.7169   -10742.986    4370.4529   -15113.439    131.35592    330.01465   -327.23796   -556.14635   -241.73161    62.882482    107.36761      46.7237      46.7237      46.7237           90           90           90     102002.7   -184.45655 
Loop time of 2195.41 on 16 procs for 500000 steps with 3134 atoms

Performance: 19.677 ns/day, 1.220 hours/ns, 227.748 timesteps/s
99.8% CPU use with 16 MPI tasks x no OpenMP threads

MPI task timing breakdown:
Section |  min time  |  avg time  |  max time  |%varavg| %total
---------------------------------------------------------------
Pair    | 1102.5     | 1423       | 1689       | 481.4 | 64.82
Bond    | 153.81     | 183.28     | 207.71     | 115.1 |  8.35
Neigh   | 16.875     | 16.904     | 16.959     |   0.8 |  0.77
Comm    | 256.08     | 540.41     | 885.34     | 813.5 | 24.62
Output  | 0.12946    | 0.13567    | 0.13616    |   0.4 |  0.01
Modify  | 23.999     | 24.939     | 26.481     |  17.9 |  1.14
Other   |            | 6.784      |            |       |  0.31

Nlocal:    195.875 ave 219 max 169 min
Histogram: 2 0 4 0 1 1 1 2 3 2
Nghost:    3995.12 ave 4026 max 3970 min
Histogram: 2 2 2 2 1 1 1 3 1 1
Neighs:    11455.6 ave 14764 max 8513 min
Histogram: 1 0 3 0 7 1 2 1 0 1

Total # of neighbors = 183290
Ave neighs/atom = 58.4844
Ave special neighs/atom = 3.67581
Neighbor list builds = 5141
Dangerous builds = 0
Total wall time: 1:07:28
