LAMMPS (30 Mar 2018)
Reading data file ...
  orthogonal box = (0 0 0) to (46.7237 46.7237 46.7237)
  2 by 2 by 4 MPI processor grid
  reading atoms ...
  1744 atoms
  scanning bonds ...
  5 = max bonds/atom
  scanning angles ...
  10 = max angles/atom
  scanning dihedrals ...
  32 = max dihedrals/atom
  scanning impropers ...
  3 = max impropers/atom
  reading bonds ...
  2064 bonds
  reading angles ...
  3696 angles
  reading dihedrals ...
  6240 dihedrals
  reading impropers ...
  1008 impropers
Finding 1-2 1-3 1-4 neighbors ...
  special bond factors lj:   0          0          0         
  special bond factors coul: 0          0          0         
  5 = max # of 1-2 neighbors
  8 = max # of 1-3 neighbors
  20 = max # of 1-4 neighbors
  19 = max # of special neighbors
Finding 1-2 1-3 1-4 neighbors ...
  special bond factors lj:   0          0          1         
  special bond factors coul: 1          1          1         
  5 = max # of 1-2 neighbors
  8 = max # of 1-3 neighbors
  19 = max # of special neighbors
WARNING: Using 'neigh_modify every 1 delay 0 check yes' setting during minimization (../min.cpp:168)
Neighbor list info ...
  update every 1 steps, delay 0 steps, check yes
  max neighbors/atom: 2000, page size: 100000
  master list distance cutoff = 16
  ghost atom cutoff = 16
  binsize = 8, bins = 6 6 6
  3 neighbor lists, perpetual/occasional/extra = 3 0 0
  (1) pair buck6d/coul/gauss/dsf, perpetual, skip from (3)
      attributes: half, newton on
      pair build: skip
      stencil: none
      bin: none
  (2) pair lj/cut, perpetual, skip from (3)
      attributes: half, newton on
      pair build: skip
      stencil: none
      bin: none
  (3) neighbor class addition, perpetual
      attributes: half, newton on
      pair build: half/bin/newton
      stencil: half/bin/3d/newton
      bin: standard
Setting up cg style minimization ...
  Unit style    : real
  Current step  : 0
WARNING: Inconsistent image flags (../domain.cpp:786)
Per MPI rank memory allocation (min/avg/max) = 22.89 | 23.35 | 23.79 Mbytes
Step Temp E_pair E_mol TotEng Press 
       0            0   -11559.169    6482.8914   -5076.2774    6264.7702 
     503            0   -11582.218    3735.3386   -7846.8795   -496.05205 
Loop time of 2.69692 on 16 procs for 503 steps with 1744 atoms

99.9% CPU use with 16 MPI tasks x no OpenMP threads

Minimization stats:
  Stopping criterion = max force evaluations
  Energy initial, next-to-last, final = 
        -5076.27743037      -7846.8744454     -7846.87948701
  Force two-norm initial, final = 2576.91 3.56279
  Force max component initial, final = 151.975 0.534803
  Final line search alpha, max atom move = 0.0334794 0.0179049
  Iterations, force evaluations = 503 1000

MPI task timing breakdown:
Section |  min time  |  avg time  |  max time  |%varavg| %total
---------------------------------------------------------------
Pair    | 1.098      | 1.5856     | 1.9593     |  17.6 | 58.79
Bond    | 0.29849    | 0.35898    | 0.43171    |   6.1 | 13.31
Neigh   | 0.011449   | 0.011542   | 0.011746   |   0.1 |  0.43
Comm    | 0.32542    | 0.70142    | 1.2141     |  26.8 | 26.01
Output  | 0          | 0          | 0          |   0.0 |  0.00
Modify  | 0          | 0          | 0          |   0.0 |  0.00
Other   |            | 0.03939    |            |       |  1.46

Nlocal:    109 ave 125 max 94 min
Histogram: 2 1 2 2 2 2 1 0 1 3
Nghost:    2198.25 ave 2215 max 2182 min
Histogram: 3 1 0 1 2 3 2 2 1 1
Neighs:    11446.4 ave 15747 max 7378 min
Histogram: 2 1 2 3 1 1 1 2 1 2

Total # of neighbors = 183142
Ave neighs/atom = 105.013
Ave special neighs/atom = 6.6055
Neighbor list builds = 10
Dangerous builds = 0
Neighbor list info ...
  update every 1 steps, delay 10 steps, check yes
  max neighbors/atom: 2000, page size: 100000
  master list distance cutoff = 16
  ghost atom cutoff = 16
  binsize = 8, bins = 6 6 6
  3 neighbor lists, perpetual/occasional/extra = 3 0 0
  (1) pair buck6d/coul/gauss/dsf, perpetual, skip from (3)
      attributes: half, newton on
      pair build: skip
      stencil: none
      bin: none
  (2) pair lj/cut, perpetual, skip from (3)
      attributes: half, newton on
      pair build: skip
      stencil: none
      bin: none
  (3) neighbor class addition, perpetual
      attributes: half, newton on
      pair build: half/bin/newton
      stencil: half/bin/3d/newton
      bin: standard
Setting up Verlet run ...
  Unit style    : real
  Current step  : 503
  Time step     : 1
WARNING: Inconsistent image flags (../domain.cpp:786)
Per MPI rank memory allocation (min/avg/max) = 22.54 | 22.6 | 22.67 Mbytes
Step Temp PotEng TotEng Press Volume Lx Ly Lz 
     503           91   -7846.8795   -7374.0843   -284.16996     102002.7      46.7237      46.7237      46.7237 
    1000    82.548856   -7438.4149    -7009.528   -650.17946     102002.7      46.7237      46.7237      46.7237 
    2000    94.672766   -7379.3943    -6887.517   -479.45313     102002.7      46.7237      46.7237      46.7237 
    3000    88.071501   -7355.0627   -6897.4826   -759.02297     102002.7      46.7237      46.7237      46.7237 
    4000    90.152399   -7379.6072   -6911.2157   -595.31172     102002.7      46.7237      46.7237      46.7237 
    5000    92.175687   -7361.7188   -6882.8152   -535.95516     102002.7      46.7237      46.7237      46.7237 
    6000    88.803509   -7386.8174   -6925.4341   -659.68347     102002.7      46.7237      46.7237      46.7237 
    7000    91.022405    -7375.743   -6902.8314   -394.86722     102002.7      46.7237      46.7237      46.7237 
    8000    96.339732   -7367.7418   -6867.2037   -832.45243     102002.7      46.7237      46.7237      46.7237 
    9000    92.948797   -7375.0476   -6892.1274   -635.99523     102002.7      46.7237      46.7237      46.7237 
   10000    93.062168   -7374.8057   -6891.2964   -728.19433     102002.7      46.7237      46.7237      46.7237 
   11000    87.232242   -7362.7859   -6909.5663   -629.97138     102002.7      46.7237      46.7237      46.7237 
   12000     88.72619   -7365.7979   -6904.8164   -869.65984     102002.7      46.7237      46.7237      46.7237 
   13000    90.168933   -7358.0762   -6889.5988   -847.51467     102002.7      46.7237      46.7237      46.7237 
   14000    91.286071   -7373.8838   -6899.6023   -723.79974     102002.7      46.7237      46.7237      46.7237 
   15000    89.475848   -7354.3142   -6889.4378   -744.43203     102002.7      46.7237      46.7237      46.7237 
   16000    90.219541    -7355.866   -6887.1257    -678.9657     102002.7      46.7237      46.7237      46.7237 
   17000    91.565969   -7379.9873   -6904.2516   -667.93685     102002.7      46.7237      46.7237      46.7237 
   18000    90.100872   -7366.4211   -6898.2974    -568.3511     102002.7      46.7237      46.7237      46.7237 
   19000    91.688548     -7353.68   -6877.3074   -528.68073     102002.7      46.7237      46.7237      46.7237 
   20000    89.164536   -7366.3339   -6903.0749   -479.53413     102002.7      46.7237      46.7237      46.7237 
   21000    92.979014   -7374.7184   -6891.6411     -537.093     102002.7      46.7237      46.7237      46.7237 
   22000    91.246851   -7377.9377   -6903.8599   -760.82553     102002.7      46.7237      46.7237      46.7237 
   23000    88.986516   -7353.0784   -6890.7443   -619.32192     102002.7      46.7237      46.7237      46.7237 
   24000    91.122011   -7368.0142    -6894.585   -519.83982     102002.7      46.7237      46.7237      46.7237 
   25000    91.770249   -7377.6477   -6900.8506   -611.36361     102002.7      46.7237      46.7237      46.7237 
   26000    94.326412   -7355.5453   -6865.4675      -690.18     102002.7      46.7237      46.7237      46.7237 
   27000    90.352138   -7375.5065   -6906.0773   -698.96646     102002.7      46.7237      46.7237      46.7237 
   28000    90.731418   -7390.8397     -6919.44   -702.25804     102002.7      46.7237      46.7237      46.7237 
   29000    92.293621   -7366.9923    -6887.476   -772.69627     102002.7      46.7237      46.7237      46.7237 
   30000    91.140205   -7380.7288   -6907.2052   -608.04078     102002.7      46.7237      46.7237      46.7237 
   31000    90.947272   -7371.1608   -6898.6395   -620.81298     102002.7      46.7237      46.7237      46.7237 
   32000    90.623988   -7357.5352   -6886.6936   -775.91227     102002.7      46.7237      46.7237      46.7237 
   33000    87.793388   -7368.9988   -6912.8637   -640.67878     102002.7      46.7237      46.7237      46.7237 
   34000    88.014923   -7354.5726   -6897.2865   -803.60781     102002.7      46.7237      46.7237      46.7237 
   35000    89.830466   -7367.4385   -6900.7197   -392.79259     102002.7      46.7237      46.7237      46.7237 
   36000    90.616347   -7362.8722   -6892.0703   -720.50218     102002.7      46.7237      46.7237      46.7237 
   37000     91.39517   -7375.4901   -6900.6417   -449.84192     102002.7      46.7237      46.7237      46.7237 
   38000    88.674227   -7370.2246   -6909.5131     -827.295     102002.7      46.7237      46.7237      46.7237 
   39000    92.760078   -7353.4245   -6871.4847   -521.10359     102002.7      46.7237      46.7237      46.7237 
   40000    90.883434    -7379.841   -6907.6514   -704.02432     102002.7      46.7237      46.7237      46.7237 
   41000    92.222518   -7374.5036   -6895.3567   -796.23704     102002.7      46.7237      46.7237      46.7237 
   42000    87.850483   -7363.5003   -6907.0685   -747.78693     102002.7      46.7237      46.7237      46.7237 
   43000    92.974414   -7378.6135   -6895.5601   -801.58166     102002.7      46.7237      46.7237      46.7237 
   44000    93.324191   -7364.5951   -6879.7244   -665.83132     102002.7      46.7237      46.7237      46.7237 
   45000    90.804754   -7378.8372   -6907.0564    -615.0462     102002.7      46.7237      46.7237      46.7237 
   46000    90.640462   -7378.0123    -6907.085   -669.54628     102002.7      46.7237      46.7237      46.7237 
   47000    91.663801   -7366.0438   -6889.7997   -640.76494     102002.7      46.7237      46.7237      46.7237 
   48000    88.466657   -7356.7772   -6897.1441   -759.22018     102002.7      46.7237      46.7237      46.7237 
   49000    89.931742   -7346.5913   -6879.3462   -548.89197     102002.7      46.7237      46.7237      46.7237 
   50000    89.009935   -7370.6807   -6908.2249   -597.19478     102002.7      46.7237      46.7237      46.7237 
   51000    91.442812   -7363.0973   -6888.0014   -673.34972     102002.7      46.7237      46.7237      46.7237 
   52000    90.697978   -7365.8418   -6894.6157    -636.2961     102002.7      46.7237      46.7237      46.7237 
   53000    89.831783   -7359.3925   -6892.6668   -535.04983     102002.7      46.7237      46.7237      46.7237 
   54000    89.352697   -7371.0772   -6906.8406   -537.89354     102002.7      46.7237      46.7237      46.7237 
   55000    90.435306   -7381.8805   -6912.0192   -729.08855     102002.7      46.7237      46.7237      46.7237 
   56000    88.495996   -7363.7989   -6904.0134    -690.0853     102002.7      46.7237      46.7237      46.7237 
   57000    91.361745   -7353.9902   -6879.3155   -878.89231     102002.7      46.7237      46.7237      46.7237 
   58000    90.235206   -7381.0698   -6912.2481    -631.4313     102002.7      46.7237      46.7237      46.7237 
   59000    92.468758   -7371.7707   -6891.3444   -546.28537     102002.7      46.7237      46.7237      46.7237 
   60000    89.201577   -7374.6263   -6911.1749   -905.72028     102002.7      46.7237      46.7237      46.7237 
   61000    89.690109   -7374.0676    -6908.078   -926.72544     102002.7      46.7237      46.7237      46.7237 
   62000    92.847696   -7366.5714   -6884.1764    -819.6853     102002.7      46.7237      46.7237      46.7237 
   63000    88.752512   -7382.1735   -6921.0552   -565.48094     102002.7      46.7237      46.7237      46.7237 
   64000    91.763564   -7373.7491   -6896.9867   -877.39219     102002.7      46.7237      46.7237      46.7237 
   65000    89.814327   -7363.2319   -6896.5969   -437.34782     102002.7      46.7237      46.7237      46.7237 
   66000    93.088915   -7377.0994   -6893.4511   -358.56034     102002.7      46.7237      46.7237      46.7237 
   67000    90.538316   -7361.6887   -6891.2922   -406.23214     102002.7      46.7237      46.7237      46.7237 
   68000    91.632392   -7374.5261   -6898.4453   -691.71655     102002.7      46.7237      46.7237      46.7237 
   69000    90.167545   -7353.3323   -6884.8622    -511.7298     102002.7      46.7237      46.7237      46.7237 
   70000    89.570826   -7385.1384   -6919.7685    -567.7317     102002.7      46.7237      46.7237      46.7237 
   71000    92.220022   -7357.5252   -6878.3913   -823.20718     102002.7      46.7237      46.7237      46.7237 
   72000    88.699503   -7354.2527   -6893.4098   -620.46671     102002.7      46.7237      46.7237      46.7237 
   73000    93.408243   -7383.8909   -6898.5835    -568.9855     102002.7      46.7237      46.7237      46.7237 
   74000    94.651357   -7380.3131    -6888.547   -499.27884     102002.7      46.7237      46.7237      46.7237 
   75000    89.309644    -7360.146   -6896.1331   -498.22939     102002.7      46.7237      46.7237      46.7237 
   76000    89.373449   -7380.0732   -6915.7288   -456.53457     102002.7      46.7237      46.7237      46.7237 
   77000    90.314523   -7359.9295   -6890.6957   -657.84459     102002.7      46.7237      46.7237      46.7237 
   78000    91.363654   -7363.0637   -6888.3791   -467.71583     102002.7      46.7237      46.7237      46.7237 
   79000    90.312286   -7378.7193   -6909.4972   -564.76496     102002.7      46.7237      46.7237      46.7237 
   80000    91.891839   -7380.8354   -6903.4066   -579.01423     102002.7      46.7237      46.7237      46.7237 
   81000    94.476111   -7373.2057   -6882.3502   -633.95793     102002.7      46.7237      46.7237      46.7237 
   82000    89.727302   -7371.4526   -6905.2697   -533.80536     102002.7      46.7237      46.7237      46.7237 
   83000     93.76568   -7369.6517   -6882.4873   -275.12923     102002.7      46.7237      46.7237      46.7237 
   84000    92.274387   -7358.0805   -6878.6642   -764.13235     102002.7      46.7237      46.7237      46.7237 
   85000     91.66325   -7375.5358   -6899.2946   -494.29057     102002.7      46.7237      46.7237      46.7237 
   86000    89.937122   -7385.6378   -6918.3648   -572.52669     102002.7      46.7237      46.7237      46.7237 
   87000    93.320306   -7372.8977   -6888.0472   -777.99341     102002.7      46.7237      46.7237      46.7237 
   88000    91.623036   -7378.8358   -6902.8036   -491.35463     102002.7      46.7237      46.7237      46.7237 
   89000    90.202178   -7374.6606   -6906.0105   -688.24069     102002.7      46.7237      46.7237      46.7237 
   90000    93.026988   -7374.1174   -6890.7908   -602.07261     102002.7      46.7237      46.7237      46.7237 
   91000    89.947706   -7381.4657   -6914.1377   -440.25645     102002.7      46.7237      46.7237      46.7237 
   92000    89.217108   -7359.1853   -6895.6531   -702.16399     102002.7      46.7237      46.7237      46.7237 
   93000     91.49008   -7382.0342   -6906.6927   -779.30125     102002.7      46.7237      46.7237      46.7237 
   94000    91.382427   -7353.8879   -6879.1057   -682.14218     102002.7      46.7237      46.7237      46.7237 
   95000    88.355272    -7364.796   -6905.7416   -662.46076     102002.7      46.7237      46.7237      46.7237 
   96000    90.599774   -7357.9957   -6887.2799   -999.24339     102002.7      46.7237      46.7237      46.7237 
   97000    94.013838   -7364.7357   -6876.2819   -623.27953     102002.7      46.7237      46.7237      46.7237 
   98000    91.430621   -7378.3525     -6903.32   -1084.0029     102002.7      46.7237      46.7237      46.7237 
   99000    92.067167   -7343.9762   -6865.6364   -796.87018     102002.7      46.7237      46.7237      46.7237 
  100000    91.553232   -7361.9055   -6886.2359   -866.98374     102002.7      46.7237      46.7237      46.7237 
  101000    92.378492   -7392.8937   -6912.9365   -780.74098     102002.7      46.7237      46.7237      46.7237 
  102000    90.687008   -7369.4485   -6898.2794   -817.79197     102002.7      46.7237      46.7237      46.7237 
  103000    90.531989     -7353.85   -6883.4864   -615.98432     102002.7      46.7237      46.7237      46.7237 
  104000    90.276178   -7369.7533   -6900.7188   -775.52134     102002.7      46.7237      46.7237      46.7237 
  105000    91.427247   -7360.6484   -6885.6334   -677.85078     102002.7      46.7237      46.7237      46.7237 
  106000    88.945532   -7366.6402    -6904.519     -841.462     102002.7      46.7237      46.7237      46.7237 
  107000    89.909942   -7357.1243   -6889.9925   -812.88957     102002.7      46.7237      46.7237      46.7237 
  108000    90.707773   -7371.2792   -6900.0023   -721.43355     102002.7      46.7237      46.7237      46.7237 
  109000    92.740017   -7349.0797   -6867.2441   -516.54191     102002.7      46.7237      46.7237      46.7237 
  110000    91.061134   -7353.3013   -6880.1885   -462.64676     102002.7      46.7237      46.7237      46.7237 
  111000    91.614299   -7383.8096   -6907.8228   -534.13008     102002.7      46.7237      46.7237      46.7237 
  112000    90.858643   -7362.2948    -6890.234   -556.20808     102002.7      46.7237      46.7237      46.7237 
  113000    91.902522   -7372.1784    -6894.694   -651.72512     102002.7      46.7237      46.7237      46.7237 
  114000    92.321089   -7376.4214   -6896.7624   -758.74839     102002.7      46.7237      46.7237      46.7237 
  115000    91.732996   -7368.5266   -6891.9231   -753.76432     102002.7      46.7237      46.7237      46.7237 
  116000    88.804236   -7367.4563   -6906.0693   -666.10743     102002.7      46.7237      46.7237      46.7237 
  117000    91.344245   -7374.2167   -6899.6329   -673.92175     102002.7      46.7237      46.7237      46.7237 
  118000    88.092556    -7354.898   -6897.2086   -681.56523     102002.7      46.7237      46.7237      46.7237 
  119000    92.082086   -7372.1459   -6893.7286   -690.69866     102002.7      46.7237      46.7237      46.7237 
  120000    92.311959   -7361.5979   -6881.9863   -553.46833     102002.7      46.7237      46.7237      46.7237 
  121000    89.002112    -7373.104   -6910.6889   -575.87094     102002.7      46.7237      46.7237      46.7237 
  122000    89.194219   -7354.9915   -6891.5783   -514.73001     102002.7      46.7237      46.7237      46.7237 
  123000    91.187793   -7374.4836   -6900.7127   -629.45052     102002.7      46.7237      46.7237      46.7237 
  124000    90.104888   -7366.1218   -6897.9772   -606.38143     102002.7      46.7237      46.7237      46.7237 
  125000    91.598324   -7350.9163   -6875.0124   -516.14718     102002.7      46.7237      46.7237      46.7237 
  126000     92.80537   -7373.9272    -6891.752   -658.72914     102002.7      46.7237      46.7237      46.7237 
  127000     86.68542   -7368.8505   -6918.4719    -649.0871     102002.7      46.7237      46.7237      46.7237 
  128000    90.205086   -7354.5845   -6885.9193   -764.25794     102002.7      46.7237      46.7237      46.7237 
  129000    89.067895   -7363.8459    -6901.089   -546.04339     102002.7      46.7237      46.7237      46.7237 
  130000    91.936681    -7366.505   -6888.8432   -845.51471     102002.7      46.7237      46.7237      46.7237 
  131000    92.572085   -7359.8264   -6878.8633   -419.36486     102002.7      46.7237      46.7237      46.7237 
  132000    91.608428   -7374.9912   -6899.0348    -607.2925     102002.7      46.7237      46.7237      46.7237 
  133000    89.708586   -7368.4209   -6902.3352   -652.20923     102002.7      46.7237      46.7237      46.7237 
  134000    92.299343   -7360.8505   -6881.3044   -741.65449     102002.7      46.7237      46.7237      46.7237 
  135000    89.848149   -7385.5814   -6918.7707   -547.52281     102002.7      46.7237      46.7237      46.7237 
  136000    92.414573   -7371.0406   -6890.8959   -307.12155     102002.7      46.7237      46.7237      46.7237 
  137000    92.306104   -7392.1555   -6912.5744   -484.46593     102002.7      46.7237      46.7237      46.7237 
  138000    91.056215   -7355.0148   -6881.9275   -434.35294     102002.7      46.7237      46.7237      46.7237 
  139000    90.821054   -7382.4401   -6910.5746   -656.20186     102002.7      46.7237      46.7237      46.7237 
  140000    90.182551   -7369.4327   -6900.8845    -523.4772     102002.7      46.7237      46.7237      46.7237 
  141000    91.852679    -7370.708   -6893.4826   -666.88144     102002.7      46.7237      46.7237      46.7237 
  142000    88.069805   -7377.6322    -6920.061   -754.90464     102002.7      46.7237      46.7237      46.7237 
  143000    92.858826    -7360.063   -6877.6101   -640.48871     102002.7      46.7237      46.7237      46.7237 
  144000    88.671446   -7368.3555   -6907.6584   -906.65476     102002.7      46.7237      46.7237      46.7237 
  145000     90.15103   -7370.8151   -6902.4307   -725.76719     102002.7      46.7237      46.7237      46.7237 
  146000    93.336145    -7362.123   -6877.1902   -754.24377     102002.7      46.7237      46.7237      46.7237 
  147000    90.890902   -7352.9638   -6880.7354   -531.05114     102002.7      46.7237      46.7237      46.7237 
  148000    91.771016   -7386.1793   -6909.3782    -671.4579     102002.7      46.7237      46.7237      46.7237 
  149000    93.382481   -7348.5515    -6863.378   -778.50559     102002.7      46.7237      46.7237      46.7237 
  150000     90.81951   -7372.9689   -6901.1114   -473.90214     102002.7      46.7237      46.7237      46.7237 
  151000     91.08459   -7361.3386   -6888.1039   -802.58234     102002.7      46.7237      46.7237      46.7237 
  152000    90.954308    -7384.089   -6911.5311   -552.90633     102002.7      46.7237      46.7237      46.7237 
  153000    92.398761   -7359.4482   -6879.3857   -746.53441     102002.7      46.7237      46.7237      46.7237 
  154000      93.2032   -7374.5476   -6890.3055   -428.28322     102002.7      46.7237      46.7237      46.7237 
  155000    89.739734   -7374.5271   -6908.2797   -532.67116     102002.7      46.7237      46.7237      46.7237 
  156000    90.595553    -7357.575   -6886.8811   -720.10189     102002.7      46.7237      46.7237      46.7237 
  157000    88.531194   -7359.9002   -6899.9318   -829.04834     102002.7      46.7237      46.7237      46.7237 
  158000     92.95504   -7343.2992   -6860.3464   -898.82284     102002.7      46.7237      46.7237      46.7237 
  159000    90.710883   -7369.3917   -6898.0986   -652.44458     102002.7      46.7237      46.7237      46.7237 
  160000    94.524405   -7352.5236   -6861.4172   -836.95041     102002.7      46.7237      46.7237      46.7237 
  161000    91.065179   -7364.6301   -6891.4962   -664.03582     102002.7      46.7237      46.7237      46.7237 
  162000    89.785762   -7368.9132   -6902.4267   -629.46236     102002.7      46.7237      46.7237      46.7237 
  163000    92.545897   -7359.3788   -6878.5518   -717.78808     102002.7      46.7237      46.7237      46.7237 
  164000    92.177932   -7355.7475   -6876.8323   -632.01136     102002.7      46.7237      46.7237      46.7237 
  165000    88.320783   -7372.0066   -6913.1314   -807.64911     102002.7      46.7237      46.7237      46.7237 
  166000    90.841236   -7369.9014    -6897.931   -582.69939     102002.7      46.7237      46.7237      46.7237 
  167000    91.284537   -7349.6921   -6875.4186   -483.67358     102002.7      46.7237      46.7237      46.7237 
  168000    90.056489   -7372.8709   -6904.9778   -686.77942     102002.7      46.7237      46.7237      46.7237 
  169000    93.644016   -7370.6386   -6884.1062   -481.63507     102002.7      46.7237      46.7237      46.7237 
  170000    93.665535   -7350.6875   -6864.0434   -898.42358     102002.7      46.7237      46.7237      46.7237 
  171000    91.600959   -7382.3051   -6906.3875   -762.45438     102002.7      46.7237      46.7237      46.7237 
  172000    91.968433   -7362.6775   -6884.8507   -745.13311     102002.7      46.7237      46.7237      46.7237 
  173000    92.034068   -7371.7242   -6893.5564   -493.10603     102002.7      46.7237      46.7237      46.7237 
  174000    93.673691   -7369.8336   -6883.1471   -537.73447     102002.7      46.7237      46.7237      46.7237 
  175000    91.443876   -7371.9974    -6896.896   -1019.6732     102002.7      46.7237      46.7237      46.7237 
  176000    92.791378   -7375.5131   -6893.4106   -533.06074     102002.7      46.7237      46.7237      46.7237 
  177000    91.213852   -7374.6115   -6900.7052   -1017.6597     102002.7      46.7237      46.7237      46.7237 
  178000    90.870639   -7364.5078   -6892.3847    -928.0487     102002.7      46.7237      46.7237      46.7237 
  179000    90.654115   -7364.5157   -6893.5175   -747.75036     102002.7      46.7237      46.7237      46.7237 
  180000    92.355603   -7385.3105   -6905.4721   -727.94835     102002.7      46.7237      46.7237      46.7237 
  181000     89.05581    -7360.855   -6898.1609   -687.83682     102002.7      46.7237      46.7237      46.7237 
  182000    93.131832   -7369.9437   -6886.0724   -737.20256     102002.7      46.7237      46.7237      46.7237 
  183000      92.2565   -7375.1925   -6895.8691   -568.09412     102002.7      46.7237      46.7237      46.7237 
  184000     90.18875   -7372.1237   -6903.5434   -895.06333     102002.7      46.7237      46.7237      46.7237 
  185000    88.524088   -7365.7033   -6905.7718   -650.26941     102002.7      46.7237      46.7237      46.7237 
  186000    89.296854   -7383.7887   -6919.8423      -799.97     102002.7      46.7237      46.7237      46.7237 
  187000    93.554189   -7383.2592   -6897.1936   -505.81959     102002.7      46.7237      46.7237      46.7237 
  188000    92.540137   -7354.5502   -6873.7531   -668.19533     102002.7      46.7237      46.7237      46.7237 
  189000    93.093795   -7373.6074   -6889.9337   -680.97767     102002.7      46.7237      46.7237      46.7237 
  190000    91.389257   -7373.7104   -6898.8928   -571.43153     102002.7      46.7237      46.7237      46.7237 
  191000    90.840989   -7360.8729   -6888.9039   -499.18395     102002.7      46.7237      46.7237      46.7237 
  192000    91.776193   -7371.4987   -6894.6707   -636.27057     102002.7      46.7237      46.7237      46.7237 
  193000     91.01686   -7360.0694   -6887.1866   -713.72093     102002.7      46.7237      46.7237      46.7237 
  194000     89.61748   -7375.9739   -6910.3616   -655.31173     102002.7      46.7237      46.7237      46.7237 
  195000    91.025147   -7382.4112   -6909.4854   -590.21509     102002.7      46.7237      46.7237      46.7237 
  196000    90.525743   -7355.1104   -6884.7792   -681.41827     102002.7      46.7237      46.7237      46.7237 
  197000    92.104422   -7361.1923    -6882.659    -713.1507     102002.7      46.7237      46.7237      46.7237 
  198000    94.093159   -7363.4655   -6874.5996   -764.16905     102002.7      46.7237      46.7237      46.7237 
  199000    90.913464   -7369.6704   -6897.3248   -831.92693     102002.7      46.7237      46.7237      46.7237 
  200000    91.030575   -7387.7675   -6914.8134   -947.24546     102002.7      46.7237      46.7237      46.7237 
  201000    92.919606   -7373.2129   -6890.4443    -630.7868     102002.7      46.7237      46.7237      46.7237 
  202000    90.473669   -7357.8172   -6887.7566   -587.06705     102002.7      46.7237      46.7237      46.7237 
  203000    89.279115   -7375.9204   -6912.0661   -422.06118     102002.7      46.7237      46.7237      46.7237 
  204000     90.05915   -7365.5026   -6897.5956    -524.6695     102002.7      46.7237      46.7237      46.7237 
  205000    90.699845   -7373.0351   -6901.7994   -361.98443     102002.7      46.7237      46.7237      46.7237 
  206000     93.51505   -7359.1409   -6873.2786   -534.57333     102002.7      46.7237      46.7237      46.7237 
  207000    90.201786   -7379.6789   -6911.0308   -636.75656     102002.7      46.7237      46.7237      46.7237 
  208000    92.288003   -7361.2364   -6881.7493   -622.26783     102002.7      46.7237      46.7237      46.7237 
  209000    88.926448   -7358.6877   -6896.6657   -579.61296     102002.7      46.7237      46.7237      46.7237 
  210000    91.645804   -7379.9684   -6903.8179    -714.9715     102002.7      46.7237      46.7237      46.7237 
  211000    90.125457   -7365.2599   -6897.0084    -657.7872     102002.7      46.7237      46.7237      46.7237 
  212000    90.536409   -7356.9998   -6886.6132   -590.48037     102002.7      46.7237      46.7237      46.7237 
  213000    87.984462   -7375.1631   -6918.0353   -581.95142     102002.7      46.7237      46.7237      46.7237 
  214000    91.517677   -7363.0599    -6887.575   -628.92513     102002.7      46.7237      46.7237      46.7237 
  215000    89.558742   -7374.7692   -6909.4621   -607.20851     102002.7      46.7237      46.7237      46.7237 
  216000    92.266077   -7379.3761   -6900.0029   -520.85705     102002.7      46.7237      46.7237      46.7237 
  217000    92.028924   -7360.1722   -6882.0311   -597.76376     102002.7      46.7237      46.7237      46.7237 
  218000    92.877415   -7368.0704    -6885.521   -469.41836     102002.7      46.7237      46.7237      46.7237 
  219000    90.234812   -7371.7405   -6902.9209   -927.33983     102002.7      46.7237      46.7237      46.7237 
  220000    90.499659   -7366.0564   -6895.8608   -566.85839     102002.7      46.7237      46.7237      46.7237 
  221000    91.909511   -7357.6115   -6880.0908   -767.73953     102002.7      46.7237      46.7237      46.7237 
  222000    89.494197   -7371.9656   -6906.9938   -779.59163     102002.7      46.7237      46.7237      46.7237 
  223000    87.355317   -7367.6479   -6913.7888   -696.12289     102002.7      46.7237      46.7237      46.7237 
  224000    90.167301   -7357.8439    -6889.375   -968.77447     102002.7      46.7237      46.7237      46.7237 
  225000    90.483817   -7376.3008   -6906.1874   -590.32131     102002.7      46.7237      46.7237      46.7237 
  226000    89.618325   -7367.2902   -6901.6735   -658.72206     102002.7      46.7237      46.7237      46.7237 
  227000    91.111242   -7362.2935   -6888.9203    -775.5884     102002.7      46.7237      46.7237      46.7237 
  228000    89.538613   -7352.1894   -6886.9869   -471.17508     102002.7      46.7237      46.7237      46.7237 
  229000     88.67687   -7349.2234   -6888.4981   -623.86283     102002.7      46.7237      46.7237      46.7237 
  230000     93.42227   -7368.4217   -6883.0414   -626.31537     102002.7      46.7237      46.7237      46.7237 
  231000    87.975421   -7367.9219   -6910.8411   -601.08409     102002.7      46.7237      46.7237      46.7237 
  232000    90.840203   -7367.2543   -6895.2894   -774.90335     102002.7      46.7237      46.7237      46.7237 
  233000    90.613003    -7352.754   -6881.9695   -1044.8167     102002.7      46.7237      46.7237      46.7237 
  234000     87.73765   -7368.3317   -6912.4861   -830.50213     102002.7      46.7237      46.7237      46.7237 
  235000    92.094601   -7368.8393    -6890.357    -1151.542     102002.7      46.7237      46.7237      46.7237 
  236000    93.902482   -7355.5503   -6867.6751   -789.36561     102002.7      46.7237      46.7237      46.7237 
  237000    91.184731   -7363.9691   -6890.2141   -711.11285     102002.7      46.7237      46.7237      46.7237 
  238000    91.249707   -7378.3072   -6904.2146   -684.57444     102002.7      46.7237      46.7237      46.7237 
  239000    90.056289   -7357.3674   -6889.4753   -549.45673     102002.7      46.7237      46.7237      46.7237 
  240000    87.801228   -7368.3918    -6912.216   -1148.9687     102002.7      46.7237      46.7237      46.7237 
  241000    92.283067   -7360.4172   -6880.9558   -683.82678     102002.7      46.7237      46.7237      46.7237 
  242000    91.400446   -7384.2154   -6909.3396   -886.30345     102002.7      46.7237      46.7237      46.7237 
  243000    92.359846   -7368.1276   -6888.2672   -693.88638     102002.7      46.7237      46.7237      46.7237 
  244000     91.91798   -7362.4462   -6884.8815   -542.72829     102002.7      46.7237      46.7237      46.7237 
  245000    93.441996   -7384.1319   -6898.6492   -762.94333     102002.7      46.7237      46.7237      46.7237 
  246000    92.728661   -7371.9509   -6890.1744   -619.91374     102002.7      46.7237      46.7237      46.7237 
  247000    89.934437   -7363.0899   -6895.8309   -873.30522     102002.7      46.7237      46.7237      46.7237 
  248000    91.375064    -7364.387   -6889.6431   -814.35773     102002.7      46.7237      46.7237      46.7237 
  249000    91.013296   -7370.6653    -6897.801   -955.52747     102002.7      46.7237      46.7237      46.7237 
  250000    91.984185   -7368.0299   -6890.1213   -550.63997     102002.7      46.7237      46.7237      46.7237 
  251000    90.905487   -7352.3171   -6880.0129   -650.08171     102002.7      46.7237      46.7237      46.7237 
  252000    91.362707   -7354.8144   -6880.1347   -648.79365     102002.7      46.7237      46.7237      46.7237 
  253000    89.640585   -7368.6621   -6902.9298   -544.46595     102002.7      46.7237      46.7237      46.7237 
  254000    90.123078   -7371.2585   -6903.0194   -897.20538     102002.7      46.7237      46.7237      46.7237 
  255000    89.838806   -7374.5789   -6907.8168   -384.99896     102002.7      46.7237      46.7237      46.7237 
  256000    93.493788   -7378.9751   -6893.2233   -676.56178     102002.7      46.7237      46.7237      46.7237 
  257000    88.272391   -7360.0709   -6901.4471   -772.66311     102002.7      46.7237      46.7237      46.7237 
  258000    92.458586   -7356.1134     -6875.74   -441.48511     102002.7      46.7237      46.7237      46.7237 
  259000    91.463763   -7362.5052   -6887.3005   -717.07005     102002.7      46.7237      46.7237      46.7237 
  260000    90.956829   -7370.0835   -6897.5126   -524.23991     102002.7      46.7237      46.7237      46.7237 
  261000    91.781414   -7361.5998   -6884.7447   -667.28171     102002.7      46.7237      46.7237      46.7237 
  262000    92.737538    -7372.363   -6890.5403    -706.4117     102002.7      46.7237      46.7237      46.7237 
  263000    91.863932    -7369.015   -6891.7311   -564.95624     102002.7      46.7237      46.7237      46.7237 
  264000     89.07467   -7373.0891    -6910.297   -926.33872     102002.7      46.7237      46.7237      46.7237 
  265000    95.351855   -7360.4813   -6865.0758    -518.2398     102002.7      46.7237      46.7237      46.7237 
  266000    91.556875   -7373.3782   -6897.6897   -620.12621     102002.7      46.7237      46.7237      46.7237 
  267000     92.19441   -7370.0385   -6891.0377   -709.97259     102002.7      46.7237      46.7237      46.7237 
  268000    89.430111   -7352.8878    -6888.249   -764.20714     102002.7      46.7237      46.7237      46.7237 
  269000    88.536882   -7366.4204   -6906.4225    -614.9024     102002.7      46.7237      46.7237      46.7237 
  270000    88.409954    -7370.313   -6910.9745   -413.74364     102002.7      46.7237      46.7237      46.7237 
  271000    89.072216   -7358.8735   -6896.0941   -792.30181     102002.7      46.7237      46.7237      46.7237 
  272000    92.768458   -7362.5287   -6880.5454   -648.35755     102002.7      46.7237      46.7237      46.7237 
  273000    88.075767   -7355.7492    -6898.147   -884.25092     102002.7      46.7237      46.7237      46.7237 
  274000    92.330944   -7358.0557   -6878.3455    -614.2091     102002.7      46.7237      46.7237      46.7237 
  275000     94.36139   -7370.4725    -6880.213   -736.10506     102002.7      46.7237      46.7237      46.7237 
  276000    90.559373   -7372.2484   -6901.7425   -757.51577     102002.7      46.7237      46.7237      46.7237 
  277000    93.772775   -7368.0347   -6880.8333   -497.35097     102002.7      46.7237      46.7237      46.7237 
  278000    89.427134   -7371.2557   -6906.6324   -811.36422     102002.7      46.7237      46.7237      46.7237 
  279000    92.380402   -7365.9937   -6886.0265   -782.26947     102002.7      46.7237      46.7237      46.7237 
  280000    90.487933   -7391.5678    -6921.433   -761.83785     102002.7      46.7237      46.7237      46.7237 
  281000     91.42037   -7362.0083   -6887.0291   -875.21062     102002.7      46.7237      46.7237      46.7237 
  282000    91.821122   -7369.8101   -6892.7487   -765.18614     102002.7      46.7237      46.7237      46.7237 
  283000     90.50456   -7371.5398   -6901.3187   -771.60662     102002.7      46.7237      46.7237      46.7237 
  284000    96.060948   -7359.8213   -6860.7316   -733.97732     102002.7      46.7237      46.7237      46.7237 
  285000    90.244397   -7364.3342   -6895.4647   -902.96254     102002.7      46.7237      46.7237      46.7237 
  286000    86.759888   -7374.1955     -6923.43   -796.46801     102002.7      46.7237      46.7237      46.7237 
  287000    90.579224   -7362.9895   -6892.3805   -813.94157     102002.7      46.7237      46.7237      46.7237 
  288000    91.863065   -7358.0332   -6880.7539   -489.26895     102002.7      46.7237      46.7237      46.7237 
  289000    88.650258   -7365.9252   -6905.3382   -629.78454     102002.7      46.7237      46.7237      46.7237 
  290000    90.218418   -7352.2554   -6883.5209   -658.82893     102002.7      46.7237      46.7237      46.7237 
  291000    91.009331   -7367.2657    -6894.422    -720.3747     102002.7      46.7237      46.7237      46.7237 
  292000    91.101286   -7361.0251   -6887.7036   -521.05471     102002.7      46.7237      46.7237      46.7237 
  293000    89.419387   -7370.1315   -6905.5484   -465.28259     102002.7      46.7237      46.7237      46.7237 
  294000    89.085694   -7383.9135   -6921.0642   -621.64513     102002.7      46.7237      46.7237      46.7237 
  295000    92.255343   -7364.8937   -6885.5762    -286.8099     102002.7      46.7237      46.7237      46.7237 
  296000    89.623789   -7371.4246   -6905.7795   -507.31216     102002.7      46.7237      46.7237      46.7237 
  297000    88.787903   -7376.2001    -6914.898   -296.78122     102002.7      46.7237      46.7237      46.7237 
  298000    91.408212   -7364.1192   -6889.2031   -474.74422     102002.7      46.7237      46.7237      46.7237 
  299000    88.934868   -7370.7039   -6908.6382   -731.24928     102002.7      46.7237      46.7237      46.7237 
  300000    91.640756   -7357.6932   -6881.5689   -509.58065     102002.7      46.7237      46.7237      46.7237 
  301000    87.178402   -7383.3652   -6930.4253    -681.3914     102002.7      46.7237      46.7237      46.7237 
  302000    90.405436    -7363.086   -6893.3798   -553.68708     102002.7      46.7237      46.7237      46.7237 
  303000    88.152067   -7378.9364   -6920.9378   -647.25663     102002.7      46.7237      46.7237      46.7237 
  304000    91.061695   -7375.4563   -6902.3406   -319.27053     102002.7      46.7237      46.7237      46.7237 
  305000    94.946465   -7383.3156   -6890.0163   -594.71387     102002.7      46.7237      46.7237      46.7237 
  306000    88.975328   -7367.4188   -6905.1429   -589.85681     102002.7      46.7237      46.7237      46.7237 
  307000    89.280809   -7366.1067   -6902.2437   -590.15401     102002.7      46.7237      46.7237      46.7237 
  308000    92.951166   -7357.7774   -6874.8448   -673.87581     102002.7      46.7237      46.7237      46.7237 
  309000    89.099543    -7372.345   -6909.4237   -639.40742     102002.7      46.7237      46.7237      46.7237 
  310000    91.243962   -7369.3958   -6895.3331   -702.24025     102002.7      46.7237      46.7237      46.7237 
  311000    91.357632   -7357.0399   -6882.3866   -710.54721     102002.7      46.7237      46.7237      46.7237 
  312000    90.761944   -7366.2514    -6894.693   -695.56926     102002.7      46.7237      46.7237      46.7237 
  313000    95.173276   -7369.1068   -6874.6291    -657.1009     102002.7      46.7237      46.7237      46.7237 
  314000    91.391342   -7356.0796   -6881.2511   -789.74088     102002.7      46.7237      46.7237      46.7237 
  315000    91.511639   -7367.4277   -6891.9743   -568.86993     102002.7      46.7237      46.7237      46.7237 
  316000    88.327225   -7373.5741   -6914.6655   -382.22738     102002.7      46.7237      46.7237      46.7237 
  317000    89.523065   -7360.0457   -6894.9239   -351.67886     102002.7      46.7237      46.7237      46.7237 
  318000    93.542177   -7382.4326   -6896.4294   -642.52954     102002.7      46.7237      46.7237      46.7237 
  319000    92.469758   -7370.9949   -6890.5634   -668.52843     102002.7      46.7237      46.7237      46.7237 
  320000    90.985419   -7361.0619   -6888.3424   -481.24923     102002.7      46.7237      46.7237      46.7237 
  321000    90.716512   -7372.4298   -6901.1074    -901.1844     102002.7      46.7237      46.7237      46.7237 
  322000    93.990158   -7360.5712   -6872.2405   -686.29888     102002.7      46.7237      46.7237      46.7237 
  323000     94.08423   -7373.0597   -6884.2402   -784.01196     102002.7      46.7237      46.7237      46.7237 
  324000    89.178013   -7367.5241   -6904.1951   -696.89065     102002.7      46.7237      46.7237      46.7237 
  325000    89.888036   -7365.2758   -6898.2579   -704.67667     102002.7      46.7237      46.7237      46.7237 
  326000    91.934336   -7363.8746    -6886.225   -1138.1194     102002.7      46.7237      46.7237      46.7237 
  327000     93.25697   -7359.6307   -6875.1092   -816.58482     102002.7      46.7237      46.7237      46.7237 
  328000    90.186187   -7366.5909   -6898.0239   -879.64153     102002.7      46.7237      46.7237      46.7237 
  329000    88.753805   -7371.8073   -6910.6823   -606.13042     102002.7      46.7237      46.7237      46.7237 
  330000    91.319092   -7358.7544   -6884.3013   -531.04809     102002.7      46.7237      46.7237      46.7237 
  331000    92.888979   -7385.1007   -6902.4911   -643.99675     102002.7      46.7237      46.7237      46.7237 
  332000     90.53414   -7365.5482   -6895.1734   -461.98904     102002.7      46.7237      46.7237      46.7237 
  333000    88.862656   -7373.9024   -6912.2118   -574.60559     102002.7      46.7237      46.7237      46.7237 
  334000    90.179922   -7372.3562   -6903.8217   -705.64043     102002.7      46.7237      46.7237      46.7237 
  335000    91.946412   -7370.9121   -6893.1997   -923.53437     102002.7      46.7237      46.7237      46.7237 
  336000    92.888475   -7362.3971   -6879.7902   -898.16854     102002.7      46.7237      46.7237      46.7237 
  337000    89.452783   -7363.1655    -6898.409   -927.84715     102002.7      46.7237      46.7237      46.7237 
  338000    89.334192   -7368.8061   -6904.6656   -745.33959     102002.7      46.7237      46.7237      46.7237 
  339000    90.250693   -7364.0439   -6895.1417   -524.69469     102002.7      46.7237      46.7237      46.7237 
  340000    91.608501   -7381.9724   -6906.0157   -820.82851     102002.7      46.7237      46.7237      46.7237 
  341000    89.904475   -7355.5691   -6888.4657     -516.809     102002.7      46.7237      46.7237      46.7237 
  342000    92.546612   -7375.4479   -6894.6172    -651.9129     102002.7      46.7237      46.7237      46.7237 
  343000    91.042052   -7363.4229   -6890.4092   -814.24724     102002.7      46.7237      46.7237      46.7237 
  344000    91.283315   -7350.5877   -6876.3205   -431.02779     102002.7      46.7237      46.7237      46.7237 
  345000    88.184613   -7368.0015   -6909.8337   -464.40182     102002.7      46.7237      46.7237      46.7237 
  346000    88.935737   -7378.4984   -6916.4281   -300.98429     102002.7      46.7237      46.7237      46.7237 
  347000    88.836664   -7362.1858   -6900.6303   -417.28296     102002.7      46.7237      46.7237      46.7237 
  348000    92.074565   -7379.3179   -6900.9397   -362.18484     102002.7      46.7237      46.7237      46.7237 
  349000    92.814912   -7360.7004   -6878.4757    -549.1089     102002.7      46.7237      46.7237      46.7237 
  350000    91.290799   -7371.4417   -6897.1356   -469.93078     102002.7      46.7237      46.7237      46.7237 
  351000    89.091614   -7352.4922   -6889.6121   -872.32889     102002.7      46.7237      46.7237      46.7237 
  352000    92.225057   -7373.1586   -6893.9985   -324.44467     102002.7      46.7237      46.7237      46.7237 
  353000    91.081968   -7355.9922   -6882.7711   -604.90385     102002.7      46.7237      46.7237      46.7237 
  354000     90.19535    -7370.491   -6901.8764   -814.42234     102002.7      46.7237      46.7237      46.7237 
  355000    92.672469   -7366.9881   -6885.5035   -430.43135     102002.7      46.7237      46.7237      46.7237 
  356000    91.264997   -7376.1731    -6902.001   -628.93906     102002.7      46.7237      46.7237      46.7237 
  357000    95.081282    -7372.279   -6878.2793   -445.01082     102002.7      46.7237      46.7237      46.7237 
  358000    92.059157   -7362.5064   -6884.2083   -744.19145     102002.7      46.7237      46.7237      46.7237 
  359000    88.763413   -7381.2261   -6920.0512   -504.38313     102002.7      46.7237      46.7237      46.7237 
  360000    92.244568   -7365.0006   -6885.7391    -524.0603     102002.7      46.7237      46.7237      46.7237 
  361000    93.986256   -7356.2725    -6867.962   -698.93444     102002.7      46.7237      46.7237      46.7237 
  362000     89.71656   -7365.4215   -6899.2945   -529.36985     102002.7      46.7237      46.7237      46.7237 
  363000     91.64929   -7366.7909   -6890.6222   -596.99143     102002.7      46.7237      46.7237      46.7237 
  364000    90.938741   -7381.7492   -6909.2723   -573.53242     102002.7      46.7237      46.7237      46.7237 
  365000    91.260749   -7380.3046   -6906.1546   -488.19147     102002.7      46.7237      46.7237      46.7237 
  366000    92.540309   -7355.5998   -6874.8018   -714.32353     102002.7      46.7237      46.7237      46.7237 
  367000    90.088965   -7358.6832   -6890.6213   -496.75211     102002.7      46.7237      46.7237      46.7237 
  368000    89.878875   -7381.8845   -6914.9141   -1032.3658     102002.7      46.7237      46.7237      46.7237 
  369000    91.084393   -7354.8369   -6881.6032   -287.10694     102002.7      46.7237      46.7237      46.7237 
  370000    89.510698   -7374.7914   -6909.7339   -699.32952     102002.7      46.7237      46.7237      46.7237 
  371000    93.054236   -7365.9535   -6882.4854   -293.29292     102002.7      46.7237      46.7237      46.7237 
  372000    90.082813   -7360.5354   -6892.5055   -490.75718     102002.7      46.7237      46.7237      46.7237 
  373000    91.107096   -7364.7566    -6891.405   -649.65349     102002.7      46.7237      46.7237      46.7237 
  374000    90.836945   -7384.9047   -6912.9567   -502.06513     102002.7      46.7237      46.7237      46.7237 
  375000    91.430215   -7364.8614    -6889.831   -863.48998     102002.7      46.7237      46.7237      46.7237 
  376000    90.922151    -7367.717   -6895.3263   -898.60687     102002.7      46.7237      46.7237      46.7237 
  377000       88.951   -7369.6568   -6907.5073   -778.05556     102002.7      46.7237      46.7237      46.7237 
  378000    95.282363   -7350.5718   -6855.5273   -908.29836     102002.7      46.7237      46.7237      46.7237 
  379000    91.589163   -7372.5485   -6896.6923   -467.52948     102002.7      46.7237      46.7237      46.7237 
  380000    93.531971   -7351.8064   -6865.8562   -798.05456     102002.7      46.7237      46.7237      46.7237 
  381000    92.301073   -7369.2256   -6889.6706   -540.65109     102002.7      46.7237      46.7237      46.7237 
  382000    89.060123   -7365.3842   -6902.6677   -656.24521     102002.7      46.7237      46.7237      46.7237 
  383000     93.49629    -7352.275   -6866.5101   -706.63515     102002.7      46.7237      46.7237      46.7237 
  384000    94.577569   -7370.4688   -6879.0861   -384.92705     102002.7      46.7237      46.7237      46.7237 
  385000    90.205779   -7357.2397   -6888.5709   -591.32224     102002.7      46.7237      46.7237      46.7237 
  386000    91.265895   -7366.1538   -6891.9771   -606.57669     102002.7      46.7237      46.7237      46.7237 
  387000    90.086456   -7379.8165   -6911.7676   -706.50568     102002.7      46.7237      46.7237      46.7237 
  388000    90.198182   -7357.5758   -6888.9464   -950.18395     102002.7      46.7237      46.7237      46.7237 
  389000    89.633006   -7366.1177   -6900.4248   -743.42104     102002.7      46.7237      46.7237      46.7237 
  390000    89.509338   -7373.2122   -6908.1618   -1031.0639     102002.7      46.7237      46.7237      46.7237 
  391000    89.812766    -7362.269   -6895.6421   -782.10902     102002.7      46.7237      46.7237      46.7237 
  392000    89.999767   -7368.4354   -6900.8369   -859.05102     102002.7      46.7237      46.7237      46.7237 
  393000    93.009984   -7358.9849   -6875.7467   -547.86003     102002.7      46.7237      46.7237      46.7237 
  394000     90.71604   -7364.2285   -6892.9086   -714.10291     102002.7      46.7237      46.7237      46.7237 
  395000    88.962733   -7360.9788   -6898.7683   -800.50809     102002.7      46.7237      46.7237      46.7237 
  396000     91.28607   -7374.7711   -6900.4896   -721.15096     102002.7      46.7237      46.7237      46.7237 
  397000     90.82869   -7368.5439   -6896.6387   -589.93796     102002.7      46.7237      46.7237      46.7237 
  398000    90.887604   -7387.4581   -6915.2469   -746.62319     102002.7      46.7237      46.7237      46.7237 
  399000    91.002094   -7359.5471    -6886.741   -989.88846     102002.7      46.7237      46.7237      46.7237 
  400000    92.312001   -7381.7919   -6902.1801   -424.02988     102002.7      46.7237      46.7237      46.7237 
  401000    92.586165   -7375.9499   -6894.9137     -728.308     102002.7      46.7237      46.7237      46.7237 
  402000    91.692022   -7376.7783   -6900.3876   -526.30635     102002.7      46.7237      46.7237      46.7237 
  403000    87.523974   -7366.4704   -6911.7351   -464.61537     102002.7      46.7237      46.7237      46.7237 
  404000    90.677261   -7367.8708   -6896.7524   -409.84845     102002.7      46.7237      46.7237      46.7237 
  405000    94.274223   -7377.9438   -6888.1372   -605.72262     102002.7      46.7237      46.7237      46.7237 
  406000    89.800876   -7359.6849   -6893.1198   -572.30659     102002.7      46.7237      46.7237      46.7237 
  407000    88.436101   -7373.8099   -6914.3356   -673.43043     102002.7      46.7237      46.7237      46.7237 
  408000    89.338946   -7362.2796   -6898.1145   -664.36433     102002.7      46.7237      46.7237      46.7237 
  409000    95.467941   -7381.7575   -6885.7488   -631.15683     102002.7      46.7237      46.7237      46.7237 
  410000    91.167615   -7370.3769   -6896.7108   -598.85022     102002.7      46.7237      46.7237      46.7237 
  411000    91.227834   -7365.2035   -6891.2245   -417.97736     102002.7      46.7237      46.7237      46.7237 
  412000    89.359396   -7382.4394   -6918.1681   -576.88409     102002.7      46.7237      46.7237      46.7237 
  413000    93.204518   -7371.9414   -6887.6925    -369.2104     102002.7      46.7237      46.7237      46.7237 
  414000    93.420579   -7362.4501   -6877.0786   -753.57355     102002.7      46.7237      46.7237      46.7237 
  415000    89.120335   -7363.5513    -6900.522   -915.02767     102002.7      46.7237      46.7237      46.7237 
  416000     90.09109    -7359.955    -6891.882   -804.29584     102002.7      46.7237      46.7237      46.7237 
  417000    89.064746   -7372.1187   -6909.3782    -641.8762     102002.7      46.7237      46.7237      46.7237 
  418000    91.264277   -7372.8931   -6898.7248   -611.87648     102002.7      46.7237      46.7237      46.7237 
  419000    93.825264   -7363.1599   -6875.6858   -470.57083     102002.7      46.7237      46.7237      46.7237 
  420000    91.189946   -7377.6197   -6903.8376   -755.48215     102002.7      46.7237      46.7237      46.7237 
  421000    92.402134   -7374.2403   -6894.1602   -752.04486     102002.7      46.7237      46.7237      46.7237 
  422000    91.776426   -7349.6251   -6872.7959   -494.43317     102002.7      46.7237      46.7237      46.7237 
  423000    91.829707   -7373.0159   -6895.9099   -805.08326     102002.7      46.7237      46.7237      46.7237 
  424000    91.388458   -7377.8333   -6903.0198   -948.27648     102002.7      46.7237      46.7237      46.7237 
  425000     91.73299   -7364.1608   -6887.5573   -756.97601     102002.7      46.7237      46.7237      46.7237 
  426000    86.976849   -7366.9935   -6915.1008   -854.23763     102002.7      46.7237      46.7237      46.7237 
  427000     92.27927   -7363.2244   -6883.7827   -617.02236     102002.7      46.7237      46.7237      46.7237 
  428000    91.874207   -7379.4954   -6902.1582   -856.98351     102002.7      46.7237      46.7237      46.7237 
  429000    87.960974    -7369.935   -6912.9292    -564.7828     102002.7      46.7237      46.7237      46.7237 
  430000    90.181685   -7378.2067   -6909.6631   -808.43611     102002.7      46.7237      46.7237      46.7237 
  431000    90.523581   -7365.1155   -6894.7955   -777.31079     102002.7      46.7237      46.7237      46.7237 
  432000    87.975794   -7376.1185   -6919.0357    -791.5833     102002.7      46.7237      46.7237      46.7237 
  433000    92.931325   -7381.5204   -6898.6908   -939.38481     102002.7      46.7237      46.7237      46.7237 
  434000    89.426274   -7352.3486   -6887.7298    -598.0237     102002.7      46.7237      46.7237      46.7237 
  435000    89.047359   -7371.4544   -6908.8042   -962.64326     102002.7      46.7237      46.7237      46.7237 
  436000    92.066483   -7370.4342   -6892.0981   -956.13765     102002.7      46.7237      46.7237      46.7237 
  437000    91.403419   -7375.0657   -6900.1745   -805.86137     102002.7      46.7237      46.7237      46.7237 
  438000    92.942391   -7364.1392   -6881.2522   -812.08576     102002.7      46.7237      46.7237      46.7237 
  439000    92.349789   -7380.2404   -6900.4323   -848.76042     102002.7      46.7237      46.7237      46.7237 
  440000    87.120043   -7366.3122   -6913.6755    -829.2565     102002.7      46.7237      46.7237      46.7237 
  441000    96.096491   -7356.4644   -6857.1901   -603.47968     102002.7      46.7237      46.7237      46.7237 
  442000    89.399894   -7371.2613   -6906.7796   -877.55612     102002.7      46.7237      46.7237      46.7237 
  443000    94.440152   -7363.9414   -6873.2727   -801.26896     102002.7      46.7237      46.7237      46.7237 
  444000    91.046525    -7372.386    -6899.349   -697.47713     102002.7      46.7237      46.7237      46.7237 
  445000    91.164274   -7364.1602   -6890.5115   -891.54906     102002.7      46.7237      46.7237      46.7237 
  446000    89.858444   -7375.4471   -6908.5829   -703.14747     102002.7      46.7237      46.7237      46.7237 
  447000    91.608795   -7369.2269   -6893.2687   -661.55372     102002.7      46.7237      46.7237      46.7237 
  448000    90.365956   -7359.3562   -6889.8552   -612.88902     102002.7      46.7237      46.7237      46.7237 
  449000    91.604254   -7372.4946   -6896.5599   -704.46177     102002.7      46.7237      46.7237      46.7237 
  450000    91.564604   -7370.8752   -6895.1466   -683.68089     102002.7      46.7237      46.7237      46.7237 
  451000     90.93821     -7377.19   -6904.7158   -768.58349     102002.7      46.7237      46.7237      46.7237 
  452000    90.946181   -7356.1542   -6883.6386   -942.00261     102002.7      46.7237      46.7237      46.7237 
  453000     91.26717   -7355.5024   -6881.3191    -815.2651     102002.7      46.7237      46.7237      46.7237 
  454000    90.793845   -7369.6095   -6897.8854   -831.28668     102002.7      46.7237      46.7237      46.7237 
  455000    96.394627   -7370.0343    -6869.211   -932.53236     102002.7      46.7237      46.7237      46.7237 
  456000    91.530735   -7369.3848   -6893.8321   -631.44255     102002.7      46.7237      46.7237      46.7237 
  457000    89.352557   -7362.6296   -6898.3938   -438.17553     102002.7      46.7237      46.7237      46.7237 
  458000    91.382315   -7366.4848   -6891.7033   -824.39049     102002.7      46.7237      46.7237      46.7237 
  459000    90.548284   -7368.8333    -6898.385   -475.20408     102002.7      46.7237      46.7237      46.7237 
  460000    89.379723   -7376.5729   -6912.1959   -821.42706     102002.7      46.7237      46.7237      46.7237 
  461000    88.103304   -7363.1762   -6905.4309   -658.57887     102002.7      46.7237      46.7237      46.7237 
  462000    93.492368   -7357.4438   -6871.6994   -853.37224     102002.7      46.7237      46.7237      46.7237 
  463000    89.219526   -7363.5726   -6900.0279   -842.11714     102002.7      46.7237      46.7237      46.7237 
  464000     88.75809   -7369.5263    -6908.379   -673.92927     102002.7      46.7237      46.7237      46.7237 
  465000    90.784771   -7370.5747   -6898.8977   -1116.9849     102002.7      46.7237      46.7237      46.7237 
  466000    89.497372   -7373.7794   -6908.7912   -729.74535     102002.7      46.7237      46.7237      46.7237 
  467000     90.38409   -7352.8697   -6883.2745    -840.6004     102002.7      46.7237      46.7237      46.7237 
  468000    89.360208   -7352.3084   -6888.0328   -783.43074     102002.7      46.7237      46.7237      46.7237 
  469000    93.113718   -7366.2349   -6882.4578   -736.00717     102002.7      46.7237      46.7237      46.7237 
  470000    89.285964   -7350.5115   -6886.6216   -640.13209     102002.7      46.7237      46.7237      46.7237 
  471000    91.045897   -7364.9383   -6891.9046   -959.55614     102002.7      46.7237      46.7237      46.7237 
  472000    91.292978   -7370.4728   -6896.1554   -860.79635     102002.7      46.7237      46.7237      46.7237 
  473000    90.155261   -7360.1023    -6891.696   -925.88887     102002.7      46.7237      46.7237      46.7237 
  474000    90.379105   -7356.7024   -6887.1331    -848.4185     102002.7      46.7237      46.7237      46.7237 
  475000    88.242025   -7360.3599   -6901.8938    -655.2811     102002.7      46.7237      46.7237      46.7237 
  476000    90.922318   -7364.9383   -6892.5466   -618.39444     102002.7      46.7237      46.7237      46.7237 
  477000    89.684422   -7379.2632   -6913.3031    -789.3297     102002.7      46.7237      46.7237      46.7237 
  478000    89.338835   -7357.4966    -6893.332   -764.61975     102002.7      46.7237      46.7237      46.7237 
  479000    90.476576   -7376.8283   -6906.7526   -574.66488     102002.7      46.7237      46.7237      46.7237 
  480000    90.870445   -7358.6456   -6886.5235   -835.44716     102002.7      46.7237      46.7237      46.7237 
  481000     89.85647   -7363.6677   -6896.8138   -585.12071     102002.7      46.7237      46.7237      46.7237 
  482000    89.545543   -7371.4734   -6906.2349   -1000.7044     102002.7      46.7237      46.7237      46.7237 
  483000    91.470368   -7383.7931   -6908.5541    -625.0744     102002.7      46.7237      46.7237      46.7237 
  484000    93.657829   -7362.3514   -6875.7473   -703.51747     102002.7      46.7237      46.7237      46.7237 
  485000    88.548097   -7370.7234   -6910.6672   -658.07451     102002.7      46.7237      46.7237      46.7237 
  486000     90.10052   -7374.2204   -6906.0984    -588.2183     102002.7      46.7237      46.7237      46.7237 
  487000    90.321946   -7365.8206   -6896.5482   -678.98516     102002.7      46.7237      46.7237      46.7237 
  488000    91.653758   -7354.7379    -6878.546   -859.05224     102002.7      46.7237      46.7237      46.7237 
  489000    91.236491   -7361.4247   -6887.4008    -528.9919     102002.7      46.7237      46.7237      46.7237 
  490000    92.148511   -7365.8896   -6887.1272   -1196.1013     102002.7      46.7237      46.7237      46.7237 
  491000    89.126255   -7376.8038   -6913.7437   -513.30276     102002.7      46.7237      46.7237      46.7237 
  492000    95.594551   -7372.7905    -6876.124   -732.74046     102002.7      46.7237      46.7237      46.7237 
  493000    87.632062    -7380.383   -6925.0861   -728.30823     102002.7      46.7237      46.7237      46.7237 
  494000    94.989072   -7384.8854   -6891.3647   -610.62813     102002.7      46.7237      46.7237      46.7237 
  495000    92.575981    -7344.421   -6863.4377   -935.96482     102002.7      46.7237      46.7237      46.7237 
  496000    91.192951   -7377.2432   -6903.4455   -569.98087     102002.7      46.7237      46.7237      46.7237 
  497000    91.090636   -7382.8922   -6909.6261   -719.38472     102002.7      46.7237      46.7237      46.7237 
  498000    92.278207   -7360.1182    -6880.682   -694.24634     102002.7      46.7237      46.7237      46.7237 
  499000    88.500415   -7372.1775    -6912.369   -543.65808     102002.7      46.7237      46.7237      46.7237 
  500000    91.548879    -7365.315   -6889.6681   -735.34361     102002.7      46.7237      46.7237      46.7237 
  500503    89.666431   -7357.5014   -6891.6348    -630.6915     102002.7      46.7237      46.7237      46.7237 
Loop time of 1253.3 on 16 procs for 500000 steps with 1744 atoms

Performance: 34.469 ns/day, 0.696 hours/ns, 398.947 timesteps/s
99.8% CPU use with 16 MPI tasks x no OpenMP threads

MPI task timing breakdown:
Section |  min time  |  avg time  |  max time  |%varavg| %total
---------------------------------------------------------------
Pair    | 511.76     | 686.66     | 848.06     | 432.5 | 54.79
Bond    | 161.82     | 173.83     | 190.18     |  55.5 | 13.87
Neigh   | 3.4795     | 3.508      | 3.5709     |   1.9 |  0.28
Comm    | 214.98     | 375.73     | 554.18     | 575.0 | 29.98
Output  | 0.020301   | 0.020648   | 0.023568   |   0.5 |  0.00
Modify  | 7.2558     | 7.9834     | 8.4335     |  12.9 |  0.64
Other   |            | 5.566      |            |       |  0.44

Nlocal:    109 ave 140 max 67 min
Histogram: 1 0 1 1 3 1 5 2 1 1
Nghost:    2209.88 ave 2255 max 2180 min
Histogram: 1 0 6 3 2 2 0 1 0 1
Neighs:    11461.5 ave 15003 max 5887 min
Histogram: 1 1 2 0 1 1 3 2 1 4

Total # of neighbors = 183384
Ave neighs/atom = 105.151
Ave special neighs/atom = 6.6055
Neighbor list builds = 3037
Dangerous builds = 0
Neighbor list info ...
  update every 1 steps, delay 10 steps, check yes
  max neighbors/atom: 2000, page size: 100000
  master list distance cutoff = 16
  ghost atom cutoff = 16
  binsize = 8, bins = 6 6 6
  3 neighbor lists, perpetual/occasional/extra = 3 0 0
  (1) pair buck6d/coul/gauss/dsf, perpetual, skip from (3)
      attributes: half, newton on
      pair build: skip
      stencil: none
      bin: none
  (2) pair lj/cut, perpetual, skip from (3)
      attributes: half, newton on
      pair build: skip
      stencil: none
      bin: none
  (3) neighbor class addition, perpetual
      attributes: half, newton on
      pair build: half/bin/newton
      stencil: half/bin/3d/newton
      bin: standard
Setting up Verlet run ...
  Unit style    : real
  Current step  : 500503
  Time step     : 1
WARNING: Inconsistent image flags (../domain.cpp:786)
Per MPI rank memory allocation (min/avg/max) = 22.87 | 23.27 | 23.34 Mbytes
Step Time TotEng KinEng PotEng E_mol E_pair Temp Pxx Pyy Pzz Pxy Pxz Pyz Cella Cellb Cellc CellAlpha CellBeta CellGamma Volume Press 
  500503       500000   -6891.6348     465.8666   -7357.5014    4217.9304   -11575.432    89.666431   -686.62248   -771.81386   -433.63818   -212.32385    202.81605    100.51427      46.7237      46.7237      46.7237           90           90           90     102002.7    -630.6915 
  501000       500497   -6908.8604    469.37403   -7378.2344    4196.6438   -11574.878    90.341515   -904.49723   -435.33065   -480.69667   -38.380841   -37.101706    101.17692      46.7237      46.7237      46.7237           90           90           90     102002.7   -606.84152 
  502000       501497   -6888.5249    476.10265   -7364.6275     4225.455   -11590.082    91.636587   -642.85684   -965.50828   -783.19991   -15.388729    60.639569   -49.107614      46.7237      46.7237      46.7237           90           90           90     102002.7   -797.18834 
  503000       502497   -6894.4871    465.80401   -7360.2911    4194.1294   -11554.421    89.654385   -394.37527   -395.03364   -965.94521   -173.90783   -13.065027   -154.64209      46.7237      46.7237      46.7237           90           90           90     102002.7   -585.11804 
  504000       503497   -6896.5035    475.20986   -7371.7133    4213.9031   -11585.616     91.46475   -1005.4918   -651.46139   -675.12084    93.472332    162.61234    139.35496      46.7237      46.7237      46.7237           90           90           90     102002.7   -777.35802 
  505000       504497   -6901.6109    477.31126   -7378.9221    4219.1648   -11598.087    91.869212   -688.65591   -668.49615   -594.14804   -69.749475    62.763438   -79.164181      46.7237      46.7237      46.7237           90           90           90     102002.7   -650.43337 
  506000       505497   -6890.8903    481.36222   -7372.2525    4207.7372    -11579.99    92.648909   -340.07434   -213.85953   -677.20098    116.94876   -203.67548    169.07871      46.7237      46.7237      46.7237           90           90           90     102002.7   -410.37828 
  507000       506497    -6895.919    471.44681   -7367.3658    4195.2841    -11562.65    90.740467   -1040.4692   -875.75243    -573.9247    67.896473    55.858967    184.76674      46.7237      46.7237      46.7237           90           90           90     102002.7   -830.04878 
  508000       507497   -6898.1864     479.6627   -7377.8491    4208.4839   -11586.333    92.321798   -771.87849   -760.31515   -607.72677     -101.633  -0.67286342    8.7837346      46.7237      46.7237      46.7237           90           90           90     102002.7    -713.3068 
  509000       508497   -6897.0192    473.95012   -7370.9693     4210.179   -11581.148    91.222285   -602.05946   -1169.3716   -647.42564    345.03054   -95.015712    104.75191      46.7237      46.7237      46.7237           90           90           90     102002.7   -806.28555 
  510000       509497   -6919.3739    465.06238   -7384.4362    4196.7215   -11581.158    89.511641    -361.1906   -852.82606   -437.28111    341.20485   -219.15143    49.274718      46.7237      46.7237      46.7237           90           90           90     102002.7   -550.43259 
  511000       510497   -6889.1916    478.70826   -7367.8999    4197.0171   -11564.917    92.138097    -470.4498   -529.50456   -497.07059    273.61872    75.669749     1.122278      46.7237      46.7237      46.7237           90           90           90     102002.7   -499.00832 
  512000       511497   -6878.1607    492.46267   -7370.6233    4195.6995   -11566.323    94.785439   -863.67901   -553.01029   -966.09791    136.64745     18.25916    149.95815      46.7237      46.7237      46.7237           90           90           90     102002.7   -794.26241 
  513000       512497   -6883.3856    478.17221   -7361.5578    4220.2729   -11581.831    92.034922   -688.19648   -639.55731   -516.25585    100.33195   -192.96139    136.99576      46.7237      46.7237      46.7237           90           90           90     102002.7   -614.66988 
  514000       513497    -6916.524    468.19396   -7384.7179     4183.521   -11568.239    90.114384   -312.13029    -865.3846   -720.00749   -91.222315   -276.86796   -129.38601      46.7237      46.7237      46.7237           90           90           90     102002.7   -632.50746 
  515000       514497   -6881.8563    474.97033   -7356.8266    4203.3917   -11560.218    91.418649   -486.63307   -643.42135   -627.97329   -61.452801    209.29773   -252.37155      46.7237      46.7237      46.7237           90           90           90     102002.7   -586.00924 
  516000       515497   -6902.6313    459.92296   -7362.5543    4224.8578   -11587.412    88.522446   -500.83761   -536.36446   -451.44447     133.7054    11.293008    17.566728      46.7237      46.7237      46.7237           90           90           90     102002.7   -496.21551 
  517000       516497    -6871.693    481.35159   -7353.0446    4217.0837   -11570.128    92.646864    -769.6963   -978.27953   -442.48628   -8.8613197     70.82921    230.03548      46.7237      46.7237      46.7237           90           90           90     102002.7   -730.15404 
  518000       517497   -6886.4036     490.0424    -7376.446    4191.7238    -11568.17    94.319605   -620.07746   -425.62824   -890.09015    205.10528    246.10655    111.88073      46.7237      46.7237      46.7237           90           90           90     102002.7   -645.26528 
  519000       518497   -6921.0223     448.5807    -7369.603    4208.9435   -11578.546    86.339374   -671.51084   -728.29424   -1176.9739   -133.43148    8.5216469    22.925443      46.7237      46.7237      46.7237           90           90           90     102002.7   -858.92634 
  520000       519497   -6876.5909    481.80257   -7358.3935    4210.3644   -11568.758    92.733665   -467.18743   -732.73584   -858.09568   -77.210601   -53.542081    -106.3745      46.7237      46.7237      46.7237           90           90           90     102002.7   -686.00632 
  521000       520497   -6900.6459    467.26402   -7367.9099    4209.9736   -11577.883    89.935395   -925.87902   -493.39583    -628.1647    188.56634    22.484848    249.38791      46.7237      46.7237      46.7237           90           90           90     102002.7   -682.47985 
  522000       521497    -6893.272    476.27452   -7369.5465    4199.8653   -11569.412    91.669667   -980.42198   -630.64682    -753.4144      104.489    136.14251    66.403576      46.7237      46.7237      46.7237           90           90           90     102002.7   -788.16107 
  523000       522497   -6897.9971    477.64087    -7375.638    4194.6784   -11570.316    91.932653    -872.1117   -467.46893   -751.39223   -65.264608   -35.660066    13.984051      46.7237      46.7237      46.7237           90           90           90     102002.7   -696.99095 
  524000       523497   -6893.0925    467.82331   -7360.9158    4222.4727   -11583.389    90.043044   -190.83859   -602.74903   -927.09607    52.392929   -85.509264   -32.863616      46.7237      46.7237      46.7237           90           90           90     102002.7   -573.56123 
  525000       524497   -6878.1514    479.30796   -7357.4594    4222.9244   -11580.384    92.253522   -444.40073   -491.14577   -417.50931   -109.60092   -99.840017    100.13995      46.7237      46.7237      46.7237           90           90           90     102002.7    -451.0186 
  526000       525497   -6905.4863    464.24072   -7369.7271    4214.6759   -11584.403    89.353494   -622.91302   -677.58964   -745.58493   -154.58087   -133.24594   -248.94886      46.7237      46.7237      46.7237           90           90           90     102002.7    -682.0292 
  527000       526497   -6890.0251    466.33491     -7356.36    4207.3402     -11563.7    89.756569   -245.45583   -404.53632   -421.28206    21.288986    198.40266   -250.71333      46.7237      46.7237      46.7237           90           90           90     102002.7    -357.0914 
  528000       527497   -6913.5551    458.66903   -7372.2241    4207.9611   -11580.185    88.281098   -890.25922   -360.37228   -559.01796   -131.12472    12.331654    60.875488      46.7237      46.7237      46.7237           90           90           90     102002.7   -603.21649 
  529000       528497    -6889.412    471.96479   -7361.3768    4210.2018   -11571.579    90.840165   -1030.8461   -294.91251   -501.22439   -44.852959   -20.020663   -47.306077      46.7237      46.7237      46.7237           90           90           90     102002.7   -608.99434 
  530000       529497   -6910.8998    459.90697   -7370.8067    4208.6828    -11579.49    88.519367   -751.50643   -681.55374   -1193.3768    79.878645    30.916692   -50.780574      46.7237      46.7237      46.7237           90           90           90     102002.7   -875.47898 
  531000       530497     -6887.45    463.33326   -7350.7833    4221.8729   -11572.656    89.178834   -701.21765   -872.57108   -702.91593   -59.941597    166.81469    45.089958      46.7237      46.7237      46.7237           90           90           90     102002.7   -758.90155 
  532000       531497   -6916.3748    448.62308   -7364.9979    4191.1918    -11556.19    86.347531    -627.8724    -357.7046   -682.71993    321.33532   -58.093028   -263.24884      46.7237      46.7237      46.7237           90           90           90     102002.7   -556.09897 
  533000       532497   -6903.1899    470.18684   -7373.3767    4195.0906   -11568.467    90.497959   -640.11353   -854.38629   -565.34487   -74.333677   -31.364921    116.31799      46.7237      46.7237      46.7237           90           90           90     102002.7    -686.6149 
  534000       533497   -6904.1247     471.3736   -7375.4983    4201.2079   -11576.706    90.726376   -824.34883   -657.69799    -309.7276    126.69709   -104.98012   -175.75258      46.7237      46.7237      46.7237           90           90           90     102002.7   -597.25814 
  535000       534497   -6874.7353    490.29949   -7365.0348    4213.2761   -11578.311    94.369086   -619.45501   -724.11205    -894.4171    13.827407   -335.52321    36.023232      46.7237      46.7237      46.7237           90           90           90     102002.7   -745.99472 
  536000       535497    -6894.812    471.21945   -7366.0315    4215.1724   -11581.204    90.696706    -995.3108   -873.26141    -783.8792    183.60761    104.72447   -194.98126      46.7237      46.7237      46.7237           90           90           90     102002.7   -884.15047 
  537000       536497   -6888.9772    463.93568   -7352.9129    4216.4374    -11569.35    89.294783   -986.71897     -820.316   -742.50697    13.701455   -97.058442   -109.17942      46.7237      46.7237      46.7237           90           90           90     102002.7   -849.84731 
  538000       537497   -6882.9843    474.75771    -7357.742    4217.3954   -11575.137    91.377724   -491.80735    -891.2831   -958.34363    -14.90797    14.533004    63.783402      46.7237      46.7237      46.7237           90           90           90     102002.7   -780.47802 
  539000       538497   -6906.0812     455.7213   -7361.8025     4209.029   -11570.831    87.713742   -543.37144   -559.54146   -880.16693   -69.192579    30.939668    195.45498      46.7237      46.7237      46.7237           90           90           90     102002.7   -661.02661 
  540000       539497   -6906.8464    464.22217   -7371.0686    4211.5878   -11582.656    89.349925    -572.5145   -378.22603   -285.92112   -240.99877    62.292245   -147.22957      46.7237      46.7237      46.7237           90           90           90     102002.7   -412.22055 
  541000       540497   -6898.6779    463.25995   -7361.9379    4216.1281   -11578.066    89.164724    -674.6382   -732.47741   -685.28916    94.437335     134.8212    89.470985      46.7237      46.7237      46.7237           90           90           90     102002.7   -697.46826 
  542000       541497   -6877.4031    483.45494   -7360.8581    4219.4459   -11580.304    93.051699   -815.97926   -706.42229   -761.89356    28.850796   -41.823335   -206.38038      46.7237      46.7237      46.7237           90           90           90     102002.7    -761.4317 
  543000       542497   -6930.1937    455.47945   -7385.6732    4188.9876   -11574.661    87.667193   -580.61368   -678.10504   -429.79641   -45.934127   -54.931482    192.67385      46.7237      46.7237      46.7237           90           90           90     102002.7   -562.83838 
  544000       543497   -6890.2983    476.37314   -7366.6714    4213.8546   -11580.526     91.68865   -401.12227   -562.92287   -1107.8961   -155.22507   -116.82566    34.118384      46.7237      46.7237      46.7237           90           90           90     102002.7   -690.64708 
  545000       544497   -6910.5326    456.20631   -7366.7389    4213.7943   -11580.533    87.807093   -614.50235    -450.1418   -541.56504   -166.03306   -137.52829   -106.37008      46.7237      46.7237      46.7237           90           90           90     102002.7   -535.40306 
  546000       545497    -6882.283    482.65867   -7364.9416    4202.8966   -11567.838     92.89844   -877.66089   -771.17872   -1001.2556     179.6848    10.735516   -219.95385      46.7237      46.7237      46.7237           90           90           90     102002.7   -883.36505 
  547000       546497   -6894.4467    481.64226   -7376.0889    4193.9046   -11569.994     92.70281    -364.2251   -422.79008   -721.38428   -58.683344    146.12628    11.076471      46.7237      46.7237      46.7237           90           90           90     102002.7   -502.79982 
  548000       547497   -6907.0674    466.89577   -7373.9632    4217.1787   -11591.142    89.864519   -184.22663   -1101.2424   -1096.4722    -308.6282   -23.223234    1.2067808      46.7237      46.7237      46.7237           90           90           90     102002.7   -793.98041 
  549000       548497   -6911.6537    463.43525    -7375.089    4205.5366   -11580.626    89.198464   -525.67825    -692.0339   -453.71332    200.51271   -206.59091   -33.501343      46.7237      46.7237      46.7237           90           90           90     102002.7   -557.14182 
  550000       549497   -6890.0625    483.10869   -7373.1712    4190.1098   -11563.281    92.985058       -874.7   -473.03958   -799.33271    -206.1599   -136.80043     149.9821      46.7237      46.7237      46.7237           90           90           90     102002.7   -715.69076 
  551000       550497   -6868.7252    486.74713   -7355.4723     4234.872   -11590.344    93.685356   -238.57709   -807.28885   -833.04039   -32.035078   -53.123553    69.862984      46.7237      46.7237      46.7237           90           90           90     102002.7   -626.30211 
  552000       551497   -6892.5486    478.91918   -7371.4678    4205.8618    -11577.33    92.178692   -865.57262   -804.01466   -838.25717   -73.657925    123.25449    44.999137      46.7237      46.7237      46.7237           90           90           90     102002.7   -835.94815 
  553000       552497   -6912.1011     469.2891   -7381.3902     4201.024   -11582.414    90.325169    -460.6562   -717.64534   -519.45334    84.930048   -47.677211      67.2369      46.7237      46.7237      46.7237           90           90           90     102002.7   -565.91829 
  554000       553497   -6887.5315    475.26076   -7362.7922    4209.9423   -11572.735    91.474547   -494.80326   -925.21434   -731.45543    78.367015   -111.54573   -56.540406      46.7237      46.7237      46.7237           90           90           90     102002.7   -717.15767 
  555000       554497   -6910.5294    459.68915   -7370.2185    4208.7948   -11579.013    88.477444   -501.23673   -1067.6497   -647.33434   -239.31435   -84.979036    38.676458      46.7237      46.7237      46.7237           90           90           90     102002.7   -738.74025 
[...]
  936000       935497   -6905.1053    466.30421   -7371.4095    4206.7009    -11578.11    89.750659   -982.04672   -672.31164   -796.17895    175.72137   -211.73576    45.335928      46.7237      46.7237      46.7237           90           90           90     102002.7   -816.84577 
  937000       936497   -6916.7224    484.79727   -7401.5196    4197.1201    -11598.64    93.310061   -484.01351   -823.74026   -402.16075    94.058231    90.738752   -11.798565      46.7237      46.7237      46.7237           90           90           90     102002.7   -569.97151 
  938000       937497   -6892.4363    476.33692   -7368.7733    4199.4553   -11568.229    91.681678   -450.02729   -778.83746   -520.01175   -141.62747    97.337157   -55.153203      46.7237      46.7237      46.7237           90           90           90     102002.7   -582.95883 
  939000       938497   -6917.1491    458.42945   -7375.5785    4207.1924   -11582.771    88.234986   -605.81763    -887.6321   -960.31829    64.568905    60.053651     251.1559      46.7237      46.7237      46.7237           90           90           90     102002.7   -817.92267 
  940000       939497   -6905.0639    471.71614   -7376.7801    4192.4397    -11569.22    90.792305   -588.18626    -610.7215   -783.57627    122.80794   -82.836832    50.602215      46.7237      46.7237      46.7237           90           90           90     102002.7   -660.82801 
  941000       940497     -6891.63    469.84705   -7361.4771    4218.0797   -11579.557    90.432558   -794.27567   -695.39094   -846.39062    135.42772    64.237099    103.01148      46.7237      46.7237      46.7237           90           90           90     102002.7   -778.68575 
  942000       941497   -6884.0056    467.41471   -7351.4203    4236.8919   -11588.312      89.9644   -788.41118   -1124.2008   -652.09286    240.96605    205.72261   -1.6214281      46.7237      46.7237      46.7237           90           90           90     102002.7   -854.90162 
  943000       942497   -6908.1285    465.53756   -7373.6661    4202.9572   -11576.623      89.6031   -1019.9728   -752.49568   -967.71438    73.362674    180.61646   -185.19153      46.7237      46.7237      46.7237           90           90           90     102002.7   -913.39429 
  944000       943497   -6905.2643    461.28925   -7366.5535    4193.0204   -11559.574    88.785417   -807.96338   -544.90372   -886.41798   -106.71626     161.6238    175.67409      46.7237      46.7237      46.7237           90           90           90     102002.7   -746.42836 
  945000       944497   -6879.4392    474.06651   -7353.5057    4230.2609   -11583.767    91.244687   -650.71971   -812.80359   -637.14678    182.86277    323.67095   -47.231974      46.7237      46.7237      46.7237           90           90           90     102002.7   -700.22336 
  946000       945497   -6903.9853      454.888   -7358.8733    4212.3183   -11571.192    87.553355   -487.02494   -559.99014    -957.8902    85.319663    125.94099    186.25573      46.7237      46.7237      46.7237           90           90           90     102002.7   -668.30176 
  947000       946497   -6894.7481    468.82161   -7363.5697    4225.6773   -11589.247    90.235189   -762.89177   -1083.1021    -988.7128   -11.071132    144.47299   -71.516544      46.7237      46.7237      46.7237           90           90           90     102002.7   -944.90222 
  948000       947497   -6909.4571    465.44907   -7374.9062      4191.44   -11566.346    89.586069   -707.40284   -768.45725   -956.56974   -113.27123    84.447947     110.0054      46.7237      46.7237      46.7237           90           90           90     102002.7   -810.80995 
  949000       948497   -6876.9064    486.36906   -7363.2755    4209.6053   -11572.881    93.612587   -402.24746   -655.38321   -518.02043    163.13894    2.4519888    158.11049      46.7237      46.7237      46.7237           90           90           90     102002.7   -525.21703 
  950000       949497   -6906.4546     466.8462   -7373.3008     4206.121   -11579.422    89.854978   -783.89787    97.446447   -1225.0316    112.28033    -128.8376      74.6316      46.7237      46.7237      46.7237           90           90           90     102002.7   -637.16102 
  951000       950497   -6919.7481    462.09337   -7381.8415    4202.7552   -11584.597    88.940189   -510.74823   -771.39034   -640.03769    -60.36564   -15.759309    71.458681      46.7237      46.7237      46.7237           90           90           90     102002.7   -640.72542 
  952000       951497   -6890.4463    484.03877    -7374.485    4196.8706   -11571.356    93.164071   -827.70208     -916.243   -616.85884   -42.028793    32.833296    153.61702      46.7237      46.7237      46.7237           90           90           90     102002.7   -786.93464 
  953000       952497   -6907.4121    464.62034   -7372.0324    4211.8189   -11583.851     89.42656   -1022.6238   -904.73421   -926.23281    5.4172098   -242.56857    141.31005      46.7237      46.7237      46.7237           90           90           90     102002.7   -951.19693 
  954000       953497   -6889.8994    471.82147   -7361.7208    4231.5166   -11593.237    90.812578   -585.58804    -764.4466   -661.95249   -10.781198    1.0990673   -139.17799      46.7237      46.7237      46.7237           90           90           90     102002.7   -670.66238 
  955000       954497   -6899.0884    460.72532   -7359.8137    4215.4231   -11575.237    88.676878   -491.85863   -849.43137   -955.44822     116.1425   -88.542423   -33.832344      46.7237      46.7237      46.7237           90           90           90     102002.7   -765.57941 
  956000       955497   -6878.9312    492.04817   -7370.9793     4203.192   -11574.171    94.705659   -805.74354    -326.1591   -418.83162     226.9818    6.9134206    2.2055315      46.7237      46.7237      46.7237           90           90           90     102002.7   -516.91142 
  957000       956497    -6907.371     461.2053   -7368.5763    4203.5936    -11572.17     88.76926    -542.0464    -352.9357   -95.946834    158.01676    -142.0503   -140.81052      46.7237      46.7237      46.7237           90           90           90     102002.7   -330.30965 
  958000       957497   -6888.1211    478.56104   -7366.6821    4209.6764   -11576.359     92.10976   -733.15504    -738.8901   -898.09888     168.3981   -194.91356   -5.6697718      46.7237      46.7237      46.7237           90           90           90     102002.7   -790.04801 
  959000       958497   -6900.2759    470.68445   -7370.9604    4207.9376   -11578.898    90.593735   -509.04059   -683.76648   -631.87814   -44.035109    128.98114   -235.91339      46.7237      46.7237      46.7237           90           90           90     102002.7    -608.2284 
  960000       959497   -6887.9901    471.19467   -7359.1848    4232.5831   -11591.768    90.691938   -791.94304    -851.2449   -503.99397   -127.85362    16.919037   -87.377837      46.7237      46.7237      46.7237           90           90           90     102002.7    -715.7273 
  961000       960497    -6899.863    471.31759   -7371.1806    4203.3439   -11574.524    90.715597   -746.21464    -1023.915   -683.88174    90.929569   -43.688051   -168.53609      46.7237      46.7237      46.7237           90           90           90     102002.7   -818.00379 
  962000       961497   -6899.1892    464.05365   -7363.2428    4208.2551   -11571.498    89.317488   -514.47289   -229.73253   -641.04159   -55.614971    13.789052   -39.573191      46.7237      46.7237      46.7237           90           90           90     102002.7     -461.749 
  963000       962497   -6884.2201    485.97207   -7370.1922    4204.2051   -11574.397    93.536179   -694.20003    -711.0479   -789.59531   -348.79953   -196.76877    115.18092      46.7237      46.7237      46.7237           90           90           90     102002.7   -731.61441 
  964000       963497   -6876.8927    492.83401   -7369.7267    4200.6781   -11570.405    94.856913   -226.63249   -453.98198   -581.04214    144.93748   -43.789351   -45.055208      46.7237      46.7237      46.7237           90           90           90     102002.7   -420.55221 
  965000       964497   -6903.4993    477.03135   -7380.5307     4186.167   -11566.698    91.815337   -229.57464   -767.66069   -997.38911   -5.5744223   -170.39223    92.929183      46.7237      46.7237      46.7237           90           90           90     102002.7   -664.87481 
  966000       965497   -6863.7379    490.58774   -7354.3257    4221.2699   -11575.596    94.424567   -1049.4892   -1054.0927   -841.27157   -303.60422   -91.929362    83.599684      46.7237      46.7237      46.7237           90           90           90     102002.7   -981.61783 
  967000       966497   -6893.5837     465.2762     -7358.86     4214.592   -11573.452    89.552797   -770.08105   -948.75803    -466.6267   -14.879258    66.701239   -51.537779      46.7237      46.7237      46.7237           90           90           90     102002.7   -728.48859 
  968000       967497   -6898.8138    475.33867   -7374.1525    4204.7866   -11578.939    91.489543   -91.500123   -842.47797   -768.82549   -32.288553   -107.47469   -147.45234      46.7237      46.7237      46.7237           90           90           90     102002.7   -567.60119 
  969000       968497   -6868.9796    486.05122   -7355.0308    4219.5448   -11574.576    93.551412   -721.10167   -214.53849   -572.94702    285.83758   -31.467334   -109.03653      46.7237      46.7237      46.7237           90           90           90     102002.7    -502.8624 
  970000       969497   -6892.0512    465.37139   -7357.4226    4193.9961   -11551.419    89.571118   -276.07303   -710.31746   -372.07518   -236.30051   -78.773416    215.52149      46.7237      46.7237      46.7237           90           90           90     102002.7   -452.82189 
  971000       970497   -6897.1427    479.96901   -7377.1117    4203.1173   -11580.229    92.380755   -930.17114   -410.59715    -898.2152    187.76639    151.08035    25.522779      46.7237      46.7237      46.7237           90           90           90     102002.7   -746.32783 
  972000       971497   -6871.2382    485.18814   -7356.4263    4217.3709   -11573.797    93.385293   -422.12708   -428.48106   -463.80286   -64.719636    39.539413   -56.331371      46.7237      46.7237      46.7237           90           90           90     102002.7     -438.137 
  973000       972497   -6888.0125    484.35133   -7372.3638    4205.3305   -11577.694    93.224231   -396.49059   -392.78991   -1082.1635      41.2971    91.354786   -63.382196      46.7237      46.7237      46.7237           90           90           90     102002.7   -623.81466 
  974000       973497   -6927.1662    455.87506   -7383.0412     4198.931   -11581.972    87.743337   -444.88269   -835.10889   -722.39728    74.860522    304.34603    65.450071      46.7237      46.7237      46.7237           90           90           90     102002.7   -667.46295 
  975000       974497   -6897.9623     472.4248   -7370.3871    4197.2988   -11567.686    90.928704   -439.75157   -483.15956   -999.71276    19.946052     139.8607    53.384604      46.7237      46.7237      46.7237           90           90           90     102002.7   -640.87463 
  976000       975497   -6893.7672    459.99166   -7353.7589    4229.6092   -11583.368    88.535667   -878.03671   -256.19932   -768.23692    66.893313   -97.873187   -7.8238409      46.7237      46.7237      46.7237           90           90           90     102002.7   -634.15765 
  977000       976497   -6896.4072    463.71549   -7360.1226    4217.0741   -11577.197    89.252403   -857.15618   -755.98882   -807.68205    3.6077591   -49.852474   -117.91667      46.7237      46.7237      46.7237           90           90           90     102002.7   -806.94235 
  978000       977497   -6887.0948    474.78802   -7361.8828    4207.5239   -11569.407    91.383557   -532.15891   -24.754552   -857.03654    172.50289   -209.85932    198.74907      46.7237      46.7237      46.7237           90           90           90     102002.7   -471.31667 
  979000       978497   -6907.5357     466.2446   -7373.7803     4192.875   -11566.655    89.739185   -474.83326   -357.93665   -957.38559    43.925582   -217.95897    12.473388      46.7237      46.7237      46.7237           90           90           90     102002.7    -596.7185 
  980000       979497   -6873.2788    477.75245   -7351.0313    4233.1465   -11584.178    91.954128   -233.65917   -585.61986    -600.2204    66.401716    155.29524   -49.188952      46.7237      46.7237      46.7237           90           90           90     102002.7   -473.16648 
  981000       980497   -6891.4838    465.20398   -7356.6878    4207.2033   -11563.891    89.538896   -233.23641   -443.29451   -613.43781    34.479397   -43.320786    35.411362      46.7237      46.7237      46.7237           90           90           90     102002.7   -429.98958 
  982000       981497   -6896.7888    464.10223   -7360.8911    4216.0097   -11576.901     89.32684   -398.06591   -1102.3518   -1418.0282    183.51904    40.736678    19.795986      46.7237      46.7237      46.7237           90           90           90     102002.7    -972.8153 
  983000       982497    -6884.532    479.04572   -7363.5777    4225.5266   -11589.104    92.203047   -723.96255   -388.33378   -667.27614   -160.25203   -64.301468   -161.83247      46.7237      46.7237      46.7237           90           90           90     102002.7   -593.19083 
  984000       983497   -6899.7768    470.52316      -7370.3     4195.713   -11566.013     90.56269   -718.52216   -723.02944   -554.95087   -168.44389   -79.396635   -47.665407      46.7237      46.7237      46.7237           90           90           90     102002.7   -665.50082 
  985000       984497   -6893.4831    473.22508   -7366.7081    4197.2019    -11563.91    91.082736   -695.56365    -719.4363    -934.8025    245.20719   -357.46486   -107.51714      46.7237      46.7237      46.7237           90           90           90     102002.7   -783.26748 
  986000       985497   -6894.0955    473.95885   -7368.0544    4200.2061    -11568.26    91.223965   -801.75055   -147.68018   -660.91039   -355.47826   -73.951034    1.4748368      46.7237      46.7237      46.7237           90           90           90     102002.7   -536.78038 
  987000       986497     -6899.88    463.31543   -7363.1954    4212.9956   -11576.191    89.175401    -870.3419   -964.55517   -468.04225    45.640928    137.05024    115.26142      46.7237      46.7237      46.7237           90           90           90     102002.7   -767.64644 
  988000       987497   -6881.7419    467.76429   -7349.5061    4230.5789   -11580.085    90.031684   -721.19893   -1078.8378   -717.25021   -30.389224   -150.35217    90.134558      46.7237      46.7237      46.7237           90           90           90     102002.7   -839.09565 
  989000       988497   -6922.8446    454.90504   -7377.7496    4194.3917   -11572.141    87.556634   -745.88853   -786.76129   -744.37532    135.10596   -25.521161   -31.609714      46.7237      46.7237      46.7237           90           90           90     102002.7   -759.00838 
  990000       989497   -6901.5821    468.78902   -7370.3711    4202.6747   -11573.046    90.228916   -403.93419   -431.51436   -626.90071     105.7457    19.605903    106.21455      46.7237      46.7237      46.7237           90           90           90     102002.7   -487.44975 
  991000       990497   -6876.9968     487.4405   -7364.4373    4235.7269   -11600.164     93.81881     -769.043   -897.60145   -751.21051   -6.7092752    52.385968    238.23611      46.7237      46.7237      46.7237           90           90           90     102002.7   -805.95165 
  992000       991497   -6896.5215    474.16041   -7370.6819    4211.0847   -11581.767    91.262761   -580.50155   -646.12289   -1020.2129   -101.71062    117.18614    46.964315      46.7237      46.7237      46.7237           90           90           90     102002.7    -748.9458 
  993000       992497   -6881.9326      471.083   -7353.0156    4218.5469   -11571.563    90.670445    -600.0249   -710.34987   -498.14785   -107.95467   -320.72752    79.244073      46.7237      46.7237      46.7237           90           90           90     102002.7   -602.84087 
  994000       993497   -6901.1317    476.35897   -7377.4907    4201.7631   -11579.254    91.685922   -237.62109   -745.30304   -385.61403    11.394447  -0.13022817    115.63809      46.7237      46.7237      46.7237           90           90           90     102002.7   -456.17939 
  995000       994497   -6903.3261    462.75402   -7366.0801    4204.6072   -11570.687    89.067346    -628.2257   -452.29955   -750.13921    38.667666    141.62903    110.12567      46.7237      46.7237      46.7237           90           90           90     102002.7   -610.22149 
  996000       995497   -6888.2121    477.15791   -7365.3701    4192.0698    -11557.44    91.839697   -965.40241   -868.62783   -366.29974    163.01518   -238.56022   -104.45426      46.7237      46.7237      46.7237           90           90           90     102002.7   -733.44332 
  997000       996497   -6903.4834    466.77822   -7370.2616    4203.7053   -11573.967    89.841893   -391.62346   -596.94139   -560.11939   -245.04213    -88.70982    19.060876      46.7237      46.7237      46.7237           90           90           90     102002.7   -516.22808 
  998000       997497   -6893.8056    466.14143   -7359.9471    4217.9448   -11577.892    89.719328   -262.32687   -581.07206   -1390.6083   -27.010131   -35.073403    70.311572      46.7237      46.7237      46.7237           90           90           90     102002.7   -744.66906 
  999000       998497   -6893.4851    479.71977   -7373.2048     4209.135    -11582.34    92.332784   -787.77254   -761.51942   -559.15393   -10.143697   -180.35786   -66.979046      46.7237      46.7237      46.7237           90           90           90     102002.7    -702.8153 
 1000000       999497   -6905.8634    474.12348   -7379.9869    4192.4707   -11572.458    91.255652   -553.51474   -834.78825   -674.96047     233.6273    233.31845    56.502664      46.7237      46.7237      46.7237           90           90           90     102002.7   -687.75449 
 1000503      1000000   -6909.8811    479.54705   -7389.4282    4195.3618    -11584.79     92.29954   -574.35726   -550.07957   -600.21442    159.55247    170.98677    44.368662      46.7237      46.7237      46.7237           90           90           90     102002.7   -574.88375 
Loop time of 1390.51 on 16 procs for 500000 steps with 1744 atoms

Performance: 31.068 ns/day, 0.773 hours/ns, 359.581 timesteps/s
99.8% CPU use with 16 MPI tasks x no OpenMP threads

MPI task timing breakdown:
Section |  min time  |  avg time  |  max time  |%varavg| %total
---------------------------------------------------------------
Pair    | 585.36     | 771.18     | 969.74     | 450.1 | 55.46
Bond    | 170.3      | 183.31     | 205.01     |  61.5 | 13.18
Neigh   | 3.3601     | 3.3883     | 3.4508     |   1.9 |  0.24
Comm    | 215.15     | 405.38     | 593.34     | 608.4 | 29.15
Output  | 0.096652   | 0.10158    | 0.10198    |   0.4 |  0.01
Modify  | 21.315     | 21.912     | 22.302     |   6.6 |  1.58
Other   |            | 5.231      |            |       |  0.38

Nlocal:    109 ave 137 max 89 min
Histogram: 2 4 0 2 2 1 1 3 0 1
Nghost:    2218.25 ave 2242 max 2193 min
Histogram: 1 2 0 2 3 2 1 3 1 1
Neighs:    11457.1 ave 15602 max 7294 min
Histogram: 2 0 2 4 0 2 2 1 1 2

Total # of neighbors = 183313
Ave neighs/atom = 105.111
Ave special neighs/atom = 6.6055
Neighbor list builds = 2974
Dangerous builds = 0
Total wall time: 0:44:06
