LAMMPS (30 Mar 2018)
Reading data file ...
  orthogonal box = (0 0 0) to (46.7237 46.7237 46.7237)
  2 by 2 by 4 MPI processor grid
  reading atoms ...
  1917 atoms
  scanning bonds ...
  5 = max bonds/atom
  scanning angles ...
  10 = max angles/atom
  scanning dihedrals ...
  32 = max dihedrals/atom
  scanning impropers ...
  3 = max impropers/atom
  reading bonds ...
  2064 bonds
  reading angles ...
  3696 angles
  reading dihedrals ...
  6240 dihedrals
  reading impropers ...
  1008 impropers
Finding 1-2 1-3 1-4 neighbors ...
  special bond factors lj:   0          0          0         
  special bond factors coul: 0          0          0         
  5 = max # of 1-2 neighbors
  8 = max # of 1-3 neighbors
  20 = max # of 1-4 neighbors
  19 = max # of special neighbors
Finding 1-2 1-3 1-4 neighbors ...
  special bond factors lj:   0          0          1         
  special bond factors coul: 1          1          1         
  5 = max # of 1-2 neighbors
  8 = max # of 1-3 neighbors
  19 = max # of special neighbors
WARNING: Using 'neigh_modify every 1 delay 0 check yes' setting during minimization (../min.cpp:168)
Neighbor list info ...
  update every 1 steps, delay 0 steps, check yes
  max neighbors/atom: 2000, page size: 100000
  master list distance cutoff = 16
  ghost atom cutoff = 16
  binsize = 8, bins = 6 6 6
  3 neighbor lists, perpetual/occasional/extra = 3 0 0
  (1) pair buck6d/coul/gauss/dsf, perpetual, skip from (3)
      attributes: half, newton on
      pair build: skip
      stencil: none
      bin: none
  (2) pair lj/cut, perpetual, skip from (3)
      attributes: half, newton on
      pair build: skip
      stencil: none
      bin: none
  (3) neighbor class addition, perpetual
      attributes: half, newton on
      pair build: half/bin/newton
      stencil: half/bin/3d/newton
      bin: standard
Setting up cg style minimization ...
  Unit style    : real
  Current step  : 0
WARNING: Inconsistent image flags (../domain.cpp:786)
Per MPI rank memory allocation (min/avg/max) = 22.9 | 23.36 | 23.8 Mbytes
Step Temp E_pair E_mol TotEng Press 
       0            0   -12061.492    6482.8914   -5578.6003    6079.4097 
     502            0   -12138.307    3718.2435   -8420.0632   -576.48746 
Loop time of 4.51372 on 16 procs for 502 steps with 1917 atoms

99.9% CPU use with 16 MPI tasks x no OpenMP threads

Minimization stats:
  Stopping criterion = max force evaluations
  Energy initial, next-to-last, final = 
        -5578.60033736     -8420.02974024     -8420.06320418
  Force two-norm initial, final = 2576.39 8.18508
  Force max component initial, final = 152.325 1.45323
  Final line search alpha, max atom move = 0.00750162 0.0109016
  Iterations, force evaluations = 502 1001

MPI task timing breakdown:
Section |  min time  |  avg time  |  max time  |%varavg| %total
---------------------------------------------------------------
Pair    | 1.3312     | 2.4063     | 3.3781     |  41.7 | 53.31
Bond    | 0.28782    | 0.42507    | 0.55608    |  10.2 |  9.42
Neigh   | 0.031558   | 0.031689   | 0.031843   |   0.1 |  0.70
Comm    | 0.57448    | 1.6071     | 2.7462     |  54.8 | 35.61
Output  | 0          | 0          | 0          |   0.0 |  0.00
Modify  | 0          | 0          | 0          |   0.0 |  0.00
Other   |            | 0.04351    |            |       |  0.96

Nlocal:    119.812 ave 141 max 99 min
Histogram: 1 0 2 3 2 1 6 0 0 1
Nghost:    2368.44 ave 2394 max 2344 min
Histogram: 1 0 1 4 2 3 2 1 1 1
Neighs:    11448.4 ave 16530 max 6586 min
Histogram: 2 2 1 1 2 2 1 3 1 1

Total # of neighbors = 183175
Ave neighs/atom = 95.5529
Ave special neighs/atom = 6.00939
Neighbor list builds = 14
Dangerous builds = 0
Neighbor list info ...
  update every 1 steps, delay 10 steps, check yes
  max neighbors/atom: 2000, page size: 100000
  master list distance cutoff = 16
  ghost atom cutoff = 16
  binsize = 8, bins = 6 6 6
  3 neighbor lists, perpetual/occasional/extra = 3 0 0
  (1) pair buck6d/coul/gauss/dsf, perpetual, skip from (3)
      attributes: half, newton on
      pair build: skip
      stencil: none
      bin: none
  (2) pair lj/cut, perpetual, skip from (3)
      attributes: half, newton on
      pair build: skip
      stencil: none
      bin: none
  (3) neighbor class addition, perpetual
      attributes: half, newton on
      pair build: half/bin/newton
      stencil: half/bin/3d/newton
      bin: standard
Setting up Verlet run ...
  Unit style    : real
  Current step  : 502
  Time step     : 1
WARNING: Inconsistent image flags (../domain.cpp:786)
Per MPI rank memory allocation (min/avg/max) = 22.55 | 22.63 | 22.87 Mbytes
Step Temp PotEng TotEng Press Volume Lx Ly Lz 
     502          130   -8420.0632    -7677.603   -243.75565     102002.7      46.7237      46.7237      46.7237 
    1000    116.48914   -7781.3626   -7116.0661   -681.20292     102002.7      46.7237      46.7237      46.7237 
    2000    134.47178    -7657.131   -6889.1314   -823.94791     102002.7      46.7237      46.7237      46.7237 
    3000    125.84656   -7622.3909    -6903.652   -1059.6967     102002.7      46.7237      46.7237      46.7237 
    4000     127.9981   -7645.4346   -6914.4078   -642.07121     102002.7      46.7237      46.7237      46.7237 
    5000    131.66632   -7631.9185   -6879.9416   -722.51722     102002.7      46.7237      46.7237      46.7237 
    6000    123.37684   -7680.6454   -6976.0116   -1169.8153     102002.7      46.7237      46.7237      46.7237 
    7000     130.7064   -7620.8082   -6874.3136   -273.94862     102002.7      46.7237      46.7237      46.7237 
    8000    128.33488   -7651.6561   -6918.7058   -627.70733     102002.7      46.7237      46.7237      46.7237 
    9000     133.6163   -7629.7439   -6866.6302   -889.97011     102002.7      46.7237      46.7237      46.7237 
   10000    127.85644   -7639.1054   -6908.8876   -470.27854     102002.7      46.7237      46.7237      46.7237 
   11000    133.21989   -7629.8035   -6868.9538    -819.3608     102002.7      46.7237      46.7237      46.7237 
   12000    128.60444   -7623.6712   -6889.1814   -572.38618     102002.7      46.7237      46.7237      46.7237 
   13000    129.27521   -7656.0217    -6917.701   -1017.4598     102002.7      46.7237      46.7237      46.7237 
   14000    130.14145   -7626.4357   -6883.1677   -555.03381     102002.7      46.7237      46.7237      46.7237 
   15000    129.86295   -7657.7189   -6916.0415   -884.24546     102002.7      46.7237      46.7237      46.7237 
   16000    128.86012   -7643.2449   -6907.2949   -787.42977     102002.7      46.7237      46.7237      46.7237 
   17000    129.48589   -7612.3244   -6872.8004    -885.3879     102002.7      46.7237      46.7237      46.7237 
   18000    128.73843   -7641.5812   -6906.3261   -1173.1249     102002.7      46.7237      46.7237      46.7237 
   19000    134.06764   -7627.2936   -6861.6022   -893.00064     102002.7      46.7237      46.7237      46.7237 
   20000    128.27235   -7639.3175   -6906.7243   -927.15108     102002.7      46.7237      46.7237      46.7237 
   21000    132.91566   -7623.9195   -6864.8073   -678.82166     102002.7      46.7237      46.7237      46.7237 
   22000    129.94815   -7620.5268   -6878.3628   -1154.8182     102002.7      46.7237      46.7237      46.7237 
   23000    130.73099   -7659.6319   -6912.9968   -1100.2668     102002.7      46.7237      46.7237      46.7237 
   24000    125.84933   -7649.5395   -6930.7848   -912.01746     102002.7      46.7237      46.7237      46.7237 
   25000    131.80421   -7636.1256   -6883.3611   -755.11166     102002.7      46.7237      46.7237      46.7237 
   26000    126.92529   -7612.4562   -6887.5565   -774.93332     102002.7      46.7237      46.7237      46.7237 
   27000     128.8744   -7616.2015   -6880.1699   -748.62774     102002.7      46.7237      46.7237      46.7237 
   28000    133.91596   -7673.7615   -6908.9363   -568.49277     102002.7      46.7237      46.7237      46.7237 
   29000    126.64505   -7647.0063    -6923.707   -1078.6326     102002.7      46.7237      46.7237      46.7237 
   30000    134.17723   -7646.2675   -6879.9502   -629.76203     102002.7      46.7237      46.7237      46.7237 
   31000    130.21403   -7641.6518   -6897.9692   -990.48125     102002.7      46.7237      46.7237      46.7237 
   32000    127.65576   -7649.0152   -6919.9435     -720.409     102002.7      46.7237      46.7237      46.7237 
   33000    127.65749   -7634.5083   -6905.4267   -761.24074     102002.7      46.7237      46.7237      46.7237 
   34000    128.51136   -7626.9391   -6892.9809   -730.54837     102002.7      46.7237      46.7237      46.7237 
   35000    127.94463   -7660.1473   -6929.4258   -983.99654     102002.7      46.7237      46.7237      46.7237 
   36000     132.1781   -7654.0551   -6899.1553   -582.54631     102002.7      46.7237      46.7237      46.7237 
   37000    128.36515   -7651.9814   -6918.8583   -677.23017     102002.7      46.7237      46.7237      46.7237 
   38000    132.36506   -7634.5806    -6878.613   -642.89481     102002.7      46.7237      46.7237      46.7237 
   39000    126.59893   -7628.6685   -6905.6326   -697.34623     102002.7      46.7237      46.7237      46.7237 
   40000    129.42867   -7640.1999   -6901.0028   -791.84574     102002.7      46.7237      46.7237      46.7237 
   41000    132.51644   -7652.3516   -6895.5194   -650.88942     102002.7      46.7237      46.7237      46.7237 
   42000    125.28727   -7642.2687    -6926.724   -806.74051     102002.7      46.7237      46.7237      46.7237 
   43000    132.26653   -7618.6478    -6863.243   -880.33843     102002.7      46.7237      46.7237      46.7237 
   44000    134.60736    -7652.825   -6884.0511   -362.25196     102002.7      46.7237      46.7237      46.7237 
   45000    134.84954    -7619.945    -6849.788   -471.78349     102002.7      46.7237      46.7237      46.7237 
   46000    127.52036    -7626.878   -6898.5796    -734.5762     102002.7      46.7237      46.7237      46.7237 
   47000    128.72226   -7638.4484   -6903.2857   -558.74361     102002.7      46.7237      46.7237      46.7237 
   48000    131.47363   -7635.7958   -6884.9194   -752.00805     102002.7      46.7237      46.7237      46.7237 
   49000    129.39979   -7645.3976   -6906.3654   -574.43535     102002.7      46.7237      46.7237      46.7237 
   50000    128.54084   -7628.4583   -6894.3317   -960.65255     102002.7      46.7237      46.7237      46.7237 
   51000    126.59417   -7609.8271   -6886.8184   -724.11464     102002.7      46.7237      46.7237      46.7237 
   52000    127.92522   -7616.4813   -6885.8707   -969.48047     102002.7      46.7237      46.7237      46.7237 
   53000     130.6787   -7661.9524    -6915.616   -885.12747     102002.7      46.7237      46.7237      46.7237 
   54000    131.73464   -7633.8293   -6881.4622    -1039.681     102002.7      46.7237      46.7237      46.7237 
   55000    127.47716   -7641.3026    -6913.251   -936.75494     102002.7      46.7237      46.7237      46.7237 
   56000    129.36955   -7639.6108   -6900.7513   -824.25289     102002.7      46.7237      46.7237      46.7237 
   57000    130.64334   -7614.6079   -6868.4734     -646.443     102002.7      46.7237      46.7237      46.7237 
   58000    127.45775   -7636.8095   -6908.8688   -694.81737     102002.7      46.7237      46.7237      46.7237 
   59000    130.16616   -7619.2766   -6875.8675    -647.8993     102002.7      46.7237      46.7237      46.7237 
   60000    127.36881   -7626.4833   -6899.0504   -840.77307     102002.7      46.7237      46.7237      46.7237 
   61000    132.64444   -7643.9131   -6886.3499    -853.4472     102002.7      46.7237      46.7237      46.7237 
   62000    127.01172    -7646.226   -6920.8326   -953.24568     102002.7      46.7237      46.7237      46.7237 
   63000    132.12113   -7652.6195   -6898.0451   -879.76686     102002.7      46.7237      46.7237      46.7237 
   64000    129.91414   -7633.8175   -6891.8478   -838.01894     102002.7      46.7237      46.7237      46.7237 
   65000    132.16267   -7638.1187   -6883.3071   -725.79077     102002.7      46.7237      46.7237      46.7237 
   66000    130.27056     -7648.33   -6904.3246    -1018.334     102002.7      46.7237      46.7237      46.7237 
   67000    126.37441   -7613.4623   -6891.7087   -603.08257     102002.7      46.7237      46.7237      46.7237 
   68000    127.40534   -7631.8956   -6904.2542   -711.95725     102002.7      46.7237      46.7237      46.7237 
   69000    129.94835    -7636.074   -6893.9088   -823.49598     102002.7      46.7237      46.7237      46.7237 
   70000    131.92532   -7633.2095   -6879.7533   -391.18106     102002.7      46.7237      46.7237      46.7237 
   71000    126.75242   -7633.2476   -6909.3351   -750.52477     102002.7      46.7237      46.7237      46.7237 
   72000    126.79874   -7637.3809   -6913.2039   -252.76144     102002.7      46.7237      46.7237      46.7237 
   73000    131.07455   -7637.7295   -6889.1323   -671.56148     102002.7      46.7237      46.7237      46.7237 
   74000    130.09647   -7638.3813   -6895.3702   -579.05843     102002.7      46.7237      46.7237      46.7237 
   75000    136.55312   -7649.9702   -6870.0837   -517.63194     102002.7      46.7237      46.7237      46.7237 
   76000    127.13078   -7630.8092   -6904.7358   -871.52468     102002.7      46.7237      46.7237      46.7237 
   77000    129.91137   -7623.4983   -6881.5444   -551.01805     102002.7      46.7237      46.7237      46.7237 
   78000    127.79042   -7649.1267    -6919.286   -963.39207     102002.7      46.7237      46.7237      46.7237 
   79000    133.13508   -7625.9435   -6865.5781   -670.39296     102002.7      46.7237      46.7237      46.7237 
   80000    129.57839   -7626.1043   -6886.0521   -661.03377     102002.7      46.7237      46.7237      46.7237 
   81000    126.33025   -7637.8597   -6916.3584   -693.91659     102002.7      46.7237      46.7237      46.7237 
   82000    129.33279   -7614.9057   -6876.2561    -948.2417     102002.7      46.7237      46.7237      46.7237 
   83000    130.61748   -7628.2098   -6882.2231   -831.63995     102002.7      46.7237      46.7237      46.7237 
   84000    130.44288   -7648.4397   -6903.4501   -722.67714     102002.7      46.7237      46.7237      46.7237 
   85000    133.93593   -7616.2353   -6851.2961   -975.81958     102002.7      46.7237      46.7237      46.7237 
   86000    130.12957   -7624.1302     -6880.93   -305.46102     102002.7      46.7237      46.7237      46.7237 
   87000    125.03919   -7633.7491   -6919.6213   -735.77421     102002.7      46.7237      46.7237      46.7237 
   88000     131.2536   -7644.8812   -6895.2614    -557.9611     102002.7      46.7237      46.7237      46.7237 
   89000    129.92114   -7640.3777    -6898.368   -533.17374     102002.7      46.7237      46.7237      46.7237 
   90000     128.4102   -7612.5398   -6879.1594   -844.39753     102002.7      46.7237      46.7237      46.7237 
   91000    127.46861   -7644.3611   -6916.3583   -414.09329     102002.7      46.7237      46.7237      46.7237 
   92000    128.30316   -7617.6769   -6884.9078   -627.86256     102002.7      46.7237      46.7237      46.7237 
   93000    131.16452   -7599.8704   -6850.7593    -1046.355     102002.7      46.7237      46.7237      46.7237 
   94000    135.43238   -7647.8086   -6874.3228   -1300.3888     102002.7      46.7237      46.7237      46.7237 
   95000    127.23691   -7612.0518   -6885.3723   -674.52195     102002.7      46.7237      46.7237      46.7237 
   96000    129.66542   -7603.0657   -6862.5164   -736.83656     102002.7      46.7237      46.7237      46.7237 
   97000    134.56016   -7662.1442   -6893.6399   -905.12829     102002.7      46.7237      46.7237      46.7237 
   98000    128.75053   -7622.7495   -6887.4253   -957.50514     102002.7      46.7237      46.7237      46.7237 
   99000    129.14406   -7634.8236    -6897.252   -880.36938     102002.7      46.7237      46.7237      46.7237 
  100000    126.25341   -7621.7291   -6900.6666   -1000.7584     102002.7      46.7237      46.7237      46.7237 
  101000    131.46772   -7622.7948   -6871.9521   -683.09402     102002.7      46.7237      46.7237      46.7237 
  102000    127.79614   -7621.8356   -6891.9622   -783.66525     102002.7      46.7237      46.7237      46.7237 
  103000    125.83881   -7643.3091   -6924.6144   -517.98503     102002.7      46.7237      46.7237      46.7237 
  104000    133.30751   -7629.5604   -6868.2103   -583.97821     102002.7      46.7237      46.7237      46.7237 
  105000     129.4413   -7628.2722   -6889.0029   -853.63422     102002.7      46.7237      46.7237      46.7237 
  106000    130.13611   -7633.9251   -6890.6876   -712.98332     102002.7      46.7237      46.7237      46.7237 
  107000     126.7699   -7639.8222   -6915.8099   -712.98715     102002.7      46.7237      46.7237      46.7237 
  108000    130.45039   -7626.9979   -6881.9654    -1035.779     102002.7      46.7237      46.7237      46.7237 
  109000    130.18668   -7646.9723    -6903.446   -765.78774     102002.7      46.7237      46.7237      46.7237 
  110000    130.64426   -7622.2243   -6876.0846   -753.45983     102002.7      46.7237      46.7237      46.7237 
  111000    130.99695   -7635.0408   -6886.8868   -646.19172     102002.7      46.7237      46.7237      46.7237 
  112000    128.44729   -7640.2862   -6906.6939   -365.88057     102002.7      46.7237      46.7237      46.7237 
  113000    132.70212   -7639.2016    -6881.309   -602.07916     102002.7      46.7237      46.7237      46.7237 
  114000    131.52127   -7621.5741   -6870.4256   -631.63497     102002.7      46.7237      46.7237      46.7237 
  115000    131.30675   -7629.3635   -6879.4402   -974.82274     102002.7      46.7237      46.7237      46.7237 
  116000    129.01341   -7621.7494   -6884.9239   -925.45091     102002.7      46.7237      46.7237      46.7237 
  117000    129.97362   -7640.2708   -6897.9613   -983.13544     102002.7      46.7237      46.7237      46.7237 
  118000    130.41846   -7638.7716   -6893.9215   -684.88785     102002.7      46.7237      46.7237      46.7237 
  119000    128.15444   -7654.4873   -6922.5676   -944.70692     102002.7      46.7237      46.7237      46.7237 
  120000    129.95186   -7642.0506   -6899.8654   -771.98215     102002.7      46.7237      46.7237      46.7237 
  121000    130.66527   -7627.0035   -6880.7438   -745.36359     102002.7      46.7237      46.7237      46.7237 
  122000    128.26175   -7631.0144   -6898.4817   -952.64568     102002.7      46.7237      46.7237      46.7237 
  123000     126.0684   -7629.4968   -6909.4909   -837.62916     102002.7      46.7237      46.7237      46.7237 
  124000    129.21465     -7624.97   -6886.9952   -896.22194     102002.7      46.7237      46.7237      46.7237 
  125000    130.08404   -7640.5885   -6897.6484   -923.42313     102002.7      46.7237      46.7237      46.7237 
  126000    129.86585   -7639.0807   -6897.3867   -701.45338     102002.7      46.7237      46.7237      46.7237 
  127000    128.41342   -7628.2043   -6894.8055    -1056.861     102002.7      46.7237      46.7237      46.7237 
  128000    129.62711   -7653.9633   -6913.6328   -744.94058     102002.7      46.7237      46.7237      46.7237 
  129000    130.10333   -7611.8478   -6868.7975   -755.09742     102002.7      46.7237      46.7237      46.7237 
  130000    129.20976   -7652.0366   -6914.0897   -854.18576     102002.7      46.7237      46.7237      46.7237 
  131000    126.96954   -7629.4337   -6904.2812    -975.5295     102002.7      46.7237      46.7237      46.7237 
  132000    130.71821   -7616.1639   -6869.6019   -930.49269     102002.7      46.7237      46.7237      46.7237 
  133000     133.4264   -7641.9176   -6879.8884   -1047.4117     102002.7      46.7237      46.7237      46.7237 
  134000    133.85167   -7620.6865   -6856.2286   -616.81572     102002.7      46.7237      46.7237      46.7237 
  135000    128.57014   -7624.2224   -6889.9285   -660.16457     102002.7      46.7237      46.7237      46.7237 
  136000    128.88872   -7652.0713   -6915.9579   -854.20422     102002.7      46.7237      46.7237      46.7237 
  137000    131.01466   -7619.6711    -6871.416   -651.67654     102002.7      46.7237      46.7237      46.7237 
  138000    130.45064   -7637.1997   -6892.1659    -698.9068     102002.7      46.7237      46.7237      46.7237 
  139000    128.16087   -7600.2817   -6868.3252   -924.80911     102002.7      46.7237      46.7237      46.7237 
  140000    125.35176   -7631.6905   -6915.7774   -788.75264     102002.7      46.7237      46.7237      46.7237 
  141000    129.27636   -7615.1561   -6876.8288   -941.05684     102002.7      46.7237      46.7237      46.7237 
  142000    129.92227   -7640.3716   -6898.3553   -756.95422     102002.7      46.7237      46.7237      46.7237 
  143000    128.03409   -7649.3633   -6918.1309   -1049.1853     102002.7      46.7237      46.7237      46.7237 
  144000    127.00657   -7596.3709   -6871.0069   -645.04481     102002.7      46.7237      46.7237      46.7237 
  145000    127.73461   -7593.6628   -6864.1408   -972.73468     102002.7      46.7237      46.7237      46.7237 
  146000    126.86207   -7649.1313   -6924.5926   -695.13347     102002.7      46.7237      46.7237      46.7237 
  147000    132.64446   -7640.8033     -6883.24   -912.65943     102002.7      46.7237      46.7237      46.7237 
  148000    127.39444   -7622.5112    -6894.932   -885.48611     102002.7      46.7237      46.7237      46.7237 
  149000    128.27304   -7646.3899   -6913.7928   -1028.5894     102002.7      46.7237      46.7237      46.7237 
  150000    130.66849   -7643.4373   -6897.1592   -1109.7354     102002.7      46.7237      46.7237      46.7237 
  151000    129.63292   -7632.7906   -6892.4269   -938.59591     102002.7      46.7237      46.7237      46.7237 
  152000     126.7964   -7640.5374   -6916.3738   -1084.1162     102002.7      46.7237      46.7237      46.7237 
  153000    131.05667   -7610.7967   -6862.3016   -978.55109     102002.7      46.7237      46.7237      46.7237 
  154000    131.66881   -7661.4622   -6909.4711    -810.6395     102002.7      46.7237      46.7237      46.7237 
  155000     133.4771   -7602.2451   -6839.9264   -681.80385     102002.7      46.7237      46.7237      46.7237 
  156000    133.18009   -7625.1357   -6864.5133   -785.26492     102002.7      46.7237      46.7237      46.7237 
  157000    128.35561    -7622.476   -6889.4073   -502.50909     102002.7      46.7237      46.7237      46.7237 
  158000    130.61421   -7609.9514   -6863.9833   -648.69658     102002.7      46.7237      46.7237      46.7237 
  159000    126.92734   -7651.0213   -6926.1098   -536.05639     102002.7      46.7237      46.7237      46.7237 
  160000    133.18734   -7638.7892   -6878.1254   -864.44252     102002.7      46.7237      46.7237      46.7237 
  161000     131.6752   -7618.6634   -6866.6358   -522.05345     102002.7      46.7237      46.7237      46.7237 
  162000    130.28337   -7623.2225    -6879.144   -610.30766     102002.7      46.7237      46.7237      46.7237 
  163000    131.87081   -7603.6651   -6850.5203   -630.59052     102002.7      46.7237      46.7237      46.7237 
  164000    126.84046   -7643.7425   -6919.3272   -561.64907     102002.7      46.7237      46.7237      46.7237 
  165000    126.74383   -7632.5873   -6908.7239   -653.31143     102002.7      46.7237      46.7237      46.7237 
  166000    132.04053   -7608.0895   -6853.9754    -657.7751     102002.7      46.7237      46.7237      46.7237 
  167000    131.47765   -7631.2171   -6880.3177   -386.40865     102002.7      46.7237      46.7237      46.7237 
  168000    122.90819   -7645.1674   -6943.2102   -620.75647     102002.7      46.7237      46.7237      46.7237 
  169000    131.40911   -7630.6452   -6880.1373    -774.7319     102002.7      46.7237      46.7237      46.7237 
  170000    126.11825   -7610.8047   -6890.5141   -920.82201     102002.7      46.7237      46.7237      46.7237 
  171000    129.36084   -7611.8686   -6873.0588   -906.26429     102002.7      46.7237      46.7237      46.7237 
  172000    132.21647   -7639.2353   -6884.1164   -827.36226     102002.7      46.7237      46.7237      46.7237 
  173000    135.25717    -7618.278   -6845.7928    -952.4079     102002.7      46.7237      46.7237      46.7237 
  174000    129.72241   -7648.4579   -6907.5831   -870.26081     102002.7      46.7237      46.7237      46.7237 
  175000    129.36801   -7619.6575   -6880.8068   -479.49748     102002.7      46.7237      46.7237      46.7237 
  176000    133.15814   -7603.3785   -6842.8814   -602.53587     102002.7      46.7237      46.7237      46.7237 
  177000    126.98058   -7624.4953   -6899.2797   -730.96641     102002.7      46.7237      46.7237      46.7237 
  178000    129.69436   -7624.0272   -6883.3126   -599.75505     102002.7      46.7237      46.7237      46.7237 
  179000     132.3722   -7624.6241   -6868.6157     -717.334     102002.7      46.7237      46.7237      46.7237 
  180000    128.71112   -7606.3316   -6871.2326   -907.34448     102002.7      46.7237      46.7237      46.7237 
  181000    131.03937    -7647.895   -6899.4988   -800.72769     102002.7      46.7237      46.7237      46.7237 
  182000    133.16747   -7622.8523    -6862.302   -1016.1377     102002.7      46.7237      46.7237      46.7237 
  183000    129.88844   -7650.6267   -6908.8037   -611.73323     102002.7      46.7237      46.7237      46.7237 
  184000    129.61782   -7645.0854   -6904.8079   -977.34879     102002.7      46.7237      46.7237      46.7237 
  185000    133.35882   -7628.7428   -6867.0996   -983.41137     102002.7      46.7237      46.7237      46.7237 
  186000    132.62797   -7634.4505   -6876.9814   -1032.8762     102002.7      46.7237      46.7237      46.7237 
  187000    128.53085   -7648.0151   -6913.9456   -555.13409     102002.7      46.7237      46.7237      46.7237 
  188000    131.53659     -7630.27    -6879.034   -612.98436     102002.7      46.7237      46.7237      46.7237 
  189000    125.60489   -7665.6481   -6948.2894   -984.70045     102002.7      46.7237      46.7237      46.7237 
  190000    130.85242   -7633.6278   -6886.2993   -653.20865     102002.7      46.7237      46.7237      46.7237 
  191000    130.00295   -7628.4746   -6885.9976     -928.524     102002.7      46.7237      46.7237      46.7237 
  192000    131.81923   -7628.3484   -6875.4982   -727.87218     102002.7      46.7237      46.7237      46.7237 
  193000    131.21595   -7601.3396   -6851.9348   -597.70633     102002.7      46.7237      46.7237      46.7237 
  194000    126.90032   -7623.8872     -6899.13   -599.31868     102002.7      46.7237      46.7237      46.7237 
  195000    128.30689   -7629.4148   -6896.6244    -683.0401     102002.7      46.7237      46.7237      46.7237 
  196000    131.80909   -7627.0146   -6874.2222   -597.14603     102002.7      46.7237      46.7237      46.7237 
  197000    128.84717   -7643.6784   -6907.8023   -475.64975     102002.7      46.7237      46.7237      46.7237 
  198000    128.70475   -7629.9734   -6894.9107   -582.02177     102002.7      46.7237      46.7237      46.7237 
  199000    124.53483   -7639.4428   -6928.1955   -626.83554     102002.7      46.7237      46.7237      46.7237 
  200000    126.59631   -7645.4411   -6922.4202   -816.46327     102002.7      46.7237      46.7237      46.7237 
  201000    132.04747   -7628.2816   -6874.1279   -693.44665     102002.7      46.7237      46.7237      46.7237 
  202000    131.02345   -7631.1547   -6882.8494    -804.3876     102002.7      46.7237      46.7237      46.7237 
  203000    129.39054   -7636.7838   -6897.8044   -661.11486     102002.7      46.7237      46.7237      46.7237 
  204000     131.8514   -7614.3378   -6861.3038   -878.63971     102002.7      46.7237      46.7237      46.7237 
  205000    129.04853   -7650.4657   -6913.4396   -920.18554     102002.7      46.7237      46.7237      46.7237 
  206000    125.52929   -7650.1705   -6933.2436   -956.29695     102002.7      46.7237      46.7237      46.7237 
  207000    129.90649   -7632.8734   -6890.9473   -1000.6246     102002.7      46.7237      46.7237      46.7237 
  208000    129.52339   -7603.1762    -6863.438    -1011.003     102002.7      46.7237      46.7237      46.7237 
  209000    131.55323   -7631.2511     -6879.92   -890.94494     102002.7      46.7237      46.7237      46.7237 
  210000    128.01741   -7634.3605   -6903.2234   -715.27466     102002.7      46.7237      46.7237      46.7237 
  211000    130.32123   -7627.7485   -6883.4537   -610.67114     102002.7      46.7237      46.7237      46.7237 
  212000    124.19779   -7648.4977   -6939.1753   -673.28372     102002.7      46.7237      46.7237      46.7237 
  213000    126.15118   -7618.6749   -6898.1962   -571.52259     102002.7      46.7237      46.7237      46.7237 
  214000     127.6088   -7642.6515   -6913.8481   -520.87732     102002.7      46.7237      46.7237      46.7237 
  215000    129.66382   -7648.7946   -6908.2544   -773.12313     102002.7      46.7237      46.7237      46.7237 
  216000    128.60515   -7620.9263   -6886.4324   -466.38445     102002.7      46.7237      46.7237      46.7237 
  217000    130.77534   -7654.5085   -6907.6202   -765.30934     102002.7      46.7237      46.7237      46.7237 
  218000    129.66669   -7634.2395    -6893.683   -694.03009     102002.7      46.7237      46.7237      46.7237 
  219000    126.14953   -7635.3389   -6914.8697   -1015.4744     102002.7      46.7237      46.7237      46.7237 
  220000    128.07082   -7617.6255   -6886.1833   -783.64074     102002.7      46.7237      46.7237      46.7237 
  221000    131.50298   -7661.7672   -6910.7232   -719.44776     102002.7      46.7237      46.7237      46.7237 
  222000    125.18984    -7644.364   -6929.3758    -948.7759     102002.7      46.7237      46.7237      46.7237 
  223000    130.61063   -7651.3426    -6905.395   -926.40561     102002.7      46.7237      46.7237      46.7237 
  224000    134.06072   -7632.9668   -6867.3149   -771.29518     102002.7      46.7237      46.7237      46.7237 
  225000    128.99855   -7629.8953   -6893.1546   -734.66853     102002.7      46.7237      46.7237      46.7237 
  226000    129.81641   -7622.9289   -6881.5172   -639.23157     102002.7      46.7237      46.7237      46.7237 
  227000    132.22059   -7655.9518   -6900.8093   -529.32693     102002.7      46.7237      46.7237      46.7237 
  228000    128.06263    -7645.439   -6914.0436   -851.48879     102002.7      46.7237      46.7237      46.7237 
  229000    131.98932   -7598.3943   -6844.5727   -655.09908     102002.7      46.7237      46.7237      46.7237 
  230000    129.82754   -7637.2692    -6895.794   -974.49749     102002.7      46.7237      46.7237      46.7237 
  231000    132.47621   -7647.8834   -6891.2811   -661.75014     102002.7      46.7237      46.7237      46.7237 
  232000    128.23062   -7605.8798    -6873.525   -596.54854     102002.7      46.7237      46.7237      46.7237 
  233000    126.26423   -7641.9527   -6920.8283    -925.9206     102002.7      46.7237      46.7237      46.7237 
  234000    131.90787   -7631.2016   -6877.8451   -676.73776     102002.7      46.7237      46.7237      46.7237 
  235000    129.77925   -7611.5587   -6870.3593    -544.7588     102002.7      46.7237      46.7237      46.7237 
  236000    129.60089    -7651.284   -6911.1033   -395.57144     102002.7      46.7237      46.7237      46.7237 
  237000    128.64322   -7653.7701   -6919.0588    -295.6393     102002.7      46.7237      46.7237      46.7237 
  238000    130.00155   -7631.2861   -6888.8171   -732.74899     102002.7      46.7237      46.7237      46.7237 
  239000    132.12253    -7663.312   -6908.7295   -833.91325     102002.7      46.7237      46.7237      46.7237 
  240000    130.71558   -7651.2348   -6904.6878   -622.17211     102002.7      46.7237      46.7237      46.7237 
  241000    133.71214   -7632.8128   -6869.1517   -861.65543     102002.7      46.7237      46.7237      46.7237 
  242000    132.64983    -7635.553    -6877.959   -798.76776     102002.7      46.7237      46.7237      46.7237 
  243000    128.23929   -7603.2592   -6870.8549   -595.59259     102002.7      46.7237      46.7237      46.7237 
  244000    132.18257   -7621.3764   -6866.4511   -518.78279     102002.7      46.7237      46.7237      46.7237 
  245000    128.71947   -7628.7903   -6893.6436   -809.82262     102002.7      46.7237      46.7237      46.7237 
  246000    129.54142   -7678.0185   -6938.1773   -908.12753     102002.7      46.7237      46.7237      46.7237 
  247000    132.37628   -7636.4328   -6880.4012    -630.7168     102002.7      46.7237      46.7237      46.7237 
  248000    128.94817   -7622.4125   -6885.9596   -667.89012     102002.7      46.7237      46.7237      46.7237 
  249000    132.18172   -7636.7362   -6881.8157   -819.48804     102002.7      46.7237      46.7237      46.7237 
  250000    129.21248   -7650.8856   -6912.9231   -952.66705     102002.7      46.7237      46.7237      46.7237 
  251000    130.61234   -7634.6894    -6888.732   -580.08995     102002.7      46.7237      46.7237      46.7237 
  252000    134.17655   -7623.6823   -6857.3689   -1175.3539     102002.7      46.7237      46.7237      46.7237 
  253000    131.10677   -7646.6883   -6897.9072   -953.68582     102002.7      46.7237      46.7237      46.7237 
  254000    128.45593   -7631.8167   -6898.1751   -803.51456     102002.7      46.7237      46.7237      46.7237 
  255000    135.16784   -7635.9631   -6863.9882   -903.56039     102002.7      46.7237      46.7237      46.7237 
  256000    127.07077   -7642.0352   -6916.3045   -956.81713     102002.7      46.7237      46.7237      46.7237 
  257000    127.02154   -7645.4173   -6919.9678   -509.50649     102002.7      46.7237      46.7237      46.7237 
  258000    129.24538   -7626.7948   -6888.6445   -978.46608     102002.7      46.7237      46.7237      46.7237 
  259000    122.89907   -7642.4291    -6940.524   -668.10626     102002.7      46.7237      46.7237      46.7237 
  260000    130.83316   -7626.6723   -6879.4537   -762.70736     102002.7      46.7237      46.7237      46.7237 
  261000    128.95966    -7636.806   -6900.2874   -486.27053     102002.7      46.7237      46.7237      46.7237 
  262000    128.67274   -7660.7192   -6925.8394   -646.43939     102002.7      46.7237      46.7237      46.7237 
  263000    130.05461   -7641.1118   -6898.3397   -965.07496     102002.7      46.7237      46.7237      46.7237 
  264000    131.21938   -7643.6669   -6894.2426   -772.78715     102002.7      46.7237      46.7237      46.7237 
  265000    128.88921   -7620.6945   -6884.5783   -830.83656     102002.7      46.7237      46.7237      46.7237 
  266000    125.38896   -7651.4917   -6935.3663   -1018.9811     102002.7      46.7237      46.7237      46.7237 
  267000    131.14821   -7631.9118   -6882.8939   -903.78504     102002.7      46.7237      46.7237      46.7237 
  268000    125.54282   -7631.3765   -6914.3724   -674.65702     102002.7      46.7237      46.7237      46.7237 
  269000    128.16933   -7643.0098    -6911.005   -746.38209     102002.7      46.7237      46.7237      46.7237 
  270000    129.76656   -7641.0092   -6899.8823   -1112.7466     102002.7      46.7237      46.7237      46.7237 
  271000     131.5075   -7616.6194   -6865.5496    -822.8354     102002.7      46.7237      46.7237      46.7237 
  272000    132.65037   -7650.5524   -6892.9553   -836.40527     102002.7      46.7237      46.7237      46.7237 
  273000    131.49872   -7615.3335   -6864.3138   -654.24184     102002.7      46.7237      46.7237      46.7237 
  274000    130.42543   -7642.5694   -6897.6795   -684.96568     102002.7      46.7237      46.7237      46.7237 
  275000    128.32255   -7656.9808   -6924.1009   -1053.6332     102002.7      46.7237      46.7237      46.7237 
  276000     128.7046    -7650.244   -6915.1822   -745.60739     102002.7      46.7237      46.7237      46.7237 
  277000    133.69467   -7620.4579   -6856.8966   -856.28022     102002.7      46.7237      46.7237      46.7237 
  278000    126.26121   -7659.8499   -6938.7428   -809.71264     102002.7      46.7237      46.7237      46.7237 
  279000    129.71755   -7624.3017   -6883.4546   -777.51805     102002.7      46.7237      46.7237      46.7237 
  280000    132.20004   -7631.9545   -6876.9294   -638.90145     102002.7      46.7237      46.7237      46.7237 
  281000    125.77191   -7628.6615   -6910.3489   -791.86477     102002.7      46.7237      46.7237      46.7237 
  282000    132.05022   -7634.8783   -6880.7088   -606.80193     102002.7      46.7237      46.7237      46.7237 
  283000    132.07673   -7623.6345   -6869.3137   -720.52802     102002.7      46.7237      46.7237      46.7237 
  284000      131.868   -7631.1433   -6878.0146    -636.3125     102002.7      46.7237      46.7237      46.7237 
  285000    128.90023   -7649.5497   -6913.3706   -639.60917     102002.7      46.7237      46.7237      46.7237 
  286000     128.5291   -7637.5557   -6903.4962   -674.31164     102002.7      46.7237      46.7237      46.7237 
  287000    128.66575   -7634.4881   -6899.6482   -861.82353     102002.7      46.7237      46.7237      46.7237 
  288000     126.2091   -7651.3441   -6930.5347   -640.22145     102002.7      46.7237      46.7237      46.7237 
  289000     132.5386   -7621.7957    -6864.837   -733.03918     102002.7      46.7237      46.7237      46.7237 
  290000    128.91564    -7618.708   -6882.4409    -853.2902     102002.7      46.7237      46.7237      46.7237 
  291000    128.56917    -7663.456   -6929.1676   -1106.6094     102002.7      46.7237      46.7237      46.7237 
  292000    133.10164    -7637.728   -6877.5536   -823.05639     102002.7      46.7237      46.7237      46.7237 
  293000    131.16501   -7629.8255   -6880.7117   -496.78578     102002.7      46.7237      46.7237      46.7237 
  294000    126.89657   -7613.8642   -6889.1285    -939.2055     102002.7      46.7237      46.7237      46.7237 
  295000    132.39854   -7662.0544   -6905.8956   -551.24085     102002.7      46.7237      46.7237      46.7237 
  296000    129.45661   -7616.8884   -6877.5316   -406.09754     102002.7      46.7237      46.7237      46.7237 
  297000    127.19364   -7633.8301   -6907.3977   -927.12665     102002.7      46.7237      46.7237      46.7237 
  298000    132.52649   -7627.3441   -6870.4546   -677.15812     102002.7      46.7237      46.7237      46.7237 
  299000    131.52911   -7636.8945   -6885.7012   -623.35952     102002.7      46.7237      46.7237      46.7237 
  300000    126.45257   -7655.2746   -6933.0746   -559.92513     102002.7      46.7237      46.7237      46.7237 
  301000    131.31792   -7669.5917   -6919.6046   -442.95382     102002.7      46.7237      46.7237      46.7237 
  302000     131.1826   -7637.5679   -6888.3536   -705.72977     102002.7      46.7237      46.7237      46.7237 
  303000    132.40404   -7614.7828   -6858.5926   -1011.0008     102002.7      46.7237      46.7237      46.7237 
  304000     128.2273   -7632.2899   -6899.9541    -781.6074     102002.7      46.7237      46.7237      46.7237 
  305000    126.95696   -7668.3218   -6943.2411   -723.07237     102002.7      46.7237      46.7237      46.7237 
  306000    130.13222   -7618.1665   -6874.9512   -938.42338     102002.7      46.7237      46.7237      46.7237 
  307000    132.37551   -7639.8706   -6883.8434   -1015.6144     102002.7      46.7237      46.7237      46.7237 
  308000    130.81651   -7631.8383   -6884.7149   -927.82371     102002.7      46.7237      46.7237      46.7237 
  309000    132.76404    -7629.098   -6870.8517   -971.27414     102002.7      46.7237      46.7237      46.7237 
  310000    129.22085    -7627.459   -6889.4487   -966.93618     102002.7      46.7237      46.7237      46.7237 
  311000    133.44193   -7604.4186   -6842.3008     -629.953     102002.7      46.7237      46.7237      46.7237 
  312000    128.40393   -7652.9135   -6919.5689   -531.56099     102002.7      46.7237      46.7237      46.7237 
  313000    129.25608   -7643.9203   -6905.7088   -928.87663     102002.7      46.7237      46.7237      46.7237 
  314000    134.85403   -7608.6335   -6838.4508   -801.79174     102002.7      46.7237      46.7237      46.7237 
  315000    133.24029   -7647.6146   -6886.6484   -819.25279     102002.7      46.7237      46.7237      46.7237 
  316000    132.20409   -7631.3388   -6876.2906   -1035.7096     102002.7      46.7237      46.7237      46.7237 
  317000     131.0785   -7611.6367    -6863.017    -957.3336     102002.7      46.7237      46.7237      46.7237 
  318000    128.77232   -7636.9166    -6901.468   -834.41102     102002.7      46.7237      46.7237      46.7237 
  319000    130.11654   -7642.2282   -6899.1025   -859.61427     102002.7      46.7237      46.7237      46.7237 
  320000    135.34454   -7625.7583   -6852.7743   -893.67269     102002.7      46.7237      46.7237      46.7237 
  321000    127.69353   -7601.6596   -6872.3722    -848.4154     102002.7      46.7237      46.7237      46.7237 
  322000    128.18348   -7642.5315   -6910.4459   -736.05452     102002.7      46.7237      46.7237      46.7237 
  323000    128.53948   -7627.3213   -6893.2025    -833.0026     102002.7      46.7237      46.7237      46.7237 
  324000     131.5766   -7609.4361   -6857.9717    -950.5422     102002.7      46.7237      46.7237      46.7237 
  325000    127.05958   -7633.4507   -6907.7839   -986.73909     102002.7      46.7237      46.7237      46.7237 
  326000    129.52532   -7629.0831   -6889.3339   -1044.8211     102002.7      46.7237      46.7237      46.7237 
  327000    130.79636   -7594.2284     -6847.22   -796.34769     102002.7      46.7237      46.7237      46.7237 
  328000    131.46278   -7621.8433   -6871.0288   -1195.6569     102002.7      46.7237      46.7237      46.7237 
  329000    128.29461   -7626.0537   -6893.3334   -603.50804     102002.7      46.7237      46.7237      46.7237 
  330000    131.24093   -7620.8291   -6871.2816   -1003.1163     102002.7      46.7237      46.7237      46.7237 
  331000    127.78861   -7629.1123   -6899.2818    -859.5788     102002.7      46.7237      46.7237      46.7237 
  332000    126.74745   -7637.4126   -6913.5285   -872.51207     102002.7      46.7237      46.7237      46.7237 
  333000    130.18912   -7631.1122    -6887.572   -1215.7399     102002.7      46.7237      46.7237      46.7237 
  334000    129.38122   -7642.7844   -6903.8582   -778.26285     102002.7      46.7237      46.7237      46.7237 
  335000    128.54077   -7639.3972    -6905.271   -857.54835     102002.7      46.7237      46.7237      46.7237 
  336000    135.18113   -7629.0245   -6856.9737   -659.62481     102002.7      46.7237      46.7237      46.7237 
  337000     131.2003   -7635.6857   -6886.3703   -1035.5221     102002.7      46.7237      46.7237      46.7237 
  338000    127.63921    -7639.872   -6910.8949   -854.71075     102002.7      46.7237      46.7237      46.7237 
  339000    130.79292    -7674.875   -6927.8863     -820.523     102002.7      46.7237      46.7237      46.7237 
  340000    126.15404   -7610.8858   -6890.3908    -816.0856     102002.7      46.7237      46.7237      46.7237 
  341000    127.68558   -7640.0776   -6910.8357   -948.87831     102002.7      46.7237      46.7237      46.7237 
  342000    132.40714   -7629.4574   -6873.2495   -965.51105     102002.7      46.7237      46.7237      46.7237 
  343000    133.33795   -7631.1974   -6869.6735    -752.8712     102002.7      46.7237      46.7237      46.7237 
  344000    127.57754    -7625.677    -6897.052   -818.47153     102002.7      46.7237      46.7237      46.7237 
  345000     126.2182   -7647.1588   -6926.2974   -685.29692     102002.7      46.7237      46.7237      46.7237 
  346000    136.88441   -7637.7041   -6855.9255   -619.55854     102002.7      46.7237      46.7237      46.7237 
  347000    130.95343   -7642.2888   -6894.3833    -764.3583     102002.7      46.7237      46.7237      46.7237 
  348000    133.22291   -7626.3198   -6865.4528    -567.0147     102002.7      46.7237      46.7237      46.7237 
  349000    131.50822   -7634.7644   -6883.6904   -881.41695     102002.7      46.7237      46.7237      46.7237 
  350000    128.56822   -7633.9765   -6899.6936   -496.04271     102002.7      46.7237      46.7237      46.7237 
  351000    130.75259   -7650.9766   -6904.2182   -780.67351     102002.7      46.7237      46.7237      46.7237 
  352000     129.6659   -7634.6196   -6894.0675   -565.46054     102002.7      46.7237      46.7237      46.7237 
  353000    127.52806   -7639.7919   -6911.4495   -774.84096     102002.7      46.7237      46.7237      46.7237 
  354000    131.04218   -7628.0494   -6879.6372   -637.76807     102002.7      46.7237      46.7237      46.7237 
  355000    128.50591   -7608.1875   -6874.2604   -741.93521     102002.7      46.7237      46.7237      46.7237 
  356000    129.93985   -7643.3079   -6901.1913    -854.4181     102002.7      46.7237      46.7237      46.7237 
  357000    128.09914   -7637.6682   -6906.0643   -563.91897     102002.7      46.7237      46.7237      46.7237 
  358000     130.8692   -7630.2257   -6882.8014   -732.86107     102002.7      46.7237      46.7237      46.7237 
  359000    128.72104   -7635.2849   -6900.1291   -916.20135     102002.7      46.7237      46.7237      46.7237 
  360000    126.34785    -7623.386   -6901.7841   -766.78181     102002.7      46.7237      46.7237      46.7237 
  361000    133.99529    -7632.424   -6867.1458   -1059.5274     102002.7      46.7237      46.7237      46.7237 
  362000    130.39415   -7612.1047   -6867.3935   -724.89839     102002.7      46.7237      46.7237      46.7237 
  363000    129.09067   -7661.6791   -6924.4123   -1262.6991     102002.7      46.7237      46.7237      46.7237 
  364000     131.7501   -7647.5572   -6895.1018    -818.9067     102002.7      46.7237      46.7237      46.7237 
  365000    131.60107   -7633.0433    -6881.439   -814.08821     102002.7      46.7237      46.7237      46.7237 
  366000    128.41874   -7667.7335   -6934.3042   -1025.9169     102002.7      46.7237      46.7237      46.7237 
  367000    131.27241   -7611.3569   -6861.6297   -471.35289     102002.7      46.7237      46.7237      46.7237 
  368000    126.97059   -7630.9076   -6905.7491   -910.62161     102002.7      46.7237      46.7237      46.7237 
  369000    131.59591   -7638.3976   -6886.8228   -857.39257     102002.7      46.7237      46.7237      46.7237 
  370000    133.88814   -7633.5515   -6868.8852    -768.1978     102002.7      46.7237      46.7237      46.7237 
  371000    129.38154   -7656.0888   -6917.1608   -925.37967     102002.7      46.7237      46.7237      46.7237 
  372000    135.23631    -7638.746     -6866.38   -768.62545     102002.7      46.7237      46.7237      46.7237 
  373000    122.47513   -7643.9245   -6944.4406   -779.04945     102002.7      46.7237      46.7237      46.7237 
  374000    131.64973   -7634.9194   -6883.0373     -650.446     102002.7      46.7237      46.7237      46.7237 
  375000    129.97661   -7619.9973   -6877.6707   -738.12838     102002.7      46.7237      46.7237      46.7237 
  376000    129.53672   -7626.7337   -6886.9194   -660.92644     102002.7      46.7237      46.7237      46.7237 
  377000    132.49041   -7645.9591   -6889.2756   -950.28553     102002.7      46.7237      46.7237      46.7237 
  378000    131.70187   -7665.5793   -6913.3994   -830.51251     102002.7      46.7237      46.7237      46.7237 
  379000     134.4574   -7624.7926   -6856.8752   -759.87581     102002.7      46.7237      46.7237      46.7237 
  380000    129.64172   -7628.4557   -6888.0418    -1101.663     102002.7      46.7237      46.7237      46.7237 
  381000    129.94775   -7621.3259   -6879.1641   -521.91778     102002.7      46.7237      46.7237      46.7237 
  382000    127.68547   -7619.4703    -6890.229   -1115.2371     102002.7      46.7237      46.7237      46.7237 
  383000    134.78986   -7645.6565   -6875.8404   -604.39131     102002.7      46.7237      46.7237      46.7237 
  384000    128.13381   -7622.0715   -6890.2696   -680.83248     102002.7      46.7237      46.7237      46.7237 
  385000    123.72564   -7654.2304   -6947.6045   -639.23339     102002.7      46.7237      46.7237      46.7237 
  386000    128.41256   -7622.1212   -6888.7273   -790.96329     102002.7      46.7237      46.7237      46.7237 
  387000    128.29199   -7628.1812   -6895.4759   -736.42287     102002.7      46.7237      46.7237      46.7237 
  388000    132.91698   -7639.7039   -6880.5842   -358.43576     102002.7      46.7237      46.7237      46.7237 
  389000    128.15117    -7626.733   -6894.8319   -738.59357     102002.7      46.7237      46.7237      46.7237 
  390000    129.18609   -7624.4497    -6886.638   -1081.4811     102002.7      46.7237      46.7237      46.7237 
  391000    127.37771   -7638.2975   -6910.8139   -558.04791     102002.7      46.7237      46.7237      46.7237 
  392000    126.96306   -7633.6519   -6908.5364   -645.50757     102002.7      46.7237      46.7237      46.7237 
  393000    132.60579   -7648.4908   -6891.1483   -959.76368     102002.7      46.7237      46.7237      46.7237 
  394000    135.13383   -7638.4923   -6866.7116   -1075.1384     102002.7      46.7237      46.7237      46.7237 
  395000    131.30802   -7633.9812   -6884.0506    -877.8864     102002.7      46.7237      46.7237      46.7237 
  396000     127.1955   -7625.1465   -6898.7035   -738.83998     102002.7      46.7237      46.7237      46.7237 
  397000    126.85933    -7646.153   -6921.6299   -1141.4477     102002.7      46.7237      46.7237      46.7237 
  398000    129.85262   -7623.7384   -6882.1199   -773.65238     102002.7      46.7237      46.7237      46.7237 
  399000    131.53071   -7648.1285   -6896.9261    -573.9626     102002.7      46.7237      46.7237      46.7237 
  400000    130.75665   -7619.4926    -6872.711   -956.59976     102002.7      46.7237      46.7237      46.7237 
  401000    131.81133   -7640.3432   -6887.5381   -314.09102     102002.7      46.7237      46.7237      46.7237 
  402000    127.00298   -7639.5658   -6914.2223   -912.55419     102002.7      46.7237      46.7237      46.7237 
  403000    129.20478   -7636.3156   -6898.3971   -1080.4932     102002.7      46.7237      46.7237      46.7237 
  404000    128.32568   -7619.2754   -6886.3776   -722.59532     102002.7      46.7237      46.7237      46.7237 
  405000    126.05511   -7632.2531   -6912.3232   -651.38056     102002.7      46.7237      46.7237      46.7237 
  406000    131.88434   -7617.4163   -6864.1943   -372.69533     102002.7      46.7237      46.7237      46.7237 
  407000     131.1133    -7630.685   -6881.8665   -1006.3767     102002.7      46.7237      46.7237      46.7237 
  408000    130.35235   -7638.7393   -6894.2667   -623.32218     102002.7      46.7237      46.7237      46.7237 
  409000    128.51811   -7650.0537   -6916.0569   -668.29393     102002.7      46.7237      46.7237      46.7237 
  410000    128.34384   -7625.1835   -6892.1821   -984.86883     102002.7      46.7237      46.7237      46.7237 
  411000    131.23572   -7613.8773   -6864.3596    -558.9843     102002.7      46.7237      46.7237      46.7237 
  412000    126.01917   -7647.8615   -6928.1367   -866.81123     102002.7      46.7237      46.7237      46.7237 
  413000    128.39454   -7627.2742   -6893.9832   -877.40425     102002.7      46.7237      46.7237      46.7237 
  414000    129.32417   -7610.2849   -6871.6845   -707.23068     102002.7      46.7237      46.7237      46.7237 
  415000    131.59672   -7629.6252   -6878.0458   -628.62535     102002.7      46.7237      46.7237      46.7237 
  416000    125.62924   -7646.6585   -6929.1608   -546.17883     102002.7      46.7237      46.7237      46.7237 
  417000    131.75716   -7611.6237   -6859.1279   -583.06372     102002.7      46.7237      46.7237      46.7237 
  418000    126.12022   -7622.1431   -6901.8412    -834.6977     102002.7      46.7237      46.7237      46.7237 
  419000    128.03964   -7636.2702   -6905.0061    -557.3483     102002.7      46.7237      46.7237      46.7237 
  420000    128.64231   -7629.2823   -6894.5763   -567.00615     102002.7      46.7237      46.7237      46.7237 
  421000    130.63513   -7606.3147   -6860.2271   -677.63183     102002.7      46.7237      46.7237      46.7237 
  422000    130.43644   -7634.0269   -6889.0742   -912.37346     102002.7      46.7237      46.7237      46.7237 
  423000    129.22848   -7635.4894   -6897.4356   -507.31262     102002.7      46.7237      46.7237      46.7237 
  424000    130.77614   -7635.9273   -6889.0344   -648.82763     102002.7      46.7237      46.7237      46.7237 
  425000    133.00607   -7612.1784   -6852.5499   -980.57318     102002.7      46.7237      46.7237      46.7237 
  426000    129.88687   -7643.4074   -6901.5934   -910.00663     102002.7      46.7237      46.7237      46.7237 
  427000    129.24166   -7626.1903   -6888.0612   -860.58001     102002.7      46.7237      46.7237      46.7237 
  428000    129.72813   -7623.7114   -6882.8039   -823.50567     102002.7      46.7237      46.7237      46.7237 
  429000    131.67169   -7623.2032   -6871.1956   -989.34697     102002.7      46.7237      46.7237      46.7237 
  430000    131.61885   -7638.1216   -6886.4158   -815.57699     102002.7      46.7237      46.7237      46.7237 
  431000    129.53061   -7621.5015   -6881.7222   -757.20611     102002.7      46.7237      46.7237      46.7237 
  432000    129.91434    -7618.051   -6876.0801   -791.41842     102002.7      46.7237      46.7237      46.7237 
  433000    130.99523   -7636.9389   -6888.7948   -1103.1219     102002.7      46.7237      46.7237      46.7237 
  434000    133.67948   -7645.0853   -6881.6108   -737.66282     102002.7      46.7237      46.7237      46.7237 
  435000    131.62058   -7622.2168   -6870.5011   -936.61932     102002.7      46.7237      46.7237      46.7237 
  436000    129.14021   -7617.4092   -6879.8595    -582.1018     102002.7      46.7237      46.7237      46.7237 
  437000    129.90564   -7629.4267   -6887.5054   -848.39951     102002.7      46.7237      46.7237      46.7237 
  438000    131.86565   -7625.2985   -6872.1832   -1047.2814     102002.7      46.7237      46.7237      46.7237 
  439000    125.96199   -7638.8517   -6919.4535   -691.44794     102002.7      46.7237      46.7237      46.7237 
  440000    127.46936   -7633.8358   -6905.8287    -962.8894     102002.7      46.7237      46.7237      46.7237 
  441000    130.23694   -7618.6633   -6874.8498   -789.08974     102002.7      46.7237      46.7237      46.7237 
  442000    129.71359   -7622.3951   -6881.5707   -1039.6919     102002.7      46.7237      46.7237      46.7237 
  443000    130.77554   -7629.5542   -6882.6647   -631.52131     102002.7      46.7237      46.7237      46.7237 
  444000    132.06815   -7628.0325   -6873.7606   -765.18929     102002.7      46.7237      46.7237      46.7237 
  445000    133.98555   -7610.1161   -6844.8936   -702.84034     102002.7      46.7237      46.7237      46.7237 
  446000    128.89985   -7630.5337   -6894.3567   -458.99602     102002.7      46.7237      46.7237      46.7237 
  447000    128.06288   -7634.0619   -6902.6651    -473.1804     102002.7      46.7237      46.7237      46.7237 
  448000    131.69059   -7608.3687   -6856.2532   -591.19233     102002.7      46.7237      46.7237      46.7237 
  449000    129.59144    -7621.895   -6881.7682   -593.66028     102002.7      46.7237      46.7237      46.7237 
  450000    134.21916   -7641.4349   -6874.8781   -818.49856     102002.7      46.7237      46.7237      46.7237 
  451000    122.20826   -7650.6458    -6952.686   -761.64209     102002.7      46.7237      46.7237      46.7237 
  452000    129.84094     -7596.87   -6855.3183   -1156.7877     102002.7      46.7237      46.7237      46.7237 
  453000    130.41507    -7636.078   -6891.2473    -563.7728     102002.7      46.7237      46.7237      46.7237 
  454000    131.37316   -7635.1866    -6884.884   -630.36129     102002.7      46.7237      46.7237      46.7237 
  455000    129.91621   -7633.6801   -6891.6985    -554.0236     102002.7      46.7237      46.7237      46.7237 
  456000    128.53052   -7623.8491   -6889.7814   -911.70929     102002.7      46.7237      46.7237      46.7237 
  457000    126.93091   -7647.9697   -6923.0379   -643.06272     102002.7      46.7237      46.7237      46.7237 
  458000    126.81989   -7618.1243   -6893.8265   -732.52864     102002.7      46.7237      46.7237      46.7237 
  459000    133.40815   -7615.8666   -6853.9417   -848.77643     102002.7      46.7237      46.7237      46.7237 
  460000    130.14526   -7606.0978    -6862.808   -492.02228     102002.7      46.7237      46.7237      46.7237 
  461000    130.62414   -7641.9007    -6895.876   -649.83588     102002.7      46.7237      46.7237      46.7237 
  462000    130.69439   -7628.3786   -6881.9526   -695.98628     102002.7      46.7237      46.7237      46.7237 
  463000    132.46138    -7643.217   -6886.6993   -545.08601     102002.7      46.7237      46.7237      46.7237 
  464000    129.35041   -7633.4336   -6894.6833   -840.04877     102002.7      46.7237      46.7237      46.7237 
  465000    126.56942   -7643.6687   -6920.8014   -668.20715     102002.7      46.7237      46.7237      46.7237 
  466000    130.64409   -7641.5868   -6895.4481   -803.29022     102002.7      46.7237      46.7237      46.7237 
  467000    127.79399   -7649.0771   -6919.2159   -649.41335     102002.7      46.7237      46.7237      46.7237 
  468000    131.52816   -7604.8032   -6853.6154   -374.91231     102002.7      46.7237      46.7237      46.7237 
  469000    131.99004    -7626.728   -6872.9022   -776.01935     102002.7      46.7237      46.7237      46.7237 
  470000    133.46096    -7612.416   -6850.1895    -765.4584     102002.7      46.7237      46.7237      46.7237 
  471000    129.98681   -7627.8752   -6885.4904   -762.15176     102002.7      46.7237      46.7237      46.7237 
  472000    131.73327   -7592.5271   -6840.1678   -744.12476     102002.7      46.7237      46.7237      46.7237 
  473000    132.11931   -7645.8686   -6891.3046   -781.81351     102002.7      46.7237      46.7237      46.7237 
  474000    122.57041   -7649.0139   -6948.9858   -964.35638     102002.7      46.7237      46.7237      46.7237 
  475000    128.74934   -7623.5532   -6888.2358   -649.14784     102002.7      46.7237      46.7237      46.7237 
  476000    126.83641   -7632.6081   -6908.2159   -910.45881     102002.7      46.7237      46.7237      46.7237 
  477000     130.0362   -7637.6069   -6894.9399   -580.53993     102002.7      46.7237      46.7237      46.7237 
  478000    130.95619   -7649.0501   -6901.1289   -455.56951     102002.7      46.7237      46.7237      46.7237 
  479000    126.99674   -7584.9303   -6859.6224   -641.72284     102002.7      46.7237      46.7237      46.7237 
  480000    134.30505   -7647.6686   -6880.6213   -456.82977     102002.7      46.7237      46.7237      46.7237 
  481000    129.71651   -7623.7847   -6882.9436   -734.56334     102002.7      46.7237      46.7237      46.7237 
  482000    131.81099   -7616.1426   -6863.3395   -762.33543     102002.7      46.7237      46.7237      46.7237 
  483000    131.54187   -7622.4633   -6871.1972   -748.87024     102002.7      46.7237      46.7237      46.7237 
  484000    130.88285   -7637.2808   -6889.7785    -778.6843     102002.7      46.7237      46.7237      46.7237 
  485000      130.128   -7624.4079   -6881.2167   -414.39128     102002.7      46.7237      46.7237      46.7237 
  486000    131.55225   -7608.9707   -6857.6453     -696.883     102002.7      46.7237      46.7237      46.7237 
  487000    128.65388   -7623.6006   -6888.8285   -665.38631     102002.7      46.7237      46.7237      46.7237 
  488000    130.35859   -7595.9514   -6851.4432   -548.47215     102002.7      46.7237      46.7237      46.7237 
  489000    130.91716   -7647.6678   -6899.9696   -861.32403     102002.7      46.7237      46.7237      46.7237 
  490000    128.83187   -7617.2471   -6881.4584   -630.22059     102002.7      46.7237      46.7237      46.7237 
  491000    131.68231   -7644.1168   -6892.0486   -429.46434     102002.7      46.7237      46.7237      46.7237 
  492000    129.06682   -7651.6041   -6914.4735   -517.91574     102002.7      46.7237      46.7237      46.7237 
  493000    129.40082   -7617.8116   -6878.7735    -679.8785     102002.7      46.7237      46.7237      46.7237 
  494000    131.88545   -7607.0943   -6853.8659   -566.59291     102002.7      46.7237      46.7237      46.7237 
  495000    130.39682   -7636.1231   -6891.3967   -765.65904     102002.7      46.7237      46.7237      46.7237 
  496000    126.42966   -7637.5795   -6915.5104   -738.45124     102002.7      46.7237      46.7237      46.7237 
  497000    129.06172   -7612.9441   -6875.8426   -674.34298     102002.7      46.7237      46.7237      46.7237 
  498000    130.32376    -7604.859   -6860.5498   -763.90171     102002.7      46.7237      46.7237      46.7237 
  499000    132.38779   -7658.3534    -6902.256    -641.9224     102002.7      46.7237      46.7237      46.7237 
  500000    128.70312   -7646.9811   -6911.9277   -668.95719     102002.7      46.7237      46.7237      46.7237 
  500502    129.71495   -7626.6216   -6885.7895   -937.56934     102002.7      46.7237      46.7237      46.7237 
Loop time of 1372.57 on 16 procs for 500000 steps with 1917 atoms

Performance: 31.474 ns/day, 0.763 hours/ns, 364.279 timesteps/s
99.9% CPU use with 16 MPI tasks x no OpenMP threads

MPI task timing breakdown:
Section |  min time  |  avg time  |  max time  |%varavg| %total
---------------------------------------------------------------
Pair    | 528.37     | 739.91     | 943.21     | 525.0 | 53.91
Bond    | 162.87     | 174.53     | 185.83     |  50.9 | 12.72
Neigh   | 6.8274     | 6.9012     | 7.0105     |   2.5 |  0.50
Comm    | 234.64     | 437.88     | 647.68     | 693.0 | 31.90
Output  | 0.021029   | 0.021403   | 0.024514   |   0.6 |  0.00
Modify  | 7.2122     | 7.9387     | 9.2173     |  25.6 |  0.58
Other   |            | 5.39       |            |       |  0.39

Nlocal:    119.812 ave 153 max 96 min
Histogram: 1 1 5 1 2 3 1 1 0 1
Nghost:    2450.5 ave 2470 max 2410 min
Histogram: 1 0 0 0 1 5 2 1 2 4
Neighs:    11462.4 ave 15721 max 5770 min
Histogram: 1 1 2 2 0 2 2 2 0 4

Total # of neighbors = 183399
Ave neighs/atom = 95.6698
Ave special neighs/atom = 6.00939
Neighbor list builds = 4687
Dangerous builds = 0
Neighbor list info ...
  update every 1 steps, delay 10 steps, check yes
  max neighbors/atom: 2000, page size: 100000
  master list distance cutoff = 16
  ghost atom cutoff = 16
  binsize = 8, bins = 6 6 6
  3 neighbor lists, perpetual/occasional/extra = 3 0 0
  (1) pair buck6d/coul/gauss/dsf, perpetual, skip from (3)
      attributes: half, newton on
      pair build: skip
      stencil: none
      bin: none
  (2) pair lj/cut, perpetual, skip from (3)
      attributes: half, newton on
      pair build: skip
      stencil: none
      bin: none
  (3) neighbor class addition, perpetual
      attributes: half, newton on
      pair build: half/bin/newton
      stencil: half/bin/3d/newton
      bin: standard
Setting up Verlet run ...
  Unit style    : real
  Current step  : 500502
  Time step     : 1
WARNING: Inconsistent image flags (../domain.cpp:786)
Per MPI rank memory allocation (min/avg/max) = 22.89 | 23.32 | 23.35 Mbytes
Step Time TotEng KinEng PotEng E_mol E_pair Temp Pxx Pyy Pzz Pxy Pxz Pyz Cella Cellb Cellc CellAlpha CellBeta CellGamma Volume Press 
  500502       500000   -6885.7895    740.83215   -7626.6216     4385.007   -12011.629    129.71495   -800.07962   -815.93532   -1196.6931     74.44954   -129.90837    31.904105      46.7237      46.7237      46.7237           90           90           90     102002.7   -937.56934 
  501000       500498   -6876.6216    735.30852   -7611.9302    4412.8405   -12024.771    128.74779   -782.66052   -615.06531   -867.16574   -207.19183    43.657408    368.82608      46.7237      46.7237      46.7237           90           90           90     102002.7   -754.96386 
  502000       501498   -6877.7085    746.80418   -7624.5127    4387.8969    -12012.41    130.76061   -373.62233   -994.91562   -1545.4239   -79.240569   -240.65934    27.807089      46.7237      46.7237      46.7237           90           90           90     102002.7   -971.32063 
  503000       502498   -6883.5129    752.96765   -7636.4806    4386.3609   -12022.841    131.83979   -808.30082   -1052.1989   -490.66578   -89.913702     254.0706     24.51599      46.7237      46.7237      46.7237           90           90           90     102002.7   -783.72183 
  504000       503498   -6879.9349    750.55036   -7630.4852    4374.9116   -12005.397    131.41654   -1035.0948   -894.37086   -595.95012   -77.680712   -110.28252    75.124175      46.7237      46.7237      46.7237           90           90           90     102002.7   -841.80526 
  505000       504498     -6911.45    726.80828   -7638.2582    4378.2993   -12016.558    127.25945   -416.64557   -914.11565   -1175.2334   -124.61368   -103.24011    -103.9961      46.7237      46.7237      46.7237           90           90           90     102002.7   -835.33153 
  506000       505498   -6881.7461    739.99023   -7621.7364    4399.0954   -12020.832    129.56753   -1172.8644   -438.59651    -661.1769    174.74371   -99.517502   -73.643099      46.7237      46.7237      46.7237           90           90           90     102002.7   -757.54595 
  507000       506498   -6889.5983    759.19469    -7648.793    4368.6801   -12017.473    132.93011   -1112.1726   -758.86127   -726.38002    18.412649    59.495309   -90.700308      46.7237      46.7237      46.7237           90           90           90     102002.7   -865.80463 
  508000       507498   -6875.5699    731.64468   -7607.2146     4420.019   -12027.234    128.10628    -809.4012   -1338.3312   -1157.8089   -45.438544   -35.748032   -19.011945      46.7237      46.7237      46.7237           90           90           90     102002.7   -1101.8471 
  509000       508498   -6886.0575    750.77065   -7636.8282    4372.4063   -12009.235    131.45511   -1243.9525   -783.86314   -622.11847    178.55403   -286.22644   -245.64183      46.7237      46.7237      46.7237           90           90           90     102002.7   -883.31137 
  510000       509498   -6911.7193    728.20914   -7639.9285    4391.9474   -12031.876    127.50474   -1331.5848   -663.22468   -683.60076   -112.63346    247.04855    26.398974      46.7237      46.7237      46.7237           90           90           90     102002.7   -892.80343 
  511000       510498   -6888.9071    743.71343   -7632.6205     4397.579     -12030.2    130.21944   -1130.6014   -767.14081   -910.85092   -44.968102   -79.735097    -122.5882      46.7237      46.7237      46.7237           90           90           90     102002.7    -936.1977 
  512000       511498   -6877.1618    750.20436   -7627.3662    4380.9757   -12008.342    131.35596   -724.04907   -504.64716   -903.28591    24.640046   -2.3394281    112.55825      46.7237      46.7237      46.7237           90           90           90     102002.7   -710.66071 
  513000       512498   -6903.2422    732.79186    -7636.034    4359.2611   -11995.295    128.30714   -740.88555    -778.7007   -916.84681   -258.23204    74.409841   -53.893792      46.7237      46.7237      46.7237           90           90           90     102002.7   -812.14435 
  514000       513498   -6863.4119    757.83079   -7621.2427    4377.3755   -11998.618     132.6913   -251.79015   -670.92558   -773.79097    141.46484    118.69291   -43.838991      46.7237      46.7237      46.7237           90           90           90     102002.7   -565.50223 
  515000       514498   -6869.5017     733.5293    -7603.031    4396.3543   -11999.385    128.43626   -511.44699   -888.22171   -758.96978   -29.790586    150.28493   -76.887966      46.7237      46.7237      46.7237           90           90           90     102002.7   -719.54616 
  516000       515498   -6906.6051    727.20758   -7633.8126     4383.018   -12016.831    127.32937    -1175.511   -334.25927   -1303.6801   -207.21775   -151.65571   -196.80666      46.7237      46.7237      46.7237           90           90           90     102002.7   -937.81676 
  517000       516498   -6886.0721    743.54819   -7629.6203    4387.7294    -12017.35    130.19051   -764.25502   -679.61985   -703.32911   -193.41855    25.657431   -209.68466      46.7237      46.7237      46.7237           90           90           90     102002.7   -715.73466 
  518000       517498   -6904.0985    731.12555    -7635.224     4382.496    -12017.72    128.01538   -710.61704   -618.29056   -1035.6842   -304.98189    199.99027   -22.142273      46.7237      46.7237      46.7237           90           90           90     102002.7   -788.19726 
  519000       518498   -6900.1339    744.42273   -7644.5567    4381.7716   -12026.328    130.34363   -798.91464    -524.0021   -863.29879    35.278953   -98.353024   -103.27369      46.7237      46.7237      46.7237           90           90           90     102002.7   -728.73851 
  520000       519498   -6876.6327    747.64473   -7624.2775    4390.0626    -12014.34    130.90778    -283.8607   -478.02643   -885.84535    13.043402   -75.855848    -82.41712      46.7237      46.7237      46.7237           90           90           90     102002.7   -549.24416 
  521000       520498   -6892.4405    756.79868   -7649.2392    4374.5177   -12023.757    132.51058   -866.68936    -605.7226   -363.98707    148.82151    151.39021   -88.829235      46.7237      46.7237      46.7237           90           90           90     102002.7   -612.13301 
  522000       521498   -6887.1534    733.77581   -7620.9292    4392.8006    -12013.73    128.47943   -1042.6417   -815.09375   -930.91533     94.88091   -8.7808829    250.55565      46.7237      46.7237      46.7237           90           90           90     102002.7   -929.55027 
  523000       522498   -6902.4708    734.05495   -7636.5257     4373.935   -12010.461     128.5283   -686.31252   -587.27233   -1070.8805   -424.39642    72.123477   -88.713826      46.7237      46.7237      46.7237           90           90           90     102002.7   -781.48844 
  524000       523498   -6879.8456    756.87559   -7636.7212    4385.5694   -12022.291    132.52405   -1583.7638    -1149.885   -854.70985   -132.99435    310.54636    271.25587      46.7237      46.7237      46.7237           90           90           90     102002.7   -1196.1196 
  525000       524498   -6877.7486    744.33017   -7622.0788    4394.9416    -12017.02    130.32742    -909.2601   -970.80934   -480.53219    27.423819   -106.01999   -8.5577611      46.7237      46.7237      46.7237           90           90           90     102002.7   -786.86721 
  526000       525498    -6861.765    773.98776   -7635.7527    4382.1447   -12017.897    135.52028   -919.82379   -613.87001   -689.63875    179.52986   -183.84278    36.025688      46.7237      46.7237      46.7237           90           90           90     102002.7   -741.11085 
  527000       526498   -6885.1307    745.69846   -7630.8291    4390.0359   -12020.865      130.567   -371.34105   -488.61719   -720.33264    329.37251    137.39312    82.835776      46.7237      46.7237      46.7237           90           90           90     102002.7   -526.76363 
  528000       527498   -6909.5747    725.86922   -7635.4439    4391.8092   -12027.253    127.09503   -791.15888   -943.15533   -1061.7522    100.07508    160.77829    221.24982      46.7237      46.7237      46.7237           90           90           90     102002.7   -932.02214 
  529000       528498   -6898.8124    739.98681   -7638.7992     4382.312   -12021.111    129.56693   -513.44321   -636.88949    -681.1134   -146.00206    21.972984   -211.03659      46.7237      46.7237      46.7237           90           90           90     102002.7   -610.48203 
  530000       529498   -6878.2912    747.29862   -7625.5899    4412.9092   -12038.499    130.84718   -513.49431   -205.44168   -656.27909    211.58262    176.71858   -74.678735      46.7237      46.7237      46.7237           90           90           90     102002.7   -458.40502 
  531000       530498   -6855.8773    755.33462    -7611.212    4408.1705   -12019.382    132.25423   -854.04321   -499.14129   -436.26389   -87.334538    23.825305    375.16231      46.7237      46.7237      46.7237           90           90           90     102002.7    -596.4828 
  532000       531498   -6898.9586     730.0413   -7628.9999    4369.8137   -11998.814    127.82554   -562.77085   -880.31021   -350.34241    200.79849    12.416889    1.0876246      46.7237      46.7237      46.7237           90           90           90     102002.7   -597.80782 
  533000       532498   -6872.4096    747.29235    -7619.702    4408.1813   -12027.883    130.84608   -883.09082   -695.58602   -96.853411   -113.84198    144.39576   -79.789489      46.7237      46.7237      46.7237           90           90           90     102002.7   -558.51009 
  534000       533498   -6867.3745    742.36342   -7609.7379    4410.3408   -12020.079    129.98306     -942.434   -679.39911   -727.89394    32.749334    83.086422    126.22469      46.7237      46.7237      46.7237           90           90           90     102002.7   -783.24235 
  535000       534498   -6893.4316    753.91362   -7647.3452    4350.5111   -11997.856    132.00543   -561.51231   -680.10986   -664.84541   -61.535974   -254.90941    106.65889      46.7237      46.7237      46.7237           90           90           90     102002.7   -635.48919 
  536000       535498   -6847.5764     759.5073   -7607.0837    4407.2648   -12014.349    132.98484   -385.67512   -344.56705   -880.27435    219.16388    26.592238   -159.99811      46.7237      46.7237      46.7237           90           90           90     102002.7   -536.83884 
  537000       536498   -6877.8297    729.42958   -7607.2593    4392.6298   -11999.889    127.71843    -903.6128    -520.9695   -978.94735     35.24862    284.65251    292.35903      46.7237      46.7237      46.7237           90           90           90     102002.7   -801.17655 
  538000       537498   -6893.9989    736.60287   -7630.6018    4403.8742   -12034.476    128.97443   -349.28323   -281.94387   -864.68541   -18.032942    245.99184    83.157326      46.7237      46.7237      46.7237           90           90           90     102002.7    -498.6375 
  539000       538498   -6859.2316     742.7571   -7601.9887    4378.1075   -11980.096    130.05199   -421.44956   -342.40022   -538.83266    123.44305   -7.9006516    113.09365      46.7237      46.7237      46.7237           90           90           90     102002.7   -434.22748 
  540000       539498   -6894.4136    726.74917   -7621.1628    4412.1446   -12033.307    127.24911   -1227.0653   -632.87879   -561.46788    109.33775   -123.08156   -88.263903      46.7237      46.7237      46.7237           90           90           90     102002.7   -807.13733 
  541000       540498   -6875.7011    732.38949   -7608.0905    4418.5248   -12026.615    128.23669   -892.72893   -951.31315   -554.40792    102.99275     178.7672     234.8529      46.7237      46.7237      46.7237           90           90           90     102002.7   -799.48333 
  542000       541498   -6879.0055     736.9332   -7615.9387    4396.9599   -12012.899    129.03226   -548.50385   -1294.1417   -960.10363   -209.98804    339.59964    62.090779      46.7237      46.7237      46.7237           90           90           90     102002.7   -934.24972 
  543000       542498   -6896.7891    723.46898    -7620.258     4390.549   -12010.807    126.67477   -1133.4992   -386.54514   -1088.5972    81.561494    76.260517   -104.28633      46.7237      46.7237      46.7237           90           90           90     102002.7   -869.54718 
  544000       543498   -6909.5893    738.16345   -7647.7527    4397.0692   -12044.822    129.24767   -542.19685    -1068.029   -483.43167    260.40982    75.196985   -21.794572      46.7237      46.7237      46.7237           90           90           90     102002.7   -697.88584 
  545000       544498   -6891.5988    739.23447   -7630.8333    4366.6118   -11997.445     129.4352   -853.61901   -810.14886   -1143.6471   -47.827571     159.3415   -85.986622      46.7237      46.7237      46.7237           90           90           90     102002.7   -935.80498 
  546000       545498   -6896.0639     734.9999   -7631.0638    4399.6975   -12030.761    128.69376   -978.70318   -996.20581    -1207.492   -104.37199   -80.183177   -105.96871      46.7237      46.7237      46.7237           90           90           90     102002.7   -1060.8003 
  547000       546498   -6918.0708    729.69629   -7647.7671    4356.4096   -12004.177    127.76513   -893.88739   -822.04058   -955.86307    92.506694    88.498774    36.250203      46.7237      46.7237      46.7237           90           90           90     102002.7   -890.59701 
  548000       547498   -6876.0746    756.07799   -7632.1526    4393.0053   -12025.158    132.38439   -798.54516   -1246.1522   -630.46884   -191.84113   -81.520811   -4.5570312      46.7237      46.7237      46.7237           90           90           90     102002.7   -891.72206 
  549000       548498    -6906.428    725.66764   -7632.0956    4390.2161   -12022.312    127.05974   -877.64142   -1066.3621   -1279.0489   -68.570834   -34.225467    83.344381      46.7237      46.7237      46.7237           90           90           90     102002.7   -1074.3508 
  550000       549498   -6928.0879    733.89086   -7661.9788    4374.6516    -12036.63    128.49957   -613.20467   -806.01404   -692.56433    273.21284    42.271206   -164.00835      46.7237      46.7237      46.7237           90           90           90     102002.7   -703.92768 
  551000       550498    -6881.805    744.62632   -7626.4313    4404.2762   -12030.707    130.37928   -882.39002   -543.87504   -782.68266   -134.85001    48.210409    130.53364      46.7237      46.7237      46.7237           90           90           90     102002.7   -736.31591 
  552000       551498   -6915.6086    738.76053   -7654.3692    4362.0823   -12016.451    129.35222   -688.97668   -751.13611    -861.8733   -228.62576    300.66833    -129.9039      46.7237      46.7237      46.7237           90           90           90     102002.7    -767.3287 
  553000       552498   -6893.5509    753.21352   -7646.7645    4363.9532   -12010.718    131.88284   -1055.5981   -392.59215   -979.95693   -4.7987428    -241.8828    19.552231      46.7237      46.7237      46.7237           90           90           90     102002.7   -809.38238 
  554000       553498    -6856.632    762.34523   -7618.9772    4423.1538   -12042.131    133.48175   -579.22573   -482.27644   -334.84307   -1.4244617   -173.22078   -130.38749      46.7237      46.7237      46.7237           90           90           90     102002.7   -465.44841 
  555000       554498    -6886.084     756.0289   -7642.1129    4380.7053   -12022.818     132.3758   -507.73967   -578.11697   -825.60683    259.13397   -82.454938    141.30694      46.7237      46.7237      46.7237           90           90           90     102002.7   -637.15449 
[...]
  936000       935498   -6902.4675    761.05602   -7663.5235    4353.4951   -12017.019    133.25601   -918.00243    -1250.398   -872.20147    197.56557   -24.939188    129.34335      46.7237      46.7237      46.7237           90           90           90     102002.7    -1013.534 
  937000       936498   -6873.5557    769.96259   -7643.5183     4363.531   -12007.049     134.8155   -809.28295   -790.86665   -1056.6902    7.8271365    80.418671    292.79426      46.7237      46.7237      46.7237           90           90           90     102002.7   -885.61328 
  938000       937498   -6917.9752    716.51323   -7634.4884    4389.1406   -12023.629    125.45686   -721.49938    -527.5177   -692.78104    332.34937   -279.53689    78.472988      46.7237      46.7237      46.7237           90           90           90     102002.7   -647.26604 
  939000       938498   -6884.7087    742.73056   -7627.4393      4386.43   -12013.869    130.04734   -958.69871   -631.52951   -610.43453   -42.353635   -252.80396    83.354361      46.7237      46.7237      46.7237           90           90           90     102002.7   -733.55425 
  940000       939498   -6890.4363    735.40046   -7625.8368    4396.3315   -12022.168    128.76389   -823.98906   -826.75709   -721.27502    18.595669    161.64984   -113.20224      46.7237      46.7237      46.7237           90           90           90     102002.7   -790.67372 
  941000       940498   -6910.8575    743.73796   -7654.5955    4369.9186   -12024.514    130.22373   -938.09614   -1418.0562   -864.59667   -94.472701   -245.79986    309.34214      46.7237      46.7237      46.7237           90           90           90     102002.7    -1073.583 
  942000       941498   -6916.8602    712.24454   -7629.1047    4410.9615   -12040.066    124.70944   -916.32745   -975.82845   -1138.4793    47.855768    43.700488  -0.69590587      46.7237      46.7237      46.7237           90           90           90     102002.7   -1010.2117 
  943000       942498   -6908.1753    728.57725   -7636.7525    4390.4433   -12027.196    127.56919   -1054.8852   -708.28712   -771.87033   -169.84945   -74.190641   -32.662795      46.7237      46.7237      46.7237           90           90           90     102002.7   -845.01423 
  944000       943498   -6874.4469    756.89035   -7631.3373    4384.2617   -12015.599    132.52663   -1033.1037   -896.24693   -774.59292    220.95564   -57.859091    36.331362      46.7237      46.7237      46.7237           90           90           90     102002.7   -901.31453 
  945000       944498   -6898.0228    726.52171   -7624.5445    4398.8671   -12023.412    127.20928    -760.3385   -517.05253   -904.61726    109.75843    175.37662   -60.351407      46.7237      46.7237      46.7237           90           90           90     102002.7    -727.3361 
  946000       945498   -6877.1956    744.50521   -7621.7009    4380.5913   -12002.292    130.35807   -1248.3829   -647.12653   -650.69764    19.524542    9.5986808    -81.66583      46.7237      46.7237      46.7237           90           90           90     102002.7   -848.73569 
  947000       946498   -6871.7119    764.97448   -7636.6864    4383.5473   -12020.234    133.94211   -770.29437   -799.17699   -611.52105    25.600357    312.45478    79.926445      46.7237      46.7237      46.7237           90           90           90     102002.7   -726.99747 
  948000       947498   -6900.5023    737.68533   -7638.1876    4373.9995   -12012.187    129.16396   -1188.7737   -1135.6079   -980.70127     155.6889    249.95274      213.277      46.7237      46.7237      46.7237           90           90           90     102002.7   -1101.6943 
  949000       948498   -6922.2518    722.20453   -7644.4563    4369.4549   -12013.911    126.45337   -828.90316   -854.54994    -735.5327    193.75907    111.06819    318.19566      46.7237      46.7237      46.7237           90           90           90     102002.7    -806.3286 
  950000       949498   -6874.4446    751.01435    -7625.459    4390.0028   -12015.462    131.49778   -917.09726   -555.72792   -509.53444  -0.30046996   -55.931511   -78.454825      46.7237      46.7237      46.7237           90           90           90     102002.7   -660.78654 
  951000       950498   -6894.5405    755.94842   -7650.4889    4394.3627   -12044.852    132.36171   -1311.2885   -1004.1388    -969.2559    119.38499   -41.527375   -37.862276      46.7237      46.7237      46.7237           90           90           90     102002.7   -1094.8944 
  952000       951498   -6874.4432    756.40725   -7630.8504    4391.9882   -12022.839    132.44205   -1237.1386   -937.96856   -679.01826   -116.31239    126.45841   -114.74428      46.7237      46.7237      46.7237           90           90           90     102002.7   -951.37514 
  953000       952498   -6872.3186    742.30901   -7614.6276    4390.6396   -12005.267    129.97353   -633.74898   -700.08827   -418.04509   -162.22936    220.18582    74.707779      46.7237      46.7237      46.7237           90           90           90     102002.7   -583.96078 
  954000       953498   -6902.2082    763.01239   -7665.2206    4378.7832   -12044.004    133.59856   -930.68179   -1122.2205   -1457.2775   -73.589025     85.42016    241.31701      46.7237      46.7237      46.7237           90           90           90     102002.7   -1170.0599 
  955000       954498   -6874.3422    748.26916   -7622.6114    4411.4131   -12034.024    131.01712    -930.0895   -716.90244    -523.1378   -58.162116   -201.26413    112.06332      46.7237      46.7237      46.7237           90           90           90     102002.7   -723.37658 
  956000       955498   -6944.0964    717.77971   -7661.8761    4350.6376   -12012.514    125.67861   -1112.9838   -952.96842   -1165.9301   -102.28696    92.121059   -285.43059      46.7237      46.7237      46.7237           90           90           90     102002.7   -1077.2941 
  957000       956498   -6878.7997    747.67996   -7626.4797    4412.7933   -12039.273    130.91395   -1011.8785   -1225.0485   -1484.3363   -313.18779    16.938369    24.998194      46.7237      46.7237      46.7237           90           90           90     102002.7   -1240.4211 
  958000       957498   -6912.2187    700.39441   -7612.6131    4393.7452   -12006.358    122.63456   -678.49759   -894.56129   -439.01605    344.98992    73.497061   -113.97295      46.7237      46.7237      46.7237           90           90           90     102002.7   -670.69165 
  959000       958498   -6886.6842    712.74445   -7599.4287    4430.1625   -12029.591    124.79697   -932.97253   -1575.3449   -761.29769   -38.455572    89.388096   -14.992697      46.7237      46.7237      46.7237           90           90           90     102002.7   -1089.8717 
  960000       959498   -6889.5522    734.11671   -7623.6689     4380.169   -12003.838    128.53911   -1218.8439    -423.3061   -1024.8993    -38.48485   -84.290699    13.659423      46.7237      46.7237      46.7237           90           90           90     102002.7   -889.01642 
  961000       960498   -6895.4809    744.79141   -7640.2723    4379.6651   -12019.937    130.40819   -597.98568   -1114.8505   -783.26811   -227.85952   -156.71935   -340.32168      46.7237      46.7237      46.7237           90           90           90     102002.7   -832.03478 
  962000       961498   -6889.7004    764.07547   -7653.7758    4377.0347   -12030.811     133.7847   -165.98835   -921.56651   -252.14987    29.745033    194.25141   -114.50718      46.7237      46.7237      46.7237           90           90           90     102002.7   -446.56824 
  963000       962498   -6853.0161    765.44719   -7618.4633    4401.0514   -12019.515    134.02488   -432.28556    -345.1145   -867.68431   -4.5507688    25.399807   -276.61491      46.7237      46.7237      46.7237           90           90           90     102002.7   -548.36146 
  964000       963498   -6902.1595    725.49076   -7627.6502    4394.3199    -12021.97    127.02877   -998.64197   -1198.0487   -1150.5269   -248.65094    339.78511   -21.831966      46.7237      46.7237      46.7237           90           90           90     102002.7   -1115.7392 
  965000       964498    -6861.954    761.73567   -7623.6897    4393.6022   -12017.292    133.37502   -1215.2729   -1036.2158   -669.95729   -126.93893      40.4087   -60.420067      46.7237      46.7237      46.7237           90           90           90     102002.7   -973.81536 
  966000       965498   -6845.6607    761.67484   -7607.3355    4397.0258   -12004.361    133.36437   -728.99246   -767.41166   -615.49534    21.686874   -6.1453134    252.45874      46.7237      46.7237      46.7237           90           90           90     102002.7   -703.96649 
  967000       966498   -6892.9334    750.80863    -7643.742    4369.9175    -12013.66    131.46176   -823.95034   -618.69527   -903.77843    43.934975     157.7705    85.608796      46.7237      46.7237      46.7237           90           90           90     102002.7   -782.14135 
  968000       967498   -6887.0047    739.49872   -7626.5034     4376.343   -12002.846    129.48147   -558.96655   -873.00758   -849.10979     6.501151    248.40122   -42.398803      46.7237      46.7237      46.7237           90           90           90     102002.7   -760.36131 
  969000       968498    -6898.701    730.99049   -7629.6915    4370.2144   -11999.906    127.99173   -464.12612   -714.80326   -319.04929   -1.6057362   -308.12835   -102.86865      46.7237      46.7237      46.7237           90           90           90     102002.7   -499.32622 
  970000       969498   -6855.3475    750.84522   -7606.1927    4416.9894   -12023.182    131.46817   -1053.0482   -1053.1893   -1380.7979   -102.61149   -131.25221    113.63513      46.7237      46.7237      46.7237           90           90           90     102002.7   -1162.3451 
  971000       970498   -6878.5912    755.50595   -7634.0971    4392.5523   -12026.649    132.28423   -720.45098   -595.68335   -1002.9724    90.502306   -190.10805    5.3913624      46.7237      46.7237      46.7237           90           90           90     102002.7   -773.03557 
  972000       971498   -6896.8622    741.31091   -7638.1731    4382.2353   -12020.408    129.79877   -660.87825    -803.7062   -437.04049    -8.757779    10.683726   -21.969741      46.7237      46.7237      46.7237           90           90           90     102002.7   -633.87498 
  973000       972498   -6898.2239    750.28812    -7648.512    4366.5913   -12015.103    131.37062   -936.20058   -791.40141   -1240.0994    109.86737     262.8856    155.16136      46.7237      46.7237      46.7237           90           90           90     102002.7   -989.23378 
  974000       973498   -6844.1821    781.63139   -7625.8135    4385.2001   -12011.014    136.85863   -693.12098   -1051.2729   -209.18514    15.134819    128.76759   -84.406329      46.7237      46.7237      46.7237           90           90           90     102002.7     -651.193 
  975000       974498   -6899.8887    751.46383   -7651.3525    4377.7203   -12029.073    131.57648   -829.04766    -717.9433   -285.12217   -57.594419   -86.861676    90.441753      46.7237      46.7237      46.7237           90           90           90     102002.7   -610.70438 
  976000       975498   -6896.5259    755.56897   -7652.0948    4379.2391   -12031.334    132.29527   -1013.2741   -256.06096   -619.94605    -120.2094    33.908622   -73.830184      46.7237      46.7237      46.7237           90           90           90     102002.7   -629.76038 
  977000       976498   -6852.3002    741.43907   -7593.7392    4432.4408    -12026.18    129.82121   -772.75617    -714.0431    -366.5931    125.10187    171.09893   -164.21758      46.7237      46.7237      46.7237           90           90           90     102002.7   -617.79746 
  978000       977498   -6883.2041    750.46606   -7633.6701    4384.7483   -12018.418    131.40178   -677.01907   -763.11609   -546.37267   -83.562965   -40.518618    77.483048      46.7237      46.7237      46.7237           90           90           90     102002.7   -662.16928 
  979000       978498   -6871.4497    757.15936   -7628.6091    4390.9529   -12019.562    132.57373   -744.66565   -321.67744   -660.70033    229.11888    10.056071   -22.653945      46.7237      46.7237      46.7237           90           90           90     102002.7   -575.68114 
  980000       979498   -6904.2447    727.81278   -7632.0575     4376.915   -12008.972    127.43534   -674.91978   -387.42936   -346.53544   -6.9517067   -14.697356   -101.34121      46.7237      46.7237      46.7237           90           90           90     102002.7    -469.6282 
  981000       980498   -6848.3299     762.4729   -7610.8028    4397.0158   -12007.819     133.5041   -136.14617   -841.09055   -827.72538    247.41596   -270.24207   -100.52731      46.7237      46.7237      46.7237           90           90           90     102002.7   -601.65403 
  982000       981498   -6886.2886    753.16304   -7639.4517    4379.3345   -12018.786      131.874   -1175.9494   -526.47231   -947.17035   -78.177611    250.40747   -84.502795      46.7237      46.7237      46.7237           90           90           90     102002.7   -883.19734 
  983000       982498   -6901.3659    734.77038   -7636.1363    4377.3742   -12013.511    128.65357   -1140.6843   -534.44091   -454.03165   -87.038355   -136.49841    151.50271      46.7237      46.7237      46.7237           90           90           90     102002.7   -709.71897 
  984000       983498   -6911.5738    735.71652   -7647.2903    4361.3978   -12008.688    128.81923   -925.86665   -356.32052   -1188.1785     244.0576    61.402139    144.84689      46.7237      46.7237      46.7237           90           90           90     102002.7   -823.45523 
  985000       984498   -6884.5206    746.18236   -7630.7029    4402.3652   -12033.068    130.65173   -1092.9339   -298.95196   -1109.4428    -16.04107   -111.61067    64.623858      46.7237      46.7237      46.7237           90           90           90     102002.7   -833.77622 
  986000       985498   -6928.6351    716.43915   -7645.0743     4395.809   -12040.883    125.44389   -480.15026   -348.27863   -719.01928    -228.7056   -121.53856   -329.06527      46.7237      46.7237      46.7237           90           90           90     102002.7   -515.81605 
  987000       986498   -6872.1646    751.51977   -7623.6843    4391.2101   -12014.894    131.58628   -905.19945   -713.05369   -1079.5605    40.454596   -118.65551    18.298955      46.7237      46.7237      46.7237           90           90           90     102002.7   -899.27123 
  988000       987498   -6871.2348    758.88683   -7630.1217    4386.5735   -12016.695     132.8762   -561.44177   -752.82785   -356.90967   -104.98041    173.50299    11.825741      46.7237      46.7237      46.7237           90           90           90     102002.7   -557.05976 
  989000       988498   -6873.1315    733.53682   -7606.6684    4422.2238   -12028.892    128.43758   -942.60616   -667.23224    -872.5741   -44.198077    101.25462    -90.15682      46.7237      46.7237      46.7237           90           90           90     102002.7   -827.47083 
  990000       989498   -6858.6611    753.99624   -7612.6573    4404.4389   -12017.096    132.01989    -1172.993   -542.48366   -383.24619   -195.98034   -139.35056   -208.54145      46.7237      46.7237      46.7237           90           90           90     102002.7   -699.57427 
  991000       990498   -6878.7914    739.61003   -7618.4015    4387.9675   -12006.369    129.50096   -548.40067    -830.8412    -550.4312    35.468402    -10.12732    145.23593      46.7237      46.7237      46.7237           90           90           90     102002.7   -643.22436 
  992000       991498   -6861.4177    749.93939   -7611.3571    4400.6882   -12012.045    131.30956   -401.58603    -603.7424    -1409.541    7.3657281   -262.99926   -210.91352      46.7237      46.7237      46.7237           90           90           90     102002.7   -804.95647 
  993000       992498   -6888.7451    745.77112   -7634.5162    4389.0575   -12023.574    130.57973   -620.98471    -462.1011   -681.80853   -196.16815   -65.105917    -28.00499      46.7237      46.7237      46.7237           90           90           90     102002.7   -588.29811 
  994000       993498   -6916.7654    718.63597   -7635.4013    4373.7015   -12009.103    125.82854   -510.25201    -1011.398   -674.56956    -209.8467   -180.97309    -80.05687      46.7237      46.7237      46.7237           90           90           90     102002.7   -732.07317 
  995000       994498   -6872.9567    742.31924   -7615.2759    4371.9392   -11987.215    129.97532   -961.13649   -956.26295   -260.87333   -109.01528   -230.52629    151.61212      46.7237      46.7237      46.7237           90           90           90     102002.7   -726.09092 
  996000       995498   -6907.6737    740.87384   -7648.5475    4369.3405   -12017.888    129.72224   -707.50607   -816.87763   -810.74122   -3.6358312    138.22555   -257.80603      46.7237      46.7237      46.7237           90           90           90     102002.7   -778.37497 
  997000       996498   -6902.3865    737.92115   -7640.3077    4389.3989   -12029.707    129.20525   -940.90045   -573.33787   -1135.2336   -24.871529    262.96087    66.334074      46.7237      46.7237      46.7237           90           90           90     102002.7   -883.15729 
  998000       997498   -6859.1804    749.89623   -7609.0766    4399.1064   -12008.183    131.30201    -718.2585   -1092.6406    19.640355   -80.803695    72.363962    89.415424      46.7237      46.7237      46.7237           90           90           90     102002.7   -597.08625 
  999000       998498   -6839.6442    749.15417   -7588.7984    4407.6078   -11996.406    131.17208   -628.21598   -753.93114   -710.93425   -29.672721   -119.15436    23.593893      46.7237      46.7237      46.7237           90           90           90     102002.7   -697.69379 
 1000000       999498   -6889.8046    730.02733   -7619.8319    4387.5658   -12007.398    127.82309    -873.2321   -960.44523   -610.74217    106.24689    142.00996    9.3175209      46.7237      46.7237      46.7237           90           90           90     102002.7    -814.8065 
 1000502      1000000    -6916.763    734.33038   -7651.0934    4368.6472   -12019.741    128.57653   -1249.5148    -728.9705   -934.98709   -293.77489   -46.180184    85.159184      46.7237      46.7237      46.7237           90           90           90     102002.7   -971.15746 
Loop time of 1534.96 on 16 procs for 500000 steps with 1917 atoms

Performance: 28.144 ns/day, 0.853 hours/ns, 325.742 timesteps/s
99.9% CPU use with 16 MPI tasks x no OpenMP threads

MPI task timing breakdown:
Section |  min time  |  avg time  |  max time  |%varavg| %total
---------------------------------------------------------------
Pair    | 627.05     | 848.59     | 1101.7     | 520.6 | 55.28
Bond    | 167.35     | 183.59     | 201.4      |  64.4 | 11.96
Neigh   | 6.7424     | 6.8185     | 6.9353     |   2.6 |  0.44
Comm    | 205.28     | 468.04     | 701.62     | 701.4 | 30.49
Output  | 0.10262    | 0.10789    | 0.10833    |   0.4 |  0.01
Modify  | 21.699     | 22.325     | 23.481     |  13.1 |  1.45
Other   |            | 5.488      |            |       |  0.36

Nlocal:    119.812 ave 151 max 90 min
Histogram: 2 0 1 3 3 2 2 0 2 1
Nghost:    2445.94 ave 2492 max 2404 min
Histogram: 1 2 1 1 4 0 5 1 0 1
Neighs:    11461.7 ave 15814 max 7205 min
Histogram: 1 0 2 2 3 3 3 1 0 1

Total # of neighbors = 183387
Ave neighs/atom = 95.6635
Ave special neighs/atom = 6.00939
Neighbor list builds = 4735
Dangerous builds = 0
Total wall time: 0:48:32
