LAMMPS (30 Mar 2018)
Reading data file ...
  orthogonal box = (0 0 0) to (46.7237 46.7237 46.7237)
  2 by 2 by 4 MPI processor grid
  reading atoms ...
  3114 atoms
  scanning bonds ...
  5 = max bonds/atom
  scanning angles ...
  10 = max angles/atom
  scanning dihedrals ...
  32 = max dihedrals/atom
  scanning impropers ...
  3 = max impropers/atom
  reading bonds ...
  2064 bonds
  reading angles ...
  3696 angles
  reading dihedrals ...
  6240 dihedrals
  reading impropers ...
  1008 impropers
Finding 1-2 1-3 1-4 neighbors ...
  special bond factors lj:   0          0          0         
  special bond factors coul: 0          0          0         
  5 = max # of 1-2 neighbors
  8 = max # of 1-3 neighbors
  20 = max # of 1-4 neighbors
  19 = max # of special neighbors
Finding 1-2 1-3 1-4 neighbors ...
  special bond factors lj:   0          0          1         
  special bond factors coul: 1          1          1         
  5 = max # of 1-2 neighbors
  8 = max # of 1-3 neighbors
  19 = max # of special neighbors
WARNING: Using 'neigh_modify every 1 delay 0 check yes' setting during minimization (../min.cpp:168)
Neighbor list info ...
  update every 1 steps, delay 0 steps, check yes
  max neighbors/atom: 2000, page size: 100000
  master list distance cutoff = 16
  ghost atom cutoff = 16
  binsize = 8, bins = 6 6 6
  3 neighbor lists, perpetual/occasional/extra = 3 0 0
  (1) pair buck6d/coul/gauss/dsf, perpetual, skip from (3)
      attributes: half, newton on
      pair build: skip
      stencil: none
      bin: none
  (2) pair lj/cut, perpetual, skip from (3)
      attributes: half, newton on
      pair build: skip
      stencil: none
      bin: none
  (3) neighbor class addition, perpetual
      attributes: half, newton on
      pair build: half/bin/newton
      stencil: half/bin/3d/newton
      bin: standard
Setting up cg style minimization ...
  Unit style    : real
  Current step  : 0
WARNING: Inconsistent image flags (../domain.cpp:786)
Per MPI rank memory allocation (min/avg/max) = 23.01 | 23.46 | 23.91 Mbytes
Step Temp E_pair E_mol TotEng Press 
       0            0   -15063.645    6482.8914   -8580.7538    6162.3591 
     500            0   -15563.707    3750.0497   -11813.658   -2083.9007 
Loop time of 4.38858 on 16 procs for 500 steps with 3114 atoms

99.9% CPU use with 16 MPI tasks x no OpenMP threads

Minimization stats:
  Stopping criterion = max force evaluations
  Energy initial, next-to-last, final = 
        -8580.75382783     -11813.5435833     -11813.6575811
  Force two-norm initial, final = 2575.84 15.2786
  Force max component initial, final = 152.1 3.02995
  Final line search alpha, max atom move = 0.0051422 0.0155806
  Iterations, force evaluations = 500 1000

MPI task timing breakdown:
Section |  min time  |  avg time  |  max time  |%varavg| %total
---------------------------------------------------------------
Pair    | 2.2678     | 2.8727     | 3.4103     |  20.9 | 65.46
Bond    | 0.26545    | 0.36202    | 0.45096    |   8.5 |  8.25
Neigh   | 0.037041   | 0.037164   | 0.037315   |   0.0 |  0.85
Comm    | 0.51191    | 1.0741     | 1.6747     |  35.9 | 24.47
Output  | 0          | 0          | 0          |   0.0 |  0.00
Modify  | 0          | 0          | 0          |   0.0 |  0.00
Other   |            | 0.0426     |            |       |  0.97

Nlocal:    194.625 ave 231 max 170 min
Histogram: 3 1 3 1 3 1 1 1 1 1
Nghost:    3885.81 ave 3916 max 3853 min
Histogram: 3 1 0 1 2 2 2 2 1 2
Neighs:    11479.1 ave 15524 max 6265 min
Histogram: 1 1 1 3 1 0 5 0 1 3

Total # of neighbors = 183666
Ave neighs/atom = 58.9807
Ave special neighs/atom = 3.69942
Neighbor list builds = 11
Dangerous builds = 0
Neighbor list info ...
  update every 1 steps, delay 10 steps, check yes
  max neighbors/atom: 2000, page size: 100000
  master list distance cutoff = 16
  ghost atom cutoff = 16
  binsize = 8, bins = 6 6 6
  3 neighbor lists, perpetual/occasional/extra = 3 0 0
  (1) pair buck6d/coul/gauss/dsf, perpetual, skip from (3)
      attributes: half, newton on
      pair build: skip
      stencil: none
      bin: none
  (2) pair lj/cut, perpetual, skip from (3)
      attributes: half, newton on
      pair build: skip
      stencil: none
      bin: none
  (3) neighbor class addition, perpetual
      attributes: half, newton on
      pair build: half/bin/newton
      stencil: half/bin/3d/newton
      bin: standard
Setting up Verlet run ...
  Unit style    : real
  Current step  : 500
  Time step     : 1
WARNING: Inconsistent image flags (../domain.cpp:786)
Per MPI rank memory allocation (min/avg/max) = 22.65 | 22.74 | 22.97 Mbytes
Step Temp PotEng TotEng Press Volume Lx Ly Lz 
     500          130   -11813.658   -10607.354   -1543.2983     102002.7      46.7237      46.7237      46.7237 
    1000     112.8595   -10844.065   -9796.8119   -91.382396     102002.7      46.7237      46.7237      46.7237 
    2000    131.45351   -10652.629   -9432.8374   -235.61064     102002.7      46.7237      46.7237      46.7237 
    3000    130.69195   -10695.646   -9482.9212    217.62394     102002.7      46.7237      46.7237      46.7237 
    4000    129.93025   -10704.265   -9498.6077    134.72004     102002.7      46.7237      46.7237      46.7237 
    5000    133.10501   -10676.778   -9441.6623     46.92991     102002.7      46.7237      46.7237      46.7237 
    6000    129.75918   -10712.749   -9508.6794   -133.12844     102002.7      46.7237      46.7237      46.7237 
    7000     128.3493   -10668.664   -9477.6774   -230.69322     102002.7      46.7237      46.7237      46.7237 
    8000    125.69142   -10720.979   -9554.6554   -433.18495     102002.7      46.7237      46.7237      46.7237 
    9000    130.58251   -10650.074   -9438.3648   -451.86166     102002.7      46.7237      46.7237      46.7237 
   10000    129.04983   -10693.737   -9496.2501    -371.7248     102002.7      46.7237      46.7237      46.7237 
   11000    126.18245   -10665.153   -9494.2728   -291.98351     102002.7      46.7237      46.7237      46.7237 
   12000    130.59526   -10679.607   -9467.7798   -122.19679     102002.7      46.7237      46.7237      46.7237 
   13000    133.18376   -10657.376   -9421.5289   -400.91691     102002.7      46.7237      46.7237      46.7237 
   14000    130.12944   -10668.988   -9461.4826   -270.26325     102002.7      46.7237      46.7237      46.7237 
   15000    129.65322   -10694.089   -9491.0028   -206.30174     102002.7      46.7237      46.7237      46.7237 
   16000    132.86049   -10714.931   -9482.0833   -713.29266     102002.7      46.7237      46.7237      46.7237 
   17000    129.96954   -10677.828   -9471.8065   -772.91315     102002.7      46.7237      46.7237      46.7237 
   18000    127.40747   -10668.775   -9486.5275   -420.43958     102002.7      46.7237      46.7237      46.7237 
   19000    128.74967   -10682.337   -9487.6348   -667.14014     102002.7      46.7237      46.7237      46.7237 
   20000    130.69027   -10646.234   -9433.5251   -460.89784     102002.7      46.7237      46.7237      46.7237 
   21000    128.11339   -10681.485   -9492.6873   -395.23817     102002.7      46.7237      46.7237      46.7237 
   22000    128.53931   -10680.908   -9488.1579   -278.34939     102002.7      46.7237      46.7237      46.7237 
   23000    130.43484   -10730.648   -9520.3095   -412.47207     102002.7      46.7237      46.7237      46.7237 
   24000    130.84253   -10671.575   -9457.4531   -365.05298     102002.7      46.7237      46.7237      46.7237 
   25000    130.28182   -10681.065   -9472.1463    -674.4565     102002.7      46.7237      46.7237      46.7237 
   26000    130.14157   -10712.595   -9504.9771   -296.57135     102002.7      46.7237      46.7237      46.7237 
   27000    131.45216   -10701.356    -9481.577    -363.8367     102002.7      46.7237      46.7237      46.7237 
   28000    131.23143    -10668.87   -9451.1392   -247.69855     102002.7      46.7237      46.7237      46.7237 
   29000    129.44764   -10669.636   -9468.4573   -483.85014     102002.7      46.7237      46.7237      46.7237 
   30000    127.80479   -10702.617   -9516.6824   -493.78581     102002.7      46.7237      46.7237      46.7237 
   31000    126.11186   -10657.949   -9487.7244   -320.49774     102002.7      46.7237      46.7237      46.7237 
   32000    128.76778    -10683.72   -9488.8499   -247.52094     102002.7      46.7237      46.7237      46.7237 
   33000    133.55555   -10689.323   -9450.0263   -196.60524     102002.7      46.7237      46.7237      46.7237 
   34000    126.63587   -10677.426   -9502.3386    -596.5937     102002.7      46.7237      46.7237      46.7237 
   35000    129.01718   -10657.659   -9460.4748   -296.21001     102002.7      46.7237      46.7237      46.7237 
   36000    130.65316    -10658.27   -9445.9055   -145.35354     102002.7      46.7237      46.7237      46.7237 
   37000    132.61007   -10704.318   -9473.7943   -507.22402     102002.7      46.7237      46.7237      46.7237 
   38000    130.11695    -10655.57   -9448.1804   -285.87802     102002.7      46.7237      46.7237      46.7237 
   39000    132.25906   -10675.456   -9448.1896    105.07074     102002.7      46.7237      46.7237      46.7237 
   40000    130.49604   -10684.752   -9473.8452   -771.90514     102002.7      46.7237      46.7237      46.7237 
   41000    130.19637   -10663.512   -9455.3861   -244.09412     102002.7      46.7237      46.7237      46.7237 
   42000    130.54541   -10668.356   -9456.9909   -163.91603     102002.7      46.7237      46.7237      46.7237 
   43000     131.8182   -10697.194    -9474.018    -297.0298     102002.7      46.7237      46.7237      46.7237 
   44000    124.90289   -10643.221   -9484.2148   -127.35734     102002.7      46.7237      46.7237      46.7237 
   45000    130.16776   -10648.277   -9440.4158   -202.22575     102002.7      46.7237      46.7237      46.7237 
   46000    129.35092   -10655.053    -9454.772   -82.110147     102002.7      46.7237      46.7237      46.7237 
   47000    126.33161   -10689.095   -9516.8312   -264.93711     102002.7      46.7237      46.7237      46.7237 
   48000    131.51459    -10678.06   -9457.7014   -374.43162     102002.7      46.7237      46.7237      46.7237 
   49000    131.62118   -10720.618   -9499.2705   -306.84723     102002.7      46.7237      46.7237      46.7237 
   50000    129.72054   -10666.674   -9462.9629   -317.12902     102002.7      46.7237      46.7237      46.7237 
   51000    129.80861   -10676.063   -9471.5353   -455.89788     102002.7      46.7237      46.7237      46.7237 
   52000     128.5261   -10685.013   -9492.3859   -152.83314     102002.7      46.7237      46.7237      46.7237 
   53000     131.3122   -10666.426   -9447.9456   -93.866369     102002.7      46.7237      46.7237      46.7237 
   54000    131.27122   -10670.294   -9452.1942   -298.39448     102002.7      46.7237      46.7237      46.7237 
   55000    130.27396   -10664.786   -9455.9399   -219.29798     102002.7      46.7237      46.7237      46.7237 
   56000    128.48796   -10700.443   -9508.1699   -259.32363     102002.7      46.7237      46.7237      46.7237 
   57000    128.32213   -10688.813   -9498.0779   -421.50098     102002.7      46.7237      46.7237      46.7237 
   58000    132.25281   -10662.857   -9435.6481   -218.62727     102002.7      46.7237      46.7237      46.7237 
   59000    129.13643   -10672.162   -9473.8718   -176.24866     102002.7      46.7237      46.7237      46.7237 
   60000    131.17956   -10694.597   -9477.3473   -407.78669     102002.7      46.7237      46.7237      46.7237 
   61000    128.18843    -10699.03    -9509.536    -526.6487     102002.7      46.7237      46.7237      46.7237 
   62000    134.52505   -10688.183   -9439.8899   -344.57503     102002.7      46.7237      46.7237      46.7237 
   63000    127.73369   -10728.731   -9543.4571     104.5522     102002.7      46.7237      46.7237      46.7237 
   64000    127.39243   -10671.949   -9489.8411   -19.601211     102002.7      46.7237      46.7237      46.7237 
   65000    129.66521   -10666.247   -9463.0496   -153.73916     102002.7      46.7237      46.7237      46.7237 
   66000    127.97201   -10707.254   -9519.7686   -172.07453     102002.7      46.7237      46.7237      46.7237 
   67000    130.54809   -10693.665   -9482.2747     -370.936     102002.7      46.7237      46.7237      46.7237 
   68000    131.40563   -10654.025   -9434.6776   -402.07887     102002.7      46.7237      46.7237      46.7237 
   69000    128.25737   -10667.722   -9477.5879   -621.95168     102002.7      46.7237      46.7237      46.7237 
   70000    129.06766   -10689.721    -9492.068   -647.61324     102002.7      46.7237      46.7237      46.7237 
   71000    130.03662   -10662.729   -9456.0856   -515.07218     102002.7      46.7237      46.7237      46.7237 
   72000    129.78519   -10637.548   -9433.2377   -168.64991     102002.7      46.7237      46.7237      46.7237 
   73000    128.83834   -10654.172   -9458.6472    69.077462     102002.7      46.7237      46.7237      46.7237 
   74000     132.1444   -10672.462   -9446.2594   -493.20065     102002.7      46.7237      46.7237      46.7237 
   75000    130.75034   -10678.635   -9465.3685   -544.10768     102002.7      46.7237      46.7237      46.7237 
   76000    128.09998   -10677.191   -9488.5174   -183.39918     102002.7      46.7237      46.7237      46.7237 
   77000    125.95222    -10692.48   -9523.7361   -450.56255     102002.7      46.7237      46.7237      46.7237 
   78000    129.56454   -10660.509   -9458.2453    55.929732     102002.7      46.7237      46.7237      46.7237 
   79000      131.956   -10684.053   -9459.5987   -123.59907     102002.7      46.7237      46.7237      46.7237 
   80000    130.45258    -10672.46   -9461.9566   -389.66086     102002.7      46.7237      46.7237      46.7237 
   81000    129.53063   -10678.969   -9477.0205   -309.43524     102002.7      46.7237      46.7237      46.7237 
   82000    130.11352   -10670.179   -9462.8211   -830.28166     102002.7      46.7237      46.7237      46.7237 
   83000    127.36479   -10685.883   -9504.0314   -635.16811     102002.7      46.7237      46.7237      46.7237 
   84000    130.29978    -10691.79   -9482.7046   -277.56543     102002.7      46.7237      46.7237      46.7237 
   85000    133.09866   -10662.926   -9427.8683   -312.06253     102002.7      46.7237      46.7237      46.7237 
   86000    127.48207   -10641.431   -9458.4912   -190.88084     102002.7      46.7237      46.7237      46.7237 
   87000    130.34043   -10712.064   -9502.6012   -515.63175     102002.7      46.7237      46.7237      46.7237 
   88000    128.33707   -10676.458   -9485.5847   -327.70679     102002.7      46.7237      46.7237      46.7237 
   89000    134.66207   -10680.626   -9431.0613   -255.49097     102002.7      46.7237      46.7237      46.7237 
   90000    130.81385   -10694.357   -9480.5015   -447.63183     102002.7      46.7237      46.7237      46.7237 
   91000    131.45037   -10684.125   -9464.3629   -479.69281     102002.7      46.7237      46.7237      46.7237 
   92000    133.13779   -10674.403   -9438.9822   -333.05307     102002.7      46.7237      46.7237      46.7237 
   93000    129.47479   -10681.586   -9480.1554   -416.45989     102002.7      46.7237      46.7237      46.7237 
   94000    127.28462   -10702.461   -9521.3537   -540.18088     102002.7      46.7237      46.7237      46.7237 
   95000    127.86768   -10673.933   -9487.4153   -713.03529     102002.7      46.7237      46.7237      46.7237 
   96000    127.00891    -10671.91   -9493.3612   -674.80139     102002.7      46.7237      46.7237      46.7237 
   97000    129.52198    -10655.06   -9453.1912    -400.5805     102002.7      46.7237      46.7237      46.7237 
   98000     126.2642   -10670.702   -9499.0639   -601.34571     102002.7      46.7237      46.7237      46.7237 
   99000    132.03928   -10665.409   -9440.1824   -405.90926     102002.7      46.7237      46.7237      46.7237 
  100000    129.90921     -10686.4    -9480.938   -583.33983     102002.7      46.7237      46.7237      46.7237 
  101000    135.15368   -10663.782   -9409.6557    18.583319     102002.7      46.7237      46.7237      46.7237 
  102000    128.42879   -10665.363   -9473.6387   -152.88466     102002.7      46.7237      46.7237      46.7237 
  103000    132.34507   -10676.309   -9448.2441   -351.86505     102002.7      46.7237      46.7237      46.7237 
  104000    133.25239   -10688.165   -9451.6811    -16.19624     102002.7      46.7237      46.7237      46.7237 
  105000    126.22387   -10670.178   -9498.9138   -548.09233     102002.7      46.7237      46.7237      46.7237 
  106000    130.01089   -10697.974   -9491.5692   -241.00779     102002.7      46.7237      46.7237      46.7237 
  107000    130.50287   -10686.702    -9475.732    124.28461     102002.7      46.7237      46.7237      46.7237 
  108000    129.97558    -10655.81   -9449.7324   -285.04953     102002.7      46.7237      46.7237      46.7237 
  109000    127.68582   -10695.543    -9510.713   -386.02266     102002.7      46.7237      46.7237      46.7237 
  110000    134.23457   -10702.454    -9456.856    -707.6961     102002.7      46.7237      46.7237      46.7237 
  111000    126.57236    -10670.11   -9495.6122    -428.8474     102002.7      46.7237      46.7237      46.7237 
  112000    130.60265    -10670.47   -9458.5743    -364.1124     102002.7      46.7237      46.7237      46.7237 
  113000    129.90521    -10667.48   -9462.0558    -496.9455     102002.7      46.7237      46.7237      46.7237 
  114000    128.11711   -10687.447   -9498.6145   -504.05542     102002.7      46.7237      46.7237      46.7237 
  115000    128.28071   -10682.885   -9492.5347   -334.47715     102002.7      46.7237      46.7237      46.7237 
  116000    126.90747   -10675.022   -9497.4141    78.749102     102002.7      46.7237      46.7237      46.7237 
  117000    129.43146   -10662.575   -9461.5466   -224.63315     102002.7      46.7237      46.7237      46.7237 
  118000    126.30115   -10693.998   -9522.0163   -111.02151     102002.7      46.7237      46.7237      46.7237 
  119000    130.65469   -10675.214   -9462.8349   -77.922908     102002.7      46.7237      46.7237      46.7237 
  120000    133.21543   -10670.154   -9434.0131   -247.09546     102002.7      46.7237      46.7237      46.7237 
  121000    125.66355   -10683.243   -9517.1778   -202.91789     102002.7      46.7237      46.7237      46.7237 
  122000    131.38521   -10679.989   -9460.8311   -376.58552     102002.7      46.7237      46.7237      46.7237 
  123000    125.29628   -10675.112   -9512.4549   -585.87821     102002.7      46.7237      46.7237      46.7237 
  124000    131.91398   -10691.911   -9467.8472   -554.47866     102002.7      46.7237      46.7237      46.7237 
  125000    130.05156   -10677.064   -9470.2812   -295.36271     102002.7      46.7237      46.7237      46.7237 
  126000    129.16568   -10658.633   -9460.0712   -227.03466     102002.7      46.7237      46.7237      46.7237 
  127000    134.92228   -10688.994    -9437.015   -718.81739     102002.7      46.7237      46.7237      46.7237 
  128000    127.45345   -10671.324   -9488.6504   -187.04667     102002.7      46.7237      46.7237      46.7237 
  129000    130.84905   -10667.713   -9453.5305   -328.92161     102002.7      46.7237      46.7237      46.7237 
  130000    129.84752   -10686.836   -9481.9474   -302.93945     102002.7      46.7237      46.7237      46.7237 
  131000    131.17138   -10668.257   -9451.0832   -468.22496     102002.7      46.7237      46.7237      46.7237 
  132000    128.93732   -10708.734   -9512.2912   -833.83211     102002.7      46.7237      46.7237      46.7237 
  133000    131.93391   -10679.993   -9455.7436   -518.40322     102002.7      46.7237      46.7237      46.7237 
  134000     127.9801    -10694.62   -9507.0596   -614.70734     102002.7      46.7237      46.7237      46.7237 
  135000    129.70172   -10668.759   -9465.2231   -357.97107     102002.7      46.7237      46.7237      46.7237 
  136000    130.98844   -10669.515   -9454.0389   -94.413847     102002.7      46.7237      46.7237      46.7237 
  137000    134.61093   -10673.507   -9424.4172   -491.24542     102002.7      46.7237      46.7237      46.7237 
  138000    127.22212   -10666.332   -9485.8051   -414.61039     102002.7      46.7237      46.7237      46.7237 
  139000    135.47273    -10673.62   -9416.5332   -373.27076     102002.7      46.7237      46.7237      46.7237 
  140000    131.28993   -10705.394   -9487.1207   -207.31894     102002.7      46.7237      46.7237      46.7237 
  141000    127.80092   -10664.574   -9478.6753   -253.89376     102002.7      46.7237      46.7237      46.7237 
  142000    130.64134   -10713.604   -9501.3486   -249.25797     102002.7      46.7237      46.7237      46.7237 
  143000    130.25523   -10703.126   -9494.4534   -395.21197     102002.7      46.7237      46.7237      46.7237 
  144000     129.4141   -10684.055    -9483.188   -373.87264     102002.7      46.7237      46.7237      46.7237 
  145000    124.76812   -10643.542   -9485.7858   -530.47128     102002.7      46.7237      46.7237      46.7237 
  146000    130.57927   -10666.937   -9455.2573    -327.9701     102002.7      46.7237      46.7237      46.7237 
  147000    131.85538   -10674.384   -9450.8636   -282.06964     102002.7      46.7237      46.7237      46.7237 
  148000    127.23174   -10659.823    -9479.206   -340.84243     102002.7      46.7237      46.7237      46.7237 
  149000     131.3557   -10668.749   -9449.8649   -252.27661     102002.7      46.7237      46.7237      46.7237 
  150000     130.7928    -10683.29   -9469.6295   -355.83587     102002.7      46.7237      46.7237      46.7237 
  151000    127.81501   -10694.508   -9508.4793   -549.11975     102002.7      46.7237      46.7237      46.7237 
  152000    129.28884   -10672.333   -9472.6277   -285.17867     102002.7      46.7237      46.7237      46.7237 
  153000    131.96521   -10668.945   -9444.4048   -241.31909     102002.7      46.7237      46.7237      46.7237 
  154000    128.65376   -10690.215   -9496.4027   -426.54502     102002.7      46.7237      46.7237      46.7237 
  155000    130.69625   -10722.795   -9510.0304   -475.43314     102002.7      46.7237      46.7237      46.7237 
  156000    130.76782   -10672.701   -9459.2723   -692.83194     102002.7      46.7237      46.7237      46.7237 
  157000    130.41412   -10647.348   -9437.2009   -535.76044     102002.7      46.7237      46.7237      46.7237 
  158000    130.46199   -10670.384   -9459.7927   -396.57548     102002.7      46.7237      46.7237      46.7237 
  159000    129.65784   -10686.558   -9483.4291   -171.12326     102002.7      46.7237      46.7237      46.7237 
  160000    127.91506   -10668.102   -9481.1443   -320.06676     102002.7      46.7237      46.7237      46.7237 
  161000    133.03415   -10681.765   -9447.3059   -456.80607     102002.7      46.7237      46.7237      46.7237 
  162000    127.15168   -10679.029   -9499.1554   -349.50748     102002.7      46.7237      46.7237      46.7237 
  163000    129.48195   -10668.297   -9466.8004   -290.35247     102002.7      46.7237      46.7237      46.7237 
  164000    132.23783   -10686.996   -9459.9269   -376.54539     102002.7      46.7237      46.7237      46.7237 
  165000    130.62751   -10680.732   -9468.6054    -505.5234     102002.7      46.7237      46.7237      46.7237 
  166000    129.36869   -10704.883   -9504.4376   -375.20623     102002.7      46.7237      46.7237      46.7237 
  167000    129.78251   -10666.202   -9461.9164   -468.54602     102002.7      46.7237      46.7237      46.7237 
  168000    127.90961   -10700.965   -9514.0581   -230.13394     102002.7      46.7237      46.7237      46.7237 
  169000    130.24748   -10623.436   -9414.8356   -150.18462     102002.7      46.7237      46.7237      46.7237 
  170000     129.6858   -10668.868    -9465.479   -74.312789     102002.7      46.7237      46.7237      46.7237 
  171000    132.53215   -10691.834   -9462.0336   -458.11035     102002.7      46.7237      46.7237      46.7237 
  172000    127.92843    -10718.59   -9531.5091   -639.95808     102002.7      46.7237      46.7237      46.7237 
  173000    131.65205   -10692.162   -9470.5277   -202.65083     102002.7      46.7237      46.7237      46.7237 
  174000    129.31835   -10684.087   -9484.1079   -634.43081     102002.7      46.7237      46.7237      46.7237 
  175000    128.51764   -10702.452   -9509.9028   -257.35356     102002.7      46.7237      46.7237      46.7237 
  176000    130.80638   -10655.434   -9441.6472   -141.30043     102002.7      46.7237      46.7237      46.7237 
  177000    130.75825   -10678.459   -9465.1192   -107.16285     102002.7      46.7237      46.7237      46.7237 
  178000    130.63921   -10668.177   -9455.9412   -344.44886     102002.7      46.7237      46.7237      46.7237 
  179000    129.78863    -10681.59   -9477.2471   -133.11313     102002.7      46.7237      46.7237      46.7237 
  180000    127.84972   -10682.663    -9496.312   -331.52676     102002.7      46.7237      46.7237      46.7237 
  181000    132.80256   -10693.384   -9461.0743   -111.15531     102002.7      46.7237      46.7237      46.7237 
  182000    131.06139   -10686.447   -9470.2942   -69.004946     102002.7      46.7237      46.7237      46.7237 
  183000    130.92717    -10693.91   -9479.0027     27.68541     102002.7      46.7237      46.7237      46.7237 
  184000    131.05686   -10675.588   -9459.4773   -155.31941     102002.7      46.7237      46.7237      46.7237 
  185000    129.80338   -10701.353   -9496.8737    112.88354     102002.7      46.7237      46.7237      46.7237 
  186000    127.35185   -10686.574   -9504.8427    94.074715     102002.7      46.7237      46.7237      46.7237 
  187000    131.82858   -10693.609   -9470.3371   -201.00379     102002.7      46.7237      46.7237      46.7237 
  188000    131.17711   -10658.201   -9440.9743   -106.13475     102002.7      46.7237      46.7237      46.7237 
  189000    128.94413   -10669.928   -9473.4219   -565.13327     102002.7      46.7237      46.7237      46.7237 
  190000    129.57696   -10679.613   -9477.2345   -221.87673     102002.7      46.7237      46.7237      46.7237 
  191000     127.8413    -10669.78   -9483.5076   -364.98358     102002.7      46.7237      46.7237      46.7237 
  192000    130.47917   -10681.869   -9471.1191   -329.67791     102002.7      46.7237      46.7237      46.7237 
  193000    128.86732   -10676.385   -9480.5918   -298.20254     102002.7      46.7237      46.7237      46.7237 
  194000    132.26082   -10715.722    -9488.439   -227.12527     102002.7      46.7237      46.7237      46.7237 
  195000    130.08713   -10695.277   -9488.1646   -418.26912     102002.7      46.7237      46.7237      46.7237 
  196000    130.62444    -10670.94   -9458.8416   -433.95162     102002.7      46.7237      46.7237      46.7237 
  197000    126.47655    -10663.55   -9489.9415   -352.18504     102002.7      46.7237      46.7237      46.7237 
  198000    131.98857    -10699.12   -9474.3635   -470.86884     102002.7      46.7237      46.7237      46.7237 
  199000    130.20083    -10689.04   -9480.8729   -586.12911     102002.7      46.7237      46.7237      46.7237 
  200000    130.65366   -10683.766   -9471.3964   -401.96942     102002.7      46.7237      46.7237      46.7237 
  201000    133.25953   -10664.066   -9427.5162   -314.55141     102002.7      46.7237      46.7237      46.7237 
  202000    129.55569   -10698.241   -9496.0599   -738.37407     102002.7      46.7237      46.7237      46.7237 
  203000    129.90799   -10707.189   -9501.7388   -295.03492     102002.7      46.7237      46.7237      46.7237 
  204000    130.55414   -10670.253   -9458.8074   -204.36811     102002.7      46.7237      46.7237      46.7237 
  205000    127.28461   -10649.917     -9468.81   -224.65506     102002.7      46.7237      46.7237      46.7237 
  206000    128.11772   -10699.321   -9510.4833   -335.35618     102002.7      46.7237      46.7237      46.7237 
  207000    131.68101   -10689.854   -9467.9509    -162.7599     102002.7      46.7237      46.7237      46.7237 
  208000    130.26612   -10706.527   -9497.7536   -410.14638     102002.7      46.7237      46.7237      46.7237 
  209000    134.09546   -10704.389   -9460.0821   -364.22957     102002.7      46.7237      46.7237      46.7237 
  210000    127.40428   -10691.625   -9509.4078   -74.216436     102002.7      46.7237      46.7237      46.7237 
  211000    129.91892   -10674.021    -9468.469   -115.03834     102002.7      46.7237      46.7237      46.7237 
  212000    127.47879    -10666.06   -9483.1509   -288.60717     102002.7      46.7237      46.7237      46.7237 
  213000    128.20615   -10692.826   -9503.1675   -592.08517     102002.7      46.7237      46.7237      46.7237 
  214000    128.84344   -10678.161   -9482.5889    -416.5998     102002.7      46.7237      46.7237      46.7237 
  215000    128.13265   -10679.928   -9490.9519   -245.32249     102002.7      46.7237      46.7237      46.7237 
  216000    129.04113   -10656.148   -9458.7413   -394.04785     102002.7      46.7237      46.7237      46.7237 
  217000    130.11049   -10694.578   -9487.2485   -279.59565     102002.7      46.7237      46.7237      46.7237 
  218000    126.24771   -10666.525    -9495.039   -450.01274     102002.7      46.7237      46.7237      46.7237 
  219000    128.93959   -10697.441   -9500.9771   -608.45242     102002.7      46.7237      46.7237      46.7237 
  220000     129.3281    -10652.17   -9452.1012   -276.85754     102002.7      46.7237      46.7237      46.7237 
  221000    133.43321   -10678.709   -9440.5475   -54.470487     102002.7      46.7237      46.7237      46.7237 
  222000    126.50602   -10699.585   -9525.7021   -637.04673     102002.7      46.7237      46.7237      46.7237 
  223000    126.76402   -10668.802   -9492.5259    175.29393     102002.7      46.7237      46.7237      46.7237 
  224000    129.34012   -10673.839    -9473.658   -303.94572     102002.7      46.7237      46.7237      46.7237 
  225000    127.91257   -10670.492   -9483.5577   -226.71863     102002.7      46.7237      46.7237      46.7237 
  226000    135.19925   -10650.231   -9395.6813    38.409564     102002.7      46.7237      46.7237      46.7237 
  227000    129.47273   -10676.685   -9475.2738    -433.5714     102002.7      46.7237      46.7237      46.7237 
  228000    129.09093   -10689.064   -9491.1952   -286.62922     102002.7      46.7237      46.7237      46.7237 
  229000    127.96706   -10648.936    -9461.496   -9.2671686     102002.7      46.7237      46.7237      46.7237 
  230000    131.13296   -10677.471   -9460.6534   -134.26304     102002.7      46.7237      46.7237      46.7237 
  231000    124.28745    -10670.75   -9517.4543   -76.160394     102002.7      46.7237      46.7237      46.7237 
  232000    131.29011   -10662.195   -9443.9201   -176.24284     102002.7      46.7237      46.7237      46.7237 
  233000    129.69885    -10662.47   -9458.9603   -370.92784     102002.7      46.7237      46.7237      46.7237 
  234000    132.91442   -10662.624   -9429.2763    47.857918     102002.7      46.7237      46.7237      46.7237 
  235000    128.16658   -10662.106   -9472.8146   -312.91341     102002.7      46.7237      46.7237      46.7237 
  236000    132.48908   -10665.224   -9435.8234   -29.106153     102002.7      46.7237      46.7237      46.7237 
  237000      132.802   -10697.385   -9465.0807   -465.58137     102002.7      46.7237      46.7237      46.7237 
  238000    133.66816   -10703.738   -9463.3963   -307.57924     102002.7      46.7237      46.7237      46.7237 
  239000    131.01676   -10687.854    -9472.115   -617.62545     102002.7      46.7237      46.7237      46.7237 
  240000    124.96113   -10685.122   -9525.5754   -837.88349     102002.7      46.7237      46.7237      46.7237 
  241000    129.95921   -10667.837   -9461.9115   -259.18281     102002.7      46.7237      46.7237      46.7237 
  242000    132.58731   -10660.996    -9430.684   -60.688507     102002.7      46.7237      46.7237      46.7237 
  243000    130.82375    -10684.04    -9470.092    41.386316     102002.7      46.7237      46.7237      46.7237 
  244000    127.27208   -10689.418   -9508.4274   -27.114851     102002.7      46.7237      46.7237      46.7237 
  245000    130.24472   -10693.366   -9484.7913   -328.16808     102002.7      46.7237      46.7237      46.7237 
  246000    128.25442   -10661.328   -9471.2215   -216.07128     102002.7      46.7237      46.7237      46.7237 
  247000      126.206   -10693.543   -9522.4443    -141.3635     102002.7      46.7237      46.7237      46.7237 
  248000    130.77401   -10677.183   -9463.6965   -189.12314     102002.7      46.7237      46.7237      46.7237 
  249000    128.48648   -10667.666   -9475.4064   -340.73988     102002.7      46.7237      46.7237      46.7237 
  250000    129.07954   -10673.437   -9475.6737   -401.73219     102002.7      46.7237      46.7237      46.7237 
  251000    133.25377   -10684.162   -9447.6649   -416.72089     102002.7      46.7237      46.7237      46.7237 
  252000    131.85918     -10709.3   -9485.7442   -351.04701     102002.7      46.7237      46.7237      46.7237 
  253000    128.54785   -10651.831   -9459.0014   -221.15491     102002.7      46.7237      46.7237      46.7237 
  254000    127.85609   -10684.395   -9497.9854     -326.605     102002.7      46.7237      46.7237      46.7237 
  255000    130.10184   -10674.877   -9467.6281    47.581376     102002.7      46.7237      46.7237      46.7237 
  256000    132.99908   -10651.641   -9417.5074   -219.14626     102002.7      46.7237      46.7237      46.7237 
  257000    130.25821   -10682.096   -9473.3961   -204.47583     102002.7      46.7237      46.7237      46.7237 
  258000    133.56971   -10669.843   -9430.4144   -110.18679     102002.7      46.7237      46.7237      46.7237 
  259000    130.54046    -10689.94   -9478.6212    -362.7657     102002.7      46.7237      46.7237      46.7237 
  260000    133.56191   -10678.125   -9438.7692    -639.2469     102002.7      46.7237      46.7237      46.7237 
  261000    125.65914   -10672.705   -9506.6806   -338.07529     102002.7      46.7237      46.7237      46.7237 
  262000    132.87912   -10679.074   -9446.0543   -201.16171     102002.7      46.7237      46.7237      46.7237 
  263000    133.94452   -10706.558   -9463.6515   -295.45092     102002.7      46.7237      46.7237      46.7237 
  264000    127.75172    -10672.42   -9486.9787   -319.95094     102002.7      46.7237      46.7237      46.7237 
  265000    130.16736    -10658.91   -9451.0534   -368.91933     102002.7      46.7237      46.7237      46.7237 
  266000    131.24865   -10671.549   -9453.6585   -231.43521     102002.7      46.7237      46.7237      46.7237 
  267000    129.60805   -10694.157   -9491.4899   -245.70214     102002.7      46.7237      46.7237      46.7237 
  268000      129.855   -10667.024   -9462.0654   -342.28687     102002.7      46.7237      46.7237      46.7237 
  269000    122.16081   -10696.189   -9562.6269   -625.15688     102002.7      46.7237      46.7237      46.7237 
  270000    128.42577   -10662.305   -9470.6083   -232.06733     102002.7      46.7237      46.7237      46.7237 
  271000    130.39283   -10666.036    -9456.087    -24.34234     102002.7      46.7237      46.7237      46.7237 
  272000    135.22342   -10707.536    -9452.763    79.670835     102002.7      46.7237      46.7237      46.7237 
  273000    131.43659   -10704.674   -9485.0395   -267.06622     102002.7      46.7237      46.7237      46.7237 
  274000    128.56335   -10693.254   -9500.2814   -338.79125     102002.7      46.7237      46.7237      46.7237 
  275000    130.13429   -10679.364    -9471.814   -297.97048     102002.7      46.7237      46.7237      46.7237 
  276000    130.50167   -10662.434   -9451.4748   -418.48721     102002.7      46.7237      46.7237      46.7237 
  277000    129.25906   -10685.842   -9486.4137   -497.79094     102002.7      46.7237      46.7237      46.7237 
  278000    127.53912   -10677.921    -9494.452   -350.63969     102002.7      46.7237      46.7237      46.7237 
  279000    132.75978   -10657.934   -9426.0215   -449.97551     102002.7      46.7237      46.7237      46.7237 
  280000    133.33309   -10680.955   -9443.7222   -653.19685     102002.7      46.7237      46.7237      46.7237 
  281000    129.29497   -10684.889   -9485.1272   -397.93066     102002.7      46.7237      46.7237      46.7237 
  282000    129.14455    -10682.54   -9484.1743    39.220455     102002.7      46.7237      46.7237      46.7237 
  283000    127.90936   -10659.357   -9472.4522   -191.50757     102002.7      46.7237      46.7237      46.7237 
  284000     128.1917   -10678.174   -9488.6493   -544.73746     102002.7      46.7237      46.7237      46.7237 
  285000    129.20791   -10689.435   -9490.4808   -578.36948     102002.7      46.7237      46.7237      46.7237 
  286000    130.33865   -10626.774   -9417.3279   -300.33667     102002.7      46.7237      46.7237      46.7237 
  287000    131.05735    -10654.11   -9437.9949   -39.585932     102002.7      46.7237      46.7237      46.7237 
  288000    129.13765   -10697.416   -9499.1136   -211.57576     102002.7      46.7237      46.7237      46.7237 
  289000    132.51873   -10676.009   -9446.3332   -323.62392     102002.7      46.7237      46.7237      46.7237 
  290000    129.19196    -10683.14    -9484.334   -316.20833     102002.7      46.7237      46.7237      46.7237 
  291000    130.59527   -10722.881   -9511.0529   -333.98073     102002.7      46.7237      46.7237      46.7237 
  292000    129.41455   -10693.047   -9492.1758   -526.12217     102002.7      46.7237      46.7237      46.7237 
  293000    124.25494   -10719.364   -9566.3696   -328.88658     102002.7      46.7237      46.7237      46.7237 
  294000    131.48923   -10670.674   -9450.5515   -574.43269     102002.7      46.7237      46.7237      46.7237 
  295000    129.75798   -10685.481   -9481.4226   -284.94199     102002.7      46.7237      46.7237      46.7237 
  296000    130.34168   -10642.291   -9432.8167   -197.11967     102002.7      46.7237      46.7237      46.7237 
  297000    129.32983   -10685.567   -9485.4819   -456.59465     102002.7      46.7237      46.7237      46.7237 
  298000     131.5787   -10677.759   -9456.8058   -108.90985     102002.7      46.7237      46.7237      46.7237 
  299000    132.10744   -10662.838    -9436.979   -414.30644     102002.7      46.7237      46.7237      46.7237 
  300000    127.99352     -10684.7   -9497.0146   -637.59085     102002.7      46.7237      46.7237      46.7237 
  301000    128.36682   -10693.643   -9502.4933   -457.63612     102002.7      46.7237      46.7237      46.7237 
  302000    129.36912   -10681.564   -9481.1143   -258.76695     102002.7      46.7237      46.7237      46.7237 
  303000    132.09716   -10659.318   -9433.5537   -347.17528     102002.7      46.7237      46.7237      46.7237 
  304000    129.06655   -10679.163   -9481.5205    -514.2906     102002.7      46.7237      46.7237      46.7237 
  305000    127.49348   -10670.344   -9487.2987   -526.38524     102002.7      46.7237      46.7237      46.7237 
  306000    130.37659   -10643.044   -9433.2453   -338.90446     102002.7      46.7237      46.7237      46.7237 
  307000    132.49546   -10685.644   -9456.1835   -532.85517     102002.7      46.7237      46.7237      46.7237 
  308000    131.62799   -10701.576   -9480.1652   -619.08871     102002.7      46.7237      46.7237      46.7237 
  309000    131.63088   -10667.929   -9446.4911   -302.19797     102002.7      46.7237      46.7237      46.7237 
  310000    133.39176   -10682.196   -9444.4185   -432.61819     102002.7      46.7237      46.7237      46.7237 
  311000    128.15326   -10693.544    -9504.376   -54.434344     102002.7      46.7237      46.7237      46.7237 
  312000    127.82351   -10697.212    -9511.104    -651.9675     102002.7      46.7237      46.7237      46.7237 
  313000     129.7931   -10658.471   -9454.0871   -312.14976     102002.7      46.7237      46.7237      46.7237 
  314000    131.80992   -10639.625   -9416.5259   -26.166842     102002.7      46.7237      46.7237      46.7237 
  315000    130.99283   -10691.626   -9476.1089   -388.64066     102002.7      46.7237      46.7237      46.7237 
  316000     128.8318     -10688.1   -9492.6359   -311.18878     102002.7      46.7237      46.7237      46.7237 
  317000     129.1033   -10676.547   -9478.5637   -390.28933     102002.7      46.7237      46.7237      46.7237 
  318000    129.20359   -10682.839   -9483.9253   -411.59681     102002.7      46.7237      46.7237      46.7237 
  319000    129.13357   -10651.278   -9453.0135   -105.01131     102002.7      46.7237      46.7237      46.7237 
  320000    129.17962   -10694.709   -9496.0172   -257.57555     102002.7      46.7237      46.7237      46.7237 
  321000    128.60281   -10660.148   -9466.8089   -414.90696     102002.7      46.7237      46.7237      46.7237 
  322000    130.88997   -10668.608   -9454.0463   -232.08166     102002.7      46.7237      46.7237      46.7237 
  323000    132.86089   -10672.341   -9439.4904   -554.50252     102002.7      46.7237      46.7237      46.7237 
  324000    131.70277   -10678.656   -9456.5516   -569.28628     102002.7      46.7237      46.7237      46.7237 
  325000    128.91097   -10683.444   -9487.2449   -429.61934     102002.7      46.7237      46.7237      46.7237 
  326000     127.9864   -10650.704   -9463.0851   -366.61003     102002.7      46.7237      46.7237      46.7237 
  327000    125.88111   -10699.225   -9531.1411   -547.25388     102002.7      46.7237      46.7237      46.7237 
  328000     135.5495   -10654.855   -9397.0559   -399.05975     102002.7      46.7237      46.7237      46.7237 
  329000    129.16797   -10691.241   -9492.6577    -604.5563     102002.7      46.7237      46.7237      46.7237 
  330000    129.21983   -10702.954   -9503.8896   -267.20418     102002.7      46.7237      46.7237      46.7237 
  331000    129.07813   -10659.926   -9462.1765   -127.39927     102002.7      46.7237      46.7237      46.7237 
  332000    129.25281   -10711.035   -9511.6648     -221.175     102002.7      46.7237      46.7237      46.7237 
  333000    133.22518   -10682.375   -9446.1437   -489.28861     102002.7      46.7237      46.7237      46.7237 
  334000    128.80231   -10683.701   -9488.5111   -320.05514     102002.7      46.7237      46.7237      46.7237 
  335000    127.09804   -10677.056   -9497.6802   -334.04748     102002.7      46.7237      46.7237      46.7237 
  336000    134.21486   -10676.632   -9431.2177   -272.35773     102002.7      46.7237      46.7237      46.7237 
  337000    130.66587   -10663.684   -9451.2013   -403.20368     102002.7      46.7237      46.7237      46.7237 
  338000    126.28202   -10698.971   -9527.1668   -292.47669     102002.7      46.7237      46.7237      46.7237 
  339000    128.02982   -10692.485   -9504.4626   -452.43317     102002.7      46.7237      46.7237      46.7237 
  340000    130.75127   -10666.484   -9453.2084    -230.2436     102002.7      46.7237      46.7237      46.7237 
  341000    131.56636   -10650.943   -9430.1044   -476.63339     102002.7      46.7237      46.7237      46.7237 
  342000    128.66244   -10677.817    -9483.925   -333.30887     102002.7      46.7237      46.7237      46.7237 
  343000    129.38481   -10663.646   -9463.0507   -479.03966     102002.7      46.7237      46.7237      46.7237 
  344000    129.52119   -10680.137   -9478.2758   -476.14619     102002.7      46.7237      46.7237      46.7237 
  345000    127.89932   -10649.058   -9462.2469   -451.55905     102002.7      46.7237      46.7237      46.7237 
  346000    128.91663   -10663.951   -9467.7003   -443.78917     102002.7      46.7237      46.7237      46.7237 
  347000      131.514   -10684.665   -9464.3118   -535.17559     102002.7      46.7237      46.7237      46.7237 
  348000    127.44701   -10628.487   -9445.8726   -262.48942     102002.7      46.7237      46.7237      46.7237 
  349000    128.03386   -10699.177   -9511.1171   -375.87893     102002.7      46.7237      46.7237      46.7237 
  350000     129.4554   -10694.396   -9493.1451    -477.1733     102002.7      46.7237      46.7237      46.7237 
  351000    130.37532   -10690.568   -9480.7815   -368.00496     102002.7      46.7237      46.7237      46.7237 
  352000    127.70729   -10701.687   -9516.6574   -459.30929     102002.7      46.7237      46.7237      46.7237 
  353000    132.19149   -10662.803   -9436.1632   -342.49122     102002.7      46.7237      46.7237      46.7237 
  354000    125.90654    -10667.52   -9499.2002   -266.99673     102002.7      46.7237      46.7237      46.7237 
  355000    129.27249   -10672.622   -9473.0688   -352.49653     102002.7      46.7237      46.7237      46.7237 
  356000    129.49585   -10671.362   -9469.7366    4.4486802     102002.7      46.7237      46.7237      46.7237 
  357000    128.32469   -10682.478   -9491.7199   -684.36286     102002.7      46.7237      46.7237      46.7237 
  358000    133.69789    -10687.42   -9446.8026   -316.32418     102002.7      46.7237      46.7237      46.7237 
  359000    129.46711   -10689.122   -9487.7626   -170.86301     102002.7      46.7237      46.7237      46.7237 
  360000     130.5923   -10683.843   -9472.0425   -350.92377     102002.7      46.7237      46.7237      46.7237 
  361000    126.49062   -10683.512   -9509.7724    51.479685     102002.7      46.7237      46.7237      46.7237 
  362000    129.05072   -10675.562   -9478.0666   -355.51744     102002.7      46.7237      46.7237      46.7237 
  363000    131.30583   -10686.509   -9468.0877   -265.00981     102002.7      46.7237      46.7237      46.7237 
  364000    131.58202   -10679.239   -9458.2548   -448.76554     102002.7      46.7237      46.7237      46.7237 
  365000    132.25614   -10661.368   -9434.1286   -314.01753     102002.7      46.7237      46.7237      46.7237 
  366000    128.09788    -10666.72   -9478.0667   -307.11062     102002.7      46.7237      46.7237      46.7237 
  367000    130.33841   -10685.537   -9476.0927   -801.23036     102002.7      46.7237      46.7237      46.7237 
  368000    125.84214   -10651.048   -9483.3263   -415.20983     102002.7      46.7237      46.7237      46.7237 
  369000    133.14981   -10685.217   -9449.6849   -135.80046     102002.7      46.7237      46.7237      46.7237 
  370000    131.03807   -10684.838   -9468.9014   -186.45161     102002.7      46.7237      46.7237      46.7237 
  371000    128.57455   -10678.371   -9485.2943   -307.25971     102002.7      46.7237      46.7237      46.7237 
  372000    130.54834   -10667.803   -9456.4109   -542.86049     102002.7      46.7237      46.7237      46.7237 
  373000    125.92104   -10677.724   -9509.2694    -347.9637     102002.7      46.7237      46.7237      46.7237 
  374000    130.87385   -10696.357   -9481.9442   -1120.1496     102002.7      46.7237      46.7237      46.7237 
  375000    130.09469   -10644.404   -9437.2211   -199.20306     102002.7      46.7237      46.7237      46.7237 
  376000    128.15641   -10685.363   -9496.1658       -546.5     102002.7      46.7237      46.7237      46.7237 
  377000    129.02349   -10700.292   -9503.0489   -698.67619     102002.7      46.7237      46.7237      46.7237 
  378000    131.59717    -10693.67    -9472.545   -307.21583     102002.7      46.7237      46.7237      46.7237 
  379000    131.16409   -10660.758   -9443.6522   -589.04941     102002.7      46.7237      46.7237      46.7237 
  380000    128.95665   -10662.987   -9466.3648   -203.27047     102002.7      46.7237      46.7237      46.7237 
  381000    126.63539   -10671.385   -9496.3019   -318.73077     102002.7      46.7237      46.7237      46.7237 
  382000    129.67945   -10670.059   -9466.7295   -505.62065     102002.7      46.7237      46.7237      46.7237 
  383000     129.9588   -10698.193   -9492.2713   -658.28366     102002.7      46.7237      46.7237      46.7237 
  384000    127.14539   -10660.027    -9480.212   -251.90078     102002.7      46.7237      46.7237      46.7237 
  385000    133.62215   -10678.869   -9438.9546   -383.19321     102002.7      46.7237      46.7237      46.7237 
  386000    129.90704   -10690.328   -9484.8864   -370.76837     102002.7      46.7237      46.7237      46.7237 
  387000    131.28513   -10672.518    -9454.289    -327.3653     102002.7      46.7237      46.7237      46.7237 
  388000    132.76549   -10661.836   -9429.8707   -295.88498     102002.7      46.7237      46.7237      46.7237 
  389000    131.76757   -10674.342   -9451.6363   -353.74931     102002.7      46.7237      46.7237      46.7237 
  390000    131.55059   -10669.024   -9448.3313   -61.350611     102002.7      46.7237      46.7237      46.7237 
  391000    128.26915   -10701.669   -9511.4256   -280.24838     102002.7      46.7237      46.7237      46.7237 
  392000     130.4242   -10679.259   -9469.0183   -255.35646     102002.7      46.7237      46.7237      46.7237 
  393000    129.53985   -10674.793   -9472.7584   -478.51184     102002.7      46.7237      46.7237      46.7237 
  394000    130.48163   -10692.752   -9481.9793   -539.62159     102002.7      46.7237      46.7237      46.7237 
  395000    128.38049   -10663.468   -9472.1919   -164.40075     102002.7      46.7237      46.7237      46.7237 
  396000    129.71123   -10659.123   -9455.4991    -489.6835     102002.7      46.7237      46.7237      46.7237 
  397000    131.70391   -10656.308   -9434.1933    -383.8886     102002.7      46.7237      46.7237      46.7237 
  398000    131.97507   -10655.077   -9430.4456   -420.89732     102002.7      46.7237      46.7237      46.7237 
  399000    126.24265   -10645.025   -9473.5867   -360.07555     102002.7      46.7237      46.7237      46.7237 
  400000    132.06497   -10697.892   -9472.4263   -216.24814     102002.7      46.7237      46.7237      46.7237 
  401000    131.81126   -10664.706    -9441.595     -197.067     102002.7      46.7237      46.7237      46.7237 
  402000    128.30086   -10673.198   -9482.6611   -142.83964     102002.7      46.7237      46.7237      46.7237 
  403000    128.48835   -10655.542   -9463.2648   -6.6835051     102002.7      46.7237      46.7237      46.7237 
  404000    128.71353   -10704.559   -9510.1921   -234.85504     102002.7      46.7237      46.7237      46.7237 
  405000    131.85994   -10681.691   -9458.1277   -123.31512     102002.7      46.7237      46.7237      46.7237 
  406000    127.17977   -10678.338   -9498.2038   -407.50201     102002.7      46.7237      46.7237      46.7237 
  407000    127.99975   -10698.567   -9510.8242   -571.55733     102002.7      46.7237      46.7237      46.7237 
  408000    125.48273   -10706.879   -9542.4916   -425.93708     102002.7      46.7237      46.7237      46.7237 
  409000    131.95937    -10677.34   -9452.8545   -261.39293     102002.7      46.7237      46.7237      46.7237 
  410000    129.37584   -10653.287   -9452.7749   -69.729066     102002.7      46.7237      46.7237      46.7237 
  411000    131.61356   -10677.088   -9455.8117   -437.77357     102002.7      46.7237      46.7237      46.7237 
  412000    128.98817   -10700.415   -9503.5004    -443.9345     102002.7      46.7237      46.7237      46.7237 
  413000     130.2394   -10673.756   -9465.2305   -192.64163     102002.7      46.7237      46.7237      46.7237 
  414000    128.34901   -10716.041   -9525.0568   -447.55211     102002.7      46.7237      46.7237      46.7237 
  415000    133.94123   -10712.492   -9469.6161   -534.46469     102002.7      46.7237      46.7237      46.7237 
  416000    129.06418   -10701.401   -9503.7805   -464.98751     102002.7      46.7237      46.7237      46.7237 
  417000    130.55413   -10703.225   -9491.7789   -549.42835     102002.7      46.7237      46.7237      46.7237 
  418000    129.85148   -10685.738   -9480.8117   -518.47675     102002.7      46.7237      46.7237      46.7237 
  419000    131.89518   -10679.989   -9456.0995   -601.44442     102002.7      46.7237      46.7237      46.7237 
  420000    131.23091   -10666.378   -9448.6522   -392.56351     102002.7      46.7237      46.7237      46.7237 
  421000    127.13861   -10674.488   -9494.7355   -512.88473     102002.7      46.7237      46.7237      46.7237 
  422000    133.93482   -10696.257   -9453.4408    -490.3702     102002.7      46.7237      46.7237      46.7237 
  423000    130.77716   -10724.268   -9510.7522   -568.09275     102002.7      46.7237      46.7237      46.7237 
  424000    129.47384   -10679.254   -9477.8325   -277.29661     102002.7      46.7237      46.7237      46.7237 
  425000    129.24095   -10704.361   -9505.1008    62.751741     102002.7      46.7237      46.7237      46.7237 
  426000    134.09465   -10684.921   -9440.6215   -210.87082     102002.7      46.7237      46.7237      46.7237 
  427000    132.32971   -10697.623   -9469.7005   -214.25044     102002.7      46.7237      46.7237      46.7237 
  428000     124.5023   -10674.565   -9519.2751   -6.2510705     102002.7      46.7237      46.7237      46.7237 
  429000    129.20665   -10690.891   -9491.9485   -407.72551     102002.7      46.7237      46.7237      46.7237 
  430000    127.76881   -10688.436   -9502.8354   -269.20973     102002.7      46.7237      46.7237      46.7237 
  431000    132.47475   -10673.342   -9444.0738   -300.84098     102002.7      46.7237      46.7237      46.7237 
  432000    131.24523   -10652.655   -9434.7959   -256.37021     102002.7      46.7237      46.7237      46.7237 
  433000    132.14488   -10706.058   -9479.8509    -322.6587     102002.7      46.7237      46.7237      46.7237 
  434000    128.98153   -10647.752   -9450.8982   -434.53169     102002.7      46.7237      46.7237      46.7237 
  435000    129.44849   -10698.554   -9497.3672   -107.23517     102002.7      46.7237      46.7237      46.7237 
  436000    131.58164   -10668.701   -9447.7205   -147.51456     102002.7      46.7237      46.7237      46.7237 
  437000    125.84112   -10688.771   -9521.0582   -379.58277     102002.7      46.7237      46.7237      46.7237 
  438000    130.41549   -10668.976   -9458.8169   -385.95454     102002.7      46.7237      46.7237      46.7237 
  439000    129.94946   -10692.997    -9487.162   -447.40771     102002.7      46.7237      46.7237      46.7237 
  440000    128.26474   -10670.849   -9480.6474   -489.63062     102002.7      46.7237      46.7237      46.7237 
  441000    131.86502    -10678.41   -9454.8003   -180.54346     102002.7      46.7237      46.7237      46.7237 
  442000    130.37464   -10693.128   -9483.3477   -557.60315     102002.7      46.7237      46.7237      46.7237 
  443000    128.76418   -10682.858   -9488.0219   -511.15582     102002.7      46.7237      46.7237      46.7237 
  444000    129.28003   -10690.016   -9490.3932    -393.4454     102002.7      46.7237      46.7237      46.7237 
  445000    131.65515   -10690.282   -9468.6193   -430.68333     102002.7      46.7237      46.7237      46.7237 
  446000    132.15876   -10673.196   -9446.8602   -785.12723     102002.7      46.7237      46.7237      46.7237 
  447000    129.57425    -10665.16   -9462.8064   -640.98946     102002.7      46.7237      46.7237      46.7237 
  448000    129.65705   -10684.247   -9481.1251   -73.396381     102002.7      46.7237      46.7237      46.7237 
  449000    132.58136   -10694.093   -9463.8362   -432.03305     102002.7      46.7237      46.7237      46.7237 
  450000    128.98915   -10691.271   -9494.3469   -341.11954     102002.7      46.7237      46.7237      46.7237 
  451000    128.88717   -10640.507   -9444.5292   -245.27995     102002.7      46.7237      46.7237      46.7237 
  452000     132.2222   -10665.181   -9438.2568   -225.42336     102002.7      46.7237      46.7237      46.7237 
  453000    129.11966   -10685.467   -9487.3318   -781.25862     102002.7      46.7237      46.7237      46.7237 
  454000    129.20755   -10699.643   -9500.6927   -102.08695     102002.7      46.7237      46.7237      46.7237 
  455000    132.93418   -10685.911   -9452.3803    332.03708     102002.7      46.7237      46.7237      46.7237 
  456000    133.16527    -10674.83   -9439.1549   -439.33675     102002.7      46.7237      46.7237      46.7237 
  457000    133.38584   -10647.726    -9410.004   -210.94227     102002.7      46.7237      46.7237      46.7237 
  458000    132.63961   -10669.342   -9438.5439   -387.20431     102002.7      46.7237      46.7237      46.7237 
  459000    132.52335   -10689.632   -9459.9135   -551.51766     102002.7      46.7237      46.7237      46.7237 
  460000    131.01665    -10638.75   -9423.0125   -296.24267     102002.7      46.7237      46.7237      46.7237 
  461000    129.09499   -10665.098   -9467.1915   -279.72195     102002.7      46.7237      46.7237      46.7237 
  462000    131.09088   -10676.397   -9459.9703   -466.62234     102002.7      46.7237      46.7237      46.7237 
  463000    131.62504   -10666.024   -9444.6411   -531.18467     102002.7      46.7237      46.7237      46.7237 
  464000    129.72242   -10681.624   -9477.8956   -322.78959     102002.7      46.7237      46.7237      46.7237 
  465000    130.34183   -10697.657   -9488.1809   -530.22895     102002.7      46.7237      46.7237      46.7237 
  466000    127.87181   -10665.253   -9478.6972   -478.46619     102002.7      46.7237      46.7237      46.7237 
  467000      130.373   -10688.319    -9478.554   -535.54769     102002.7      46.7237      46.7237      46.7237 
  468000    131.44799    -10665.26   -9445.5192   -260.03879     102002.7      46.7237      46.7237      46.7237 
  469000    133.36524   -10657.434   -9419.9027   -305.56121     102002.7      46.7237      46.7237      46.7237 
  470000    131.25069   -10681.981   -9464.0713   -372.14876     102002.7      46.7237      46.7237      46.7237 
  471000    133.69016   -10668.215   -9427.6688   -694.16212     102002.7      46.7237      46.7237      46.7237 
  472000    128.83778   -10688.832   -9493.3125   -590.34316     102002.7      46.7237      46.7237      46.7237 
  473000     127.8454   -10668.392   -9482.0809   -486.59419     102002.7      46.7237      46.7237      46.7237 
  474000    127.29228   -10671.795   -9490.6168   -275.97364     102002.7      46.7237      46.7237      46.7237 
  475000    127.25686   -10699.737   -9518.8878   -360.56608     102002.7      46.7237      46.7237      46.7237 
  476000    133.51298   -10670.715   -9431.8136   -653.87305     102002.7      46.7237      46.7237      46.7237 
  477000    131.33061   -10650.179   -9431.5279   -261.49253     102002.7      46.7237      46.7237      46.7237 
  478000    131.04125   -10661.089    -9445.123   -285.60881     102002.7      46.7237      46.7237      46.7237 
  479000    127.64295   -10661.948   -9477.5155   -189.81251     102002.7      46.7237      46.7237      46.7237 
  480000    126.11514   -10691.602   -9521.3462   -372.27638     102002.7      46.7237      46.7237      46.7237 
  481000    130.32575    -10671.59   -9462.2632    -224.2909     102002.7      46.7237      46.7237      46.7237 
  482000    132.89556   -10687.909    -9454.736   -431.77349     102002.7      46.7237      46.7237      46.7237 
  483000    129.92146   -10699.498   -9493.9224   -532.21156     102002.7      46.7237      46.7237      46.7237 
  484000    132.58564   -10662.798   -9432.5014   -341.11398     102002.7      46.7237      46.7237      46.7237 
  485000    130.40267   -10681.379   -9471.3383   -400.26469     102002.7      46.7237      46.7237      46.7237 
  486000    128.67867   -10684.941    -9490.898   -389.83577     102002.7      46.7237      46.7237      46.7237 
  487000     128.9759   -10689.485   -9492.6841   -259.20591     102002.7      46.7237      46.7237      46.7237 
  488000    128.99322   -10664.877   -9467.9156   -584.77589     102002.7      46.7237      46.7237      46.7237 
  489000    128.25283   -10659.213   -9469.1214   -569.95324     102002.7      46.7237      46.7237      46.7237 
  490000    129.09972   -10695.043   -9497.0929   -363.39603     102002.7      46.7237      46.7237      46.7237 
  491000    130.81073   -10680.816   -9466.9895   -445.68148     102002.7      46.7237      46.7237      46.7237 
  492000    129.77684   -10690.256   -9486.0223   -621.66627     102002.7      46.7237      46.7237      46.7237 
  493000    131.46435   -10655.575    -9435.683   -550.72284     102002.7      46.7237      46.7237      46.7237 
  494000    126.68814   -10659.741   -9484.1689   -800.40247     102002.7      46.7237      46.7237      46.7237 
  495000    127.39618   -10674.113   -9491.9709   -418.49789     102002.7      46.7237      46.7237      46.7237 
  496000    132.84012   -10665.713   -9433.0546   -137.15613     102002.7      46.7237      46.7237      46.7237 
  497000     128.1077   -10657.429   -9468.6839   -228.37721     102002.7      46.7237      46.7237      46.7237 
  498000    127.48013   -10725.628   -9542.7064    -217.1128     102002.7      46.7237      46.7237      46.7237 
  499000    132.12673   -10660.407   -9434.3683   -686.19653     102002.7      46.7237      46.7237      46.7237 
  500000    131.75565   -10666.246   -9443.6513   -643.10652     102002.7      46.7237      46.7237      46.7237 
  500500    130.42344   -10682.041   -9471.8075   -383.65091     102002.7      46.7237      46.7237      46.7237 
Loop time of 1962.99 on 16 procs for 500000 steps with 3114 atoms

Performance: 22.007 ns/day, 1.091 hours/ns, 254.713 timesteps/s
99.8% CPU use with 16 MPI tasks x no OpenMP threads

MPI task timing breakdown:
Section |  min time  |  avg time  |  max time  |%varavg| %total
---------------------------------------------------------------
Pair    | 782.18     | 1125.6     | 1456.8     | 777.9 | 57.34
Bond    | 130.31     | 174.69     | 214.86     | 278.7 |  8.90
Neigh   | 17.99      | 18.045     | 18.118     |   0.9 |  0.92
Comm    | 263.65     | 627.73     | 1007.1     |1181.7 | 31.98
Output  | 0.020972   | 0.021903   | 0.025181   |   0.6 |  0.00
Modify  | 9.1341     | 10.246     | 11.291     |  21.2 |  0.52
Other   |            | 6.657      |            |       |  0.34

Nlocal:    194.625 ave 221 max 166 min
Histogram: 2 0 2 2 4 0 1 1 1 3
Nghost:    3927.31 ave 3966 max 3896 min
Histogram: 1 1 1 4 3 1 3 1 0 1
Neighs:    11455.5 ave 18303 max 5594 min
Histogram: 2 2 3 1 0 1 2 4 0 1

Total # of neighbors = 183288
Ave neighs/atom = 58.8593
Ave special neighs/atom = 3.69942
Neighbor list builds = 5167
Dangerous builds = 0
Neighbor list info ...
  update every 1 steps, delay 10 steps, check yes
  max neighbors/atom: 2000, page size: 100000
  master list distance cutoff = 16
  ghost atom cutoff = 16
  binsize = 8, bins = 6 6 6
  3 neighbor lists, perpetual/occasional/extra = 3 0 0
  (1) pair buck6d/coul/gauss/dsf, perpetual, skip from (3)
      attributes: half, newton on
      pair build: skip
      stencil: none
      bin: none
  (2) pair lj/cut, perpetual, skip from (3)
      attributes: half, newton on
      pair build: skip
      stencil: none
      bin: none
  (3) neighbor class addition, perpetual
      attributes: half, newton on
      pair build: half/bin/newton
      stencil: half/bin/3d/newton
      bin: standard
Setting up Verlet run ...
  Unit style    : real
  Current step  : 500500
  Time step     : 1
WARNING: Inconsistent image flags (../domain.cpp:786)
Per MPI rank memory allocation (min/avg/max) = 22.78 | 23.27 | 23.43 Mbytes
Step Time TotEng KinEng PotEng E_mol E_pair Temp Pxx Pyy Pzz Pxy Pxz Pyz Cella Cellb Cellc CellAlpha CellBeta CellGamma Volume Press 
  500500       500000   -9471.8075    1210.2332   -10682.041    4394.3201   -15076.361    130.42344   -482.21511   -289.35262   -379.38502     464.5677   -53.997144   -185.11423      46.7237      46.7237      46.7237           90           90           90     102002.7   -383.65091 
  501000       500500    -9500.917    1176.7443   -10677.661    4404.9944   -15082.656    126.81443   -679.01106   -827.85252   -637.95922   -101.91834   -41.039931   -81.577844      46.7237      46.7237      46.7237           90           90           90     102002.7   -714.94093 
  502000       501500   -9506.5997    1195.3217   -10701.921    4371.9792   -15073.901    128.81647   -829.03812     -829.236   -1051.5597   -75.073367   -34.538936     58.53665      46.7237      46.7237      46.7237           90           90           90     102002.7   -903.27794 
  503000       502500   -9477.9368    1201.6825   -10679.619    4399.2932   -15078.913    129.50196   -568.02464   -587.34595   -176.20723   -94.691877    22.657608    213.86834      46.7237      46.7237      46.7237           90           90           90     102002.7   -443.85927 
  504000       503500   -9467.0084    1232.0282   -10699.037    4377.0847   -15076.121    132.77223   -376.97951   -465.89313    251.73671    156.86268    17.955635   -71.182472      46.7237      46.7237      46.7237           90           90           90     102002.7   -197.04531 
  505000       504500   -9466.6516    1221.8421   -10688.494     4375.089   -15063.583     131.6745   -24.245487   -401.62359   -355.64669   -144.96284    -93.39875    146.18739      46.7237      46.7237      46.7237           90           90           90     102002.7   -260.50526 
  506000       505500   -9456.8567    1207.5241   -10664.381    4391.6415   -15056.022    130.13149    -165.8766    -217.6072   -455.44823   -206.01733    13.704701   -36.190868      46.7237      46.7237      46.7237           90           90           90     102002.7   -279.64401 
  507000       506500   -9433.3629    1219.4258   -10652.789    4398.6442   -15051.433    131.41409   -109.01126   -94.353006   -543.79913   -74.719875   -288.12361    37.213926      46.7237      46.7237      46.7237           90           90           90     102002.7   -249.05447 
  508000       507500   -9436.1324     1239.798    -10675.93    4388.8069   -15064.737    133.60955   -372.70524   -78.533971   -512.37651    17.410036    177.73332     128.9848      46.7237      46.7237      46.7237           90           90           90     102002.7   -321.20524 
  509000       508500   -9499.9364    1192.7646   -10692.701    4348.7528   -15041.454     128.5409    -403.0607   -195.34795    252.59684   -59.654417   -4.9706751   -118.41195      46.7237      46.7237      46.7237           90           90           90     102002.7    -115.2706 
  510000       509500   -9505.9944     1180.764   -10686.758    4358.6045   -15045.363    127.24762   -328.50671   -486.95559    -110.7404   -6.2865493   -244.43006    114.68706      46.7237      46.7237      46.7237           90           90           90     102002.7   -308.73423 
  511000       510500   -9480.2163    1213.4297   -10693.646    4378.3897   -15072.036    130.76791   -380.74595    -322.2255   -8.6015238   -112.77667   -86.390057    135.37394      46.7237      46.7237      46.7237           90           90           90     102002.7   -237.19099 
  512000       511500    -9480.552    1203.9456   -10684.498    4384.4359   -15068.933    129.74584    -261.0905   -460.63107   -269.85974   -13.033838   -253.93536    195.78923      46.7237      46.7237      46.7237           90           90           90     102002.7    -330.5271 
  513000       512500   -9451.4478    1216.3798   -10667.828    4408.8651   -15076.693    131.08584   -427.48264   -131.13964   -175.68371   -70.237508    272.06073   -299.42988      46.7237      46.7237      46.7237           90           90           90     102002.7   -244.76866 
  514000       513500   -9427.7167    1236.4048   -10664.121    4390.3121   -15054.434    133.24388    197.98454    -455.8571   -116.65476   -210.49611   -173.49733    50.525389      46.7237      46.7237      46.7237           90           90           90     102002.7   -124.84244 
  515000       514500   -9499.9232    1209.3974   -10709.321    4369.7483   -15079.069    130.33336    73.975243   -586.54146    305.23491   -191.32761   -15.529572    340.48416      46.7237      46.7237      46.7237           90           90           90     102002.7   -69.110436 
  516000       515500   -9479.2342    1193.0491   -10672.283    4398.6427   -15070.926    128.57155    -606.9218   -358.12554   -274.70323     146.4463    129.09039    6.6879733      46.7237      46.7237      46.7237           90           90           90     102002.7   -413.25019 
  517000       516500   -9434.9791    1216.0996   -10651.079    4416.1838   -15067.262    131.05564   -456.88545   -241.44605   -590.06472    114.92909    127.75552    93.161396      46.7237      46.7237      46.7237           90           90           90     102002.7   -429.46541 
  518000       517500   -9500.9829    1196.3156   -10697.298     4377.352    -15074.65    128.92357    23.117967    -311.7055    34.870286   -188.22679    239.64139    105.70329      46.7237      46.7237      46.7237           90           90           90     102002.7   -84.572416 
  519000       518500   -9506.4622    1197.4308   -10703.893    4347.9754   -15051.868    129.04376    6.5715504   -762.49623    -538.3178     61.64236   -104.36135   -63.769611      46.7237      46.7237      46.7237           90           90           90     102002.7   -431.41416 
  520000       519500   -9455.7468    1216.6482   -10672.395    4390.5465   -15062.941    131.11476   -74.310396   -304.35824   -2.7442318   -37.954615    -133.6606    55.429657      46.7237      46.7237      46.7237           90           90           90     102002.7   -127.13762 
  521000       520500   -9454.9105    1214.1016   -10669.012    4388.1121   -15057.124    130.84032   -409.00462   -54.106164    259.98599     213.4363   -17.273863    126.20814      46.7237      46.7237      46.7237           90           90           90     102002.7   -67.708266 
  522000       521500   -9516.7824    1209.6518   -10726.434    4366.0309   -15092.465    130.36078   -594.45475   -649.79452   -459.60254   -186.52975   -58.228168   -46.460232      46.7237      46.7237      46.7237           90           90           90     102002.7    -567.9506 
  523000       522500    -9461.886    1205.2669   -10667.153    4388.0466   -15055.199    129.88823   -80.188769   -299.53708   -123.08063    11.278947     66.12094    226.09472      46.7237      46.7237      46.7237           90           90           90     102002.7   -167.60216 
  524000       523500   -9515.4875    1178.9074   -10694.395    4376.4214   -15070.816    127.04754   -102.58777   -857.94392   -688.17385    -16.16746   -62.682141    -17.48729      46.7237      46.7237      46.7237           90           90           90     102002.7   -549.56851 
  525000       524500   -9423.3471    1236.5908   -10659.938    4390.4828   -15050.421    133.26392    -329.6137   -313.79426   -687.52074    63.340116    53.113431    161.66806      46.7237      46.7237      46.7237           90           90           90     102002.7    -443.6429 
  526000       525500   -9481.3678    1211.7158   -10693.084    4354.8822   -15047.966    130.58321   -542.32169   -450.58073    300.83137    58.472098    4.0191711    196.77075      46.7237      46.7237      46.7237           90           90           90     102002.7   -230.69035 
  527000       526500   -9469.0974    1186.4258   -10655.523    4387.0148   -15042.538    127.85778   -526.34434    -940.3875   -914.93694     13.10968   -162.07943    79.704352      46.7237      46.7237      46.7237           90           90           90     102002.7   -793.88959 
  528000       527500   -9444.7377    1207.8408   -10652.578    4417.9643   -15070.543    130.16561   -427.50302   -280.59001    200.96788    28.899759    189.88282   -120.23115      46.7237      46.7237      46.7237           90           90           90     102002.7   -169.04172 
  529000       528500   -9442.7633    1227.7122   -10670.475    4361.3579   -15031.833     132.3071   -50.906667   -72.308333   -23.780734    80.015822   -36.857702    -3.623058      46.7237      46.7237      46.7237           90           90           90     102002.7   -48.998578 
  530000       529500   -9492.4497     1188.996   -10681.446    4395.8572   -15077.303    128.13477   -55.727539   -864.91868   -1153.5802   -150.38408   -17.888841    223.32188      46.7237      46.7237      46.7237           90           90           90     102002.7   -691.40882 
  531000       530500   -9513.8661    1188.9421   -10702.808    4373.9665   -15076.775    128.12896     -21.5357   -39.221829   -266.92109    5.7512223    6.8098038   -331.90204      46.7237      46.7237      46.7237           90           90           90     102002.7   -109.22621 
  532000       531500   -9501.9943    1184.4942   -10686.489    4348.5404   -15035.029    127.64962   -387.09681   -690.29393   -580.02841    145.62108   -93.119228    80.874954      46.7237      46.7237      46.7237           90           90           90     102002.7   -552.47305 
  533000       532500   -9467.9115    1198.1146   -10666.026    4398.0136    -15064.04    129.11745   -505.73216   -266.14748   -178.35261    60.409262   -117.06205   -207.17121      46.7237      46.7237      46.7237           90           90           90     102002.7   -316.74408 
  534000       533500   -9461.3169      1173.61   -10634.927    4412.7803   -15047.707    126.47666   -360.20509   -268.23936   -572.60709   -218.72016    137.99707    190.83664      46.7237      46.7237      46.7237           90           90           90     102002.7   -400.35051 
  535000       534500   -9480.7573    1194.2247   -10674.982    4380.1092   -15055.091    128.69825   -648.55371   -49.052525   -36.802108    24.042361   -45.027464    172.16028      46.7237      46.7237      46.7237           90           90           90     102002.7   -244.80278 
  536000       535500   -9467.2513    1205.7673   -10673.019    4369.3982   -15042.417    129.94216    -404.7472   -531.84089    13.647411   -29.439546   -33.858792    227.14612      46.7237      46.7237      46.7237           90           90           90     102002.7   -307.64689 
  537000       536500   -9464.6549     1203.881   -10668.536    4367.0559   -15035.592    129.73888   -274.34347   -54.393165   -504.04389    138.77901    20.935026    163.85431      46.7237      46.7237      46.7237           90           90           90     102002.7   -277.59351 
  538000       537500   -9479.5986    1217.6416    -10697.24    4398.0523   -15095.293    131.22182   -416.81831   -925.68963   -316.15294    15.184664    70.672518    17.990271      46.7237      46.7237      46.7237           90           90           90     102002.7   -552.88696 
  539000       538500   -9504.3716     1202.621   -10706.993    4372.7572    -15079.75    129.60309   -205.24923   -442.66281   -837.13404    12.551198   -201.81141   -76.928942      46.7237      46.7237      46.7237           90           90           90     102002.7   -495.01536 
  540000       539500   -9474.0409    1203.8411   -10677.882     4379.682   -15057.564    129.73458    -413.9659     186.5065   -627.24469    69.318791     181.6878   -101.33237      46.7237      46.7237      46.7237           90           90           90     102002.7   -284.90136 
  541000       540500   -9449.4177    1208.0392   -10657.457    4395.8548   -15053.312      130.187   -511.16434      -505.37   -469.87208    136.62106     151.0005   -46.494241      46.7237      46.7237      46.7237           90           90           90     102002.7   -495.46881 
  542000       541500   -9473.8616    1223.8113   -10697.673    4377.6427   -15075.316    131.88671    10.032918   -116.11244    -469.1063    252.16594   -127.24246   -31.039611      46.7237      46.7237      46.7237           90           90           90     102002.7    -191.7286 
  543000       542500   -9487.3188    1218.8584   -10706.177    4381.7386   -15087.916    131.35295   -131.25846   -260.63516   -638.17153    69.968892    -197.5033   -105.92269      46.7237      46.7237      46.7237           90           90           90     102002.7   -343.35505 
  544000       543500   -9469.3652    1172.7111   -10642.076    4399.1769   -15041.253    126.37978   -200.52702    -644.6684    87.360156    38.241861    48.951146   -141.11512      46.7237      46.7237      46.7237           90           90           90     102002.7   -252.61175 
  545000       544500   -9446.9707    1233.3329   -10680.304    4378.7328   -15059.036    132.91283   -442.05089   -704.40858    333.24154   -209.54059   -22.986921     -35.8832      46.7237      46.7237      46.7237           90           90           90     102002.7   -271.07264 
  546000       545500   -9490.3875    1203.8539   -10694.241    4377.7483    -15071.99    129.73596   -418.64817   -651.13366    69.962133   -36.350106    187.05779    148.36051      46.7237      46.7237      46.7237           90           90           90     102002.7   -333.27323 
  547000       546500   -9462.5353    1195.6592   -10658.195     4393.396   -15051.591    128.85284   -378.76002   -142.60233    484.09551    100.35732    -234.7522    159.39724      46.7237      46.7237      46.7237           90           90           90     102002.7   -12.422277 
  548000       547500   -9490.3804    1198.2811   -10688.661    4385.8539   -15074.515    129.13539   -503.32706   -591.73241   -146.28966   -118.81304    19.226039   -16.169825      46.7237      46.7237      46.7237           90           90           90     102002.7   -413.78304 
  549000       548500   -9492.5656    1198.0368   -10690.602    4361.2103   -15051.813    129.10906   -645.00944    -280.5203    54.274631    197.83324    34.048678    98.479577      46.7237      46.7237      46.7237           90           90           90     102002.7   -290.41837 
  550000       549500   -9483.4515    1189.6357   -10673.087     4393.723    -15066.81    128.20371   -158.56385   -527.02103   -158.79875   -31.641977   -238.23057   -69.596686      46.7237      46.7237      46.7237           90           90           90     102002.7   -281.46121 
  551000       550500   -9530.2554    1184.0393   -10714.295     4353.375    -15067.67    127.60059   -330.57637   -378.13888    -259.0785    394.73916   -222.57276    -67.38919      46.7237      46.7237      46.7237           90           90           90     102002.7   -322.59792 
  552000       551500   -9467.1968    1201.0942   -10668.291    4392.0356   -15060.327    129.43855   -991.23991    -955.0125   -605.21904   -382.76643    358.92804   -126.16995      46.7237      46.7237      46.7237           90           90           90     102002.7   -850.49048 
  553000       552500   -9407.1384    1263.4311    -10670.57    4386.9904    -15057.56    136.15643   -653.82897   -914.05994   -526.89935     138.9513    73.037857   -23.775867      46.7237      46.7237      46.7237           90           90           90     102002.7   -698.26275 
  554000       553500   -9472.5154    1216.1369   -10688.652    4382.7168   -15071.369    131.05967    -493.6822   -658.36443   -710.15954   -57.255944    124.34843    10.055524      46.7237      46.7237      46.7237           90           90           90     102002.7   -620.73539 
  555000       554500   -9477.5461    1214.4797   -10692.026    4375.2331   -15067.259    130.88107   -258.81224   -540.64052    35.172524    135.20811   -206.87255   -32.194514      46.7237      46.7237      46.7237           90           90           90     102002.7   -254.76008 
[...]
  936000       935500   -9508.1651    1207.2058   -10715.371    4355.5564   -15070.927    130.09718    60.048239   -208.59912   -618.29213   -229.38982    80.969856    3.8593032      46.7237      46.7237      46.7237           90           90           90     102002.7   -255.61433 
  937000       936500   -9516.8046    1176.1955       -10693    4361.5728   -15054.573    126.75529   -180.90572   -678.54126   -203.15516   -250.57497    41.633826   -170.17925      46.7237      46.7237      46.7237           90           90           90     102002.7   -354.20071 
  938000       937500    -9498.796    1200.2302   -10699.026    4362.2694   -15061.296    129.34544   -454.79899   -59.288364    204.86547    135.71864    24.467628     52.71361      46.7237      46.7237      46.7237           90           90           90     102002.7   -103.07396 
  939000       938500   -9453.2227    1233.6877    -10686.91    4356.0185   -15042.929    132.95106   -948.06451   -679.55068   -53.623996   -129.62798   -34.689583     113.9822      46.7237      46.7237      46.7237           90           90           90     102002.7   -560.41306 
  940000       939500   -9518.0523    1204.8217   -10722.874    4362.8258     -15085.7    129.84026   -573.41221   -841.49385   -730.41799    259.63184    134.96626   -102.68228      46.7237      46.7237      46.7237           90           90           90     102002.7   -715.10802 
  941000       940500   -9515.4195    1169.5733   -10684.993    4395.3289   -15080.322    126.04164   -634.17029   -24.946837   -655.54296   -84.088435   -123.59969    30.134722      46.7237      46.7237      46.7237           90           90           90     102002.7   -438.22003 
  942000       941500   -9486.7761    1198.9411   -10685.717    4374.0435   -15059.761    129.20652   -336.70117   -235.43056   -553.70521    187.58432    137.39873    91.088208      46.7237      46.7237      46.7237           90           90           90     102002.7   -375.27898 
  943000       942500   -9466.4763    1211.9194   -10678.396    4389.6207   -15068.016    130.60515   -787.87377    -108.5711    345.00542    27.061981    -23.63574    47.262121      46.7237      46.7237      46.7237           90           90           90     102002.7   -183.81315 
  944000       943500   -9459.8962    1207.3822   -10667.278    4384.6105   -15051.889    130.11619   -557.98671   -532.42153   -328.63138   -80.418864   -7.9107682   -213.62777      46.7237      46.7237      46.7237           90           90           90     102002.7    -473.0132 
  945000       944500   -9440.6808    1220.3009   -10660.982    4393.7986    -15054.78     131.5084   -544.70253   -349.47645    357.30697    161.28665    271.93059   -23.408097      46.7237      46.7237      46.7237           90           90           90     102002.7   -178.95734 
  946000       945500   -9495.9664    1179.8804   -10675.847    4365.1519   -15040.999     127.1524   -481.59037   -529.84541   -548.27488    169.79233   -80.967137   -62.891446      46.7237      46.7237      46.7237           90           90           90     102002.7   -519.90356 
  947000       946500   -9489.5465    1177.2917   -10666.838    4398.1718    -15065.01    126.87342   -677.87417    -761.8137   -448.88485   -65.440818    474.13509   -211.93057      46.7237      46.7237      46.7237           90           90           90     102002.7   -629.52424 
  948000       947500   -9473.2369    1217.5971   -10690.834     4379.643   -15070.477    131.21702   -342.60515    -284.1507   -471.94026    85.386295   -216.23663   -119.37632      46.7237      46.7237      46.7237           90           90           90     102002.7   -366.23204 
  949000       948500   -9439.0313    1240.9837   -10680.015    4407.9755   -15087.991    133.73734   -826.26993   -258.05226   -330.12263   -41.169876   -131.88641     31.88132      46.7237      46.7237      46.7237           90           90           90     102002.7   -471.48161 
  950000       949500   -9480.3542    1205.8449   -10686.199    4355.6638   -15041.863    129.95052   -257.19235    140.61126    -97.08607    86.040599   -228.55763   -69.950655      46.7237      46.7237      46.7237           90           90           90     102002.7   -71.222386 
  951000       950500   -9477.9014    1197.3763   -10675.278    4394.6765   -15069.954    129.03789   -629.33808   -410.55489    24.457375    160.30968    156.60969    127.01216      46.7237      46.7237      46.7237           90           90           90     102002.7   -338.47853 
  952000       951500   -9497.1034    1164.1658   -10661.269    4379.1626   -15040.432    125.45888   -25.320465    -1181.202   -113.82238   -198.66438    199.18565   -82.277925      46.7237      46.7237      46.7237           90           90           90     102002.7   -440.11495 
  953000       952500   -9495.7187    1215.1986   -10710.917    4359.6295   -15070.547    130.95854   -288.75575   -601.82284   -234.39852   -71.422957   -212.66718    112.63039      46.7237      46.7237      46.7237           90           90           90     102002.7   -374.99237 
  954000       953500   -9452.7113    1201.5458   -10654.257    4400.1252   -15054.382    129.48722   -370.48674   -244.97739   -271.84777   -252.74085    5.3413389    43.098099      46.7237      46.7237      46.7237           90           90           90     102002.7   -295.77064 
  955000       954500   -9453.4648    1204.4648    -10657.93     4377.168   -15035.098    129.80179   -468.42736   -620.94188   -312.37224   -53.952578    260.57863   -197.85243      46.7237      46.7237      46.7237           90           90           90     102002.7   -467.24716 
  956000       955500    -9464.619     1216.824   -10681.443    4369.9124   -15051.355     131.1337   -854.93687    38.648967   -349.51145    13.084401    266.99735    195.34107      46.7237      46.7237      46.7237           90           90           90     102002.7   -388.59979 
  957000       956500   -9452.9039    1222.7859    -10675.69    4385.0885   -15060.778    131.77621   -532.88606   -857.79184   -339.73074    250.50247    106.80543    134.31693      46.7237      46.7237      46.7237           90           90           90     102002.7   -576.80288 
  958000       957500   -9522.3427    1169.0855   -10691.428     4383.917   -15075.345    125.98906    -350.9321   -562.30871   -350.22948    93.517843    95.772178    94.762074      46.7237      46.7237      46.7237           90           90           90     102002.7   -421.15676 
  959000       958500   -9475.3416    1199.2095   -10674.551    4372.8993    -15047.45    129.23544   -478.61528   -160.61155   -716.03465   -185.95373    9.3603871   -223.76598      46.7237      46.7237      46.7237           90           90           90     102002.7   -451.75383 
  960000       959500   -9457.2116    1223.2053   -10680.417    4385.9354   -15066.352     131.8214   -786.56383   -598.94438   -253.87259   -375.24407    138.93342   -2.5924991      46.7237      46.7237      46.7237           90           90           90     102002.7   -546.46027 
  961000       960500   -9483.8114    1224.9174   -10708.729      4379.54   -15088.269    132.00591   -682.61702   -608.85793   -966.79365   -30.812031    -46.36962   -123.08046      46.7237      46.7237      46.7237           90           90           90     102002.7    -752.7562 
  962000       961500   -9442.9604    1218.5109   -10661.471    4428.6591    -15090.13     131.3155   -141.21221    129.75516   -336.53036    53.750411   -130.01739   -264.39369      46.7237      46.7237      46.7237           90           90           90     102002.7    -115.9958 
  963000       962500   -9497.2966    1210.4057   -10707.702    4366.8195   -15074.522    130.44203   -230.12148   -655.81178   -204.55651   -109.48132    45.700213    76.846735      46.7237      46.7237      46.7237           90           90           90     102002.7   -363.49659 
  964000       963500   -9467.9128    1206.1308   -10674.044    4387.3284   -15061.372    129.98134   -69.187021   -395.96104   -967.16775    -129.0049    31.591301    85.513056      46.7237      46.7237      46.7237           90           90           90     102002.7    -477.4386 
  965000       964500   -9450.1899    1193.4615   -10643.651    4422.6525   -15066.304      128.616   -668.27155    -416.7138   -503.91279    190.97712   -77.618904     77.95394      46.7237      46.7237      46.7237           90           90           90     102002.7   -529.63272 
  966000       965500   -9466.9516    1191.0865   -10658.038    4389.2953   -15047.333    128.36005   -417.13184   -833.12755   -319.17499   -16.745083   -153.97893    276.81897      46.7237      46.7237      46.7237           90           90           90     102002.7   -523.14479 
  967000       966500   -9526.1988    1166.1084   -10692.307    4354.6821   -15046.989    125.66823   -460.97167   -466.75472    5.8404435    80.143585   -134.49183   -144.70256      46.7237      46.7237      46.7237           90           90           90     102002.7   -307.29531 
  968000       967500   -9440.8911    1209.6353   -10650.526    4388.7503   -15039.277      130.359   -478.27608   -611.00271   -277.02153    216.26694   -328.52434   -159.41748      46.7237      46.7237      46.7237           90           90           90     102002.7   -455.43344 
  969000       968500   -9453.6899    1212.9759   -10666.666    4382.6742    -15049.34    130.71901   -728.03871   -340.51426   -896.99174   -224.57083   -99.734576    73.163166      46.7237      46.7237      46.7237           90           90           90     102002.7   -655.18157 
  970000       969500   -9463.1236    1185.4014   -10648.525    4374.9385   -15023.463    127.74738    -417.3658   -195.53552   -611.44681    114.06571    284.11622   -84.213604      46.7237      46.7237      46.7237           90           90           90     102002.7   -408.11605 
  971000       970500   -9507.4773    1207.2661   -10714.743    4368.1407   -15082.884    130.10368   -653.93616   -487.24619   -545.02027    10.083077   -225.42287    9.5037792      46.7237      46.7237      46.7237           90           90           90     102002.7   -562.06754 
  972000       971500    -9438.017    1225.7297   -10663.747    4384.6229    -15048.37    132.09345    85.333943   -164.46155    444.00445   -277.65398    285.26905   -75.370564      46.7237      46.7237      46.7237           90           90           90     102002.7    121.62561 
  973000       972500   -9541.9398    1181.3345   -10723.274    4366.0009   -15089.275    127.30911   -186.08577   -515.29206   -259.81322    206.42988   -26.592145    162.86768      46.7237      46.7237      46.7237           90           90           90     102002.7   -320.39702 
  974000       973500   -9457.0825    1215.8868   -10672.969     4392.192   -15065.161    131.03271   -413.74663    394.64887   -39.410068    264.23704     40.54723    76.157559      46.7237      46.7237      46.7237           90           90           90     102002.7   -19.502609 
  975000       974500   -9471.2406    1210.4548   -10681.695    4384.4757   -15066.171    130.44732    19.597941   -250.42837   -308.16724    279.36846   -262.37216    150.78274      46.7237      46.7237      46.7237           90           90           90     102002.7   -179.66589 
  976000       975500   -9431.0841    1222.8463    -10653.93    4399.7079   -15053.638    131.78272    42.239131   -1090.2739   -135.64154   -101.30893   -88.185204    -177.3412      46.7237      46.7237      46.7237           90           90           90     102002.7   -394.55876 
  977000       976500   -9501.8089    1208.7728   -10710.582    4344.9617   -15055.543    130.26605   -305.63367    -226.2474   -202.04743      79.8838      131.008   -3.6440292      46.7237      46.7237      46.7237           90           90           90     102002.7   -244.64284 
  978000       977500   -9458.2352    1209.5819   -10667.817    4373.5838   -15041.401    130.35325   -425.96164    52.228318   -171.31392   -102.55838   -23.968613    130.69359      46.7237      46.7237      46.7237           90           90           90     102002.7   -181.68241 
  979000       978500   -9554.5999      1152.87    -10707.47    4357.1808   -15064.651    124.24156   -91.811323   -206.93141    89.285123    88.533978   -271.02538   -187.65101      46.7237      46.7237      46.7237           90           90           90     102002.7   -69.819202 
  980000       979500   -9478.7069     1217.959   -10696.666    4392.3451   -15089.011    131.25603   -541.31391   -861.50817   -410.01447    21.352771    64.542564    72.258083      46.7237      46.7237      46.7237           90           90           90     102002.7   -604.27885 
  981000       980500   -9457.6714    1232.4039   -10690.075    4392.0547    -15082.13    132.81271   -180.08627   -244.11744    -468.6127    82.214767    208.05312   -181.46623      46.7237      46.7237      46.7237           90           90           90     102002.7   -297.60547 
  982000       981500   -9456.9116    1207.5787    -10664.49    4375.0016   -15039.492    130.13737   -487.84133    271.18207   -602.90824   -78.197862   -107.27184   -158.45064      46.7237      46.7237      46.7237           90           90           90     102002.7   -273.18917 
  983000       982500   -9454.1433    1217.1344   -10671.278    4400.7502   -15072.028    131.16716   -61.011362   -441.61048   -669.03016    104.27224    97.351306   -334.46786      46.7237      46.7237      46.7237           90           90           90     102002.7   -390.55067 
  984000       983500    -9469.358    1205.3892   -10674.747    4393.9452   -15068.692    129.90141   -472.67172   -366.06342   -360.18612   -250.70646    38.013241   -86.161745      46.7237      46.7237      46.7237           90           90           90     102002.7   -399.64042 
  985000       984500   -9441.3713    1226.1173   -10667.489    4404.4365   -15071.925    132.13522   -923.76026   -417.21843   -296.33451    18.671345   -164.31141   -122.67542      46.7237      46.7237      46.7237           90           90           90     102002.7   -545.77107 
  986000       985500   -9484.0632    1214.2482   -10698.311     4371.597   -15069.908    130.85612   -537.98321    23.721989   -93.124044   -93.046389   -79.399325    51.909074      46.7237      46.7237      46.7237           90           90           90     102002.7   -202.46176 
  987000       986500   -9472.9949     1192.876   -10665.871    4399.0113   -15064.882     128.5529   -175.30268   -270.76884   -472.66791   -280.11756   -64.305148    58.086701      46.7237      46.7237      46.7237           90           90           90     102002.7   -306.24648 
  988000       987500   -9481.8686    1203.8159   -10685.684    4381.9874   -15067.672    129.73186   -554.20572   -834.32506   -430.07098   -69.659942    -330.1607    42.024775      46.7237      46.7237      46.7237           90           90           90     102002.7   -606.20059 
  989000       988500   -9470.0919    1202.3853   -10672.477    4413.8265   -15086.304    129.57769   -182.55419   -118.42404   -531.62112    145.32932    59.236576   -74.891693      46.7237      46.7237      46.7237           90           90           90     102002.7   -277.53312 
  990000       989500   -9466.1911     1212.349    -10678.54    4397.3099    -15075.85    130.65145   -502.69333   -210.21539    -347.6876    23.387072   -106.88257   -217.36345      46.7237      46.7237      46.7237           90           90           90     102002.7   -353.53211 
  991000       990500   -9482.1264    1226.3464   -10708.473     4379.708   -15088.181    132.15991   -411.14388   -408.30537    -376.1441    46.614286    44.254855   -167.22425      46.7237      46.7237      46.7237           90           90           90     102002.7   -398.53112 
  992000       991500   -9512.8386    1185.9955   -10698.834    4385.8162    -15084.65     127.8114   -115.64106    -112.8084   -411.20686   0.13706451    168.65797    244.28412      46.7237      46.7237      46.7237           90           90           90     102002.7   -213.21878 
  993000       992500   -9484.5135    1221.7754   -10706.289    4356.1311    -15062.42    131.66731   -181.93278   -272.81573    337.75723     8.659361   -258.69198    75.536486      46.7237      46.7237      46.7237           90           90           90     102002.7   -38.997094 
  994000       993500   -9462.8336    1201.0314   -10663.865    4393.8697   -15057.735    129.43178     89.28582   -170.17476   -157.92532   -94.440447   -81.034459    174.43186      46.7237      46.7237      46.7237           90           90           90     102002.7   -79.604753 
  995000       994500   -9437.0502    1235.1133   -10672.163    4377.4897   -15049.653    133.10469   -161.14923   -116.97065   -514.50335    193.18327    198.38118    173.89949      46.7237      46.7237      46.7237           90           90           90     102002.7   -264.20774 
  996000       995500    -9468.941    1202.6917   -10671.633    4385.2175    -15056.85    129.61071    63.121691     214.3634   -225.33087   -347.76968   -83.045846     132.8917      46.7237      46.7237      46.7237           90           90           90     102002.7    17.384742 
  997000       996500   -9491.8712    1188.0782   -10679.949    4363.5386   -15043.488    128.03586   -383.27777    112.94095   -178.06602   -2.1697279    92.014947   -22.076782      46.7237      46.7237      46.7237           90           90           90     102002.7   -149.46761 
  998000       997500   -9495.5894    1188.0615   -10683.651    4373.9452   -15057.596    128.03405    -138.6689    96.934618   -636.98663    139.22659    241.75144    19.598455      46.7237      46.7237      46.7237           90           90           90     102002.7    -226.2403 
  999000       998500   -9474.8162    1195.1688   -10669.985    4392.7637   -15062.749    128.79999   -495.88283    223.84487   -395.10354    171.81677    208.13696    152.34595      46.7237      46.7237      46.7237           90           90           90     102002.7    -222.3805 
 1000000       999500   -9454.9538    1210.4026   -10665.356    4394.5357   -15059.892    130.44169   -216.92364   -441.47586   -901.22993   -328.72221   -287.91614    302.58585      46.7237      46.7237      46.7237           90           90           90     102002.7   -519.87648 
 1000500      1000000   -9479.7375    1210.5129    -10690.25    4377.4366   -15067.687    130.45358   -11.403279   -168.22691   -568.25358    167.61372    39.022206     80.24511      46.7237      46.7237      46.7237           90           90           90     102002.7   -249.29459 
Loop time of 2415.33 on 16 procs for 500000 steps with 3114 atoms

Performance: 17.886 ns/day, 1.342 hours/ns, 207.011 timesteps/s
99.8% CPU use with 16 MPI tasks x no OpenMP threads

MPI task timing breakdown:
Section |  min time  |  avg time  |  max time  |%varavg| %total
---------------------------------------------------------------
Pair    | 977.19     | 1413.5     | 1863.3     | 953.9 | 58.52
Bond    | 123.9      | 183.64     | 244.51     | 405.2 |  7.60
Neigh   | 18.119     | 18.188     | 18.282     |   1.1 |  0.75
Comm    | 265.37     | 768.28     | 1249.7     |1484.1 | 31.81
Output  | 0.12943    | 0.13619    | 0.13701    |   0.5 |  0.01
Modify  | 23.441     | 24.88      | 26.371     |  20.0 |  1.03
Other   |            | 6.674      |            |       |  0.28

Nlocal:    194.625 ave 234 max 167 min
Histogram: 6 1 1 0 0 2 1 2 2 1
Nghost:    3937.12 ave 3960 max 3899 min
Histogram: 1 0 1 1 2 1 2 4 2 2
Neighs:    11459.8 ave 18323 max 5548 min
Histogram: 5 2 1 0 0 1 0 1 4 2

Total # of neighbors = 183357
Ave neighs/atom = 58.8815
Ave special neighs/atom = 3.69942
Neighbor list builds = 5151
Dangerous builds = 0
Total wall time: 1:13:03
