LAMMPS (30 Mar 2018)
Reading data file ...
  orthogonal box = (0 0 0) to (46.7237 46.7237 46.7237)
  2 by 2 by 4 MPI processor grid
  reading atoms ...
  3316 atoms
  scanning bonds ...
  5 = max bonds/atom
  scanning angles ...
  10 = max angles/atom
  scanning dihedrals ...
  32 = max dihedrals/atom
  scanning impropers ...
  3 = max impropers/atom
  reading bonds ...
  2064 bonds
  reading angles ...
  3696 angles
  reading dihedrals ...
  6240 dihedrals
  reading impropers ...
  1008 impropers
Finding 1-2 1-3 1-4 neighbors ...
  special bond factors lj:   0          0          0         
  special bond factors coul: 0          0          0         
  5 = max # of 1-2 neighbors
  8 = max # of 1-3 neighbors
  20 = max # of 1-4 neighbors
  19 = max # of special neighbors
Finding 1-2 1-3 1-4 neighbors ...
  special bond factors lj:   0          0          1         
  special bond factors coul: 1          1          1         
  5 = max # of 1-2 neighbors
  8 = max # of 1-3 neighbors
  19 = max # of special neighbors
WARNING: Using 'neigh_modify every 1 delay 0 check yes' setting during minimization (../min.cpp:168)
Neighbor list info ...
  update every 1 steps, delay 0 steps, check yes
  max neighbors/atom: 2000, page size: 100000
  master list distance cutoff = 16
  ghost atom cutoff = 16
  binsize = 8, bins = 6 6 6
  3 neighbor lists, perpetual/occasional/extra = 3 0 0
  (1) pair buck6d/coul/gauss/dsf, perpetual, skip from (3)
      attributes: half, newton on
      pair build: skip
      stencil: none
      bin: none
  (2) pair lj/cut, perpetual, skip from (3)
      attributes: half, newton on
      pair build: skip
      stencil: none
      bin: none
  (3) neighbor class addition, perpetual
      attributes: half, newton on
      pair build: half/bin/newton
      stencil: half/bin/3d/newton
      bin: standard
Setting up cg style minimization ...
  Unit style    : real
  Current step  : 0
WARNING: Inconsistent image flags (../domain.cpp:786)
Per MPI rank memory allocation (min/avg/max) = 23.03 | 23.48 | 23.93 Mbytes
Step Temp E_pair E_mol TotEng Press 
       0            0   -15982.716    6482.8914   -9499.8243    6545.9684 
     500            0   -16332.914    3774.9931    -12557.92   -1252.7611 
Loop time of 4.54677 on 16 procs for 500 steps with 3316 atoms

99.9% CPU use with 16 MPI tasks x no OpenMP threads

Minimization stats:
  Stopping criterion = max force evaluations
  Energy initial, next-to-last, final = 
        -9499.82432085     -12557.8595457     -12557.9204374
  Force two-norm initial, final = 2575.3 10.9768
  Force max component initial, final = 152.09 1.28653
  Final line search alpha, max atom move = 0.00897894 0.0115516
  Iterations, force evaluations = 500 1000

MPI task timing breakdown:
Section |  min time  |  avg time  |  max time  |%varavg| %total
---------------------------------------------------------------
Pair    | 2.5936     | 3.1295     | 3.7248     |  17.9 | 68.83
Bond    | 0.2899     | 0.35962    | 0.42549    |   5.6 |  7.91
Neigh   | 0.028174   | 0.028266   | 0.028348   |   0.0 |  0.62
Comm    | 0.34601    | 0.98332    | 1.497      |  32.5 | 21.63
Output  | 0          | 0          | 0          |   0.0 |  0.00
Modify  | 0          | 0          | 0          |   0.0 |  0.00
Other   |            | 0.04608    |            |       |  1.01

Nlocal:    207.25 ave 225 max 191 min
Histogram: 2 1 1 4 1 0 2 2 2 1
Nghost:    4148.38 ave 4176 max 4124 min
Histogram: 3 1 0 2 3 1 2 2 0 2
Neighs:    11509.8 ave 15917 max 8405 min
Histogram: 5 0 1 2 2 2 0 1 1 2

Total # of neighbors = 184156
Ave neighs/atom = 55.5356
Ave special neighs/atom = 3.47407
Neighbor list builds = 8
Dangerous builds = 0
Neighbor list info ...
  update every 1 steps, delay 10 steps, check yes
  max neighbors/atom: 2000, page size: 100000
  master list distance cutoff = 16
  ghost atom cutoff = 16
  binsize = 8, bins = 6 6 6
  3 neighbor lists, perpetual/occasional/extra = 3 0 0
  (1) pair buck6d/coul/gauss/dsf, perpetual, skip from (3)
      attributes: half, newton on
      pair build: skip
      stencil: none
      bin: none
  (2) pair lj/cut, perpetual, skip from (3)
      attributes: half, newton on
      pair build: skip
      stencil: none
      bin: none
  (3) neighbor class addition, perpetual
      attributes: half, newton on
      pair build: half/bin/newton
      stencil: half/bin/3d/newton
      bin: standard
Setting up Verlet run ...
  Unit style    : real
  Current step  : 500
  Time step     : 1
WARNING: Inconsistent image flags (../domain.cpp:786)
Per MPI rank memory allocation (min/avg/max) = 22.67 | 22.74 | 22.8 Mbytes
Step Temp PotEng TotEng Press Volume Lx Ly Lz 
     500           91    -12557.92   -11658.714   -849.78394     102002.7      46.7237      46.7237      46.7237 
    1000    75.848407   -11805.213   -11055.725    379.55883     102002.7      46.7237      46.7237      46.7237 
    2000    92.684599   -11659.792    -10743.94    404.43814     102002.7      46.7237      46.7237      46.7237 
    3000    92.732164   -11686.429   -10770.107    544.46861     102002.7      46.7237      46.7237      46.7237 
    4000    91.696083   -11679.535   -10773.451    752.96315     102002.7      46.7237      46.7237      46.7237 
    5000    90.932821   -11677.884   -10779.341    298.40876     102002.7      46.7237      46.7237      46.7237 
    6000     93.10828   -11698.732   -10778.693    473.40149     102002.7      46.7237      46.7237      46.7237 
    7000    92.471912   -11685.397   -10771.646    690.41268     102002.7      46.7237      46.7237      46.7237 
    8000     90.33718    -11688.24   -10795.584    616.63403     102002.7      46.7237      46.7237      46.7237 
    9000    91.993095   -11679.098   -10770.079     667.5922     102002.7      46.7237      46.7237      46.7237 
   10000     91.86103   -11674.757   -10767.043    757.84937     102002.7      46.7237      46.7237      46.7237 
   11000    89.811553   -11700.381   -10812.919    712.31239     102002.7      46.7237      46.7237      46.7237 
   12000    92.271118   -11733.024   -10821.258    564.22563     102002.7      46.7237      46.7237      46.7237 
   13000    91.979633   -11697.401   -10788.515    560.53031     102002.7      46.7237      46.7237      46.7237 
   14000    89.852104   -11669.187   -10781.323    723.20205     102002.7      46.7237      46.7237      46.7237 
   15000    94.737228   -11704.938   -10768.803    645.56819     102002.7      46.7237      46.7237      46.7237 
   16000    89.937644   -11713.647   -10824.939    529.66777     102002.7      46.7237      46.7237      46.7237 
   17000      92.4558   -11677.199   -10763.608    674.99719     102002.7      46.7237      46.7237      46.7237 
   18000    90.387158   -11698.239   -10805.089    871.64984     102002.7      46.7237      46.7237      46.7237 
   19000    89.019551   -11709.054   -10829.417    503.81449     102002.7      46.7237      46.7237      46.7237 
   20000    91.796124   -11692.383    -10785.31    543.70505     102002.7      46.7237      46.7237      46.7237 
   21000    91.813031    -11696.06    -10788.82    522.40051     102002.7      46.7237      46.7237      46.7237 
   22000    90.330606   -11698.319   -10805.728    629.84013     102002.7      46.7237      46.7237      46.7237 
   23000    93.178879   -11708.026   -10787.289    611.61811     102002.7      46.7237      46.7237      46.7237 
   24000    91.632823   -11715.757   -10810.298    792.54607     102002.7      46.7237      46.7237      46.7237 
   25000    89.771138   -11700.236   -10813.173    606.77831     102002.7      46.7237      46.7237      46.7237 
   26000    91.691896    -11721.38   -10815.337    572.70518     102002.7      46.7237      46.7237      46.7237 
   27000    89.775322    -11704.55   -10817.446    599.88958     102002.7      46.7237      46.7237      46.7237 
   28000     93.19833   -11718.673   -10797.745    964.57736     102002.7      46.7237      46.7237      46.7237 
   29000    91.595943   -11709.855    -10804.76    816.22847     102002.7      46.7237      46.7237      46.7237 
   30000    91.703542   -11721.922   -10815.764    583.47619     102002.7      46.7237      46.7237      46.7237 
   31000    89.493344   -11713.583   -10829.265    279.82672     102002.7      46.7237      46.7237      46.7237 
   32000    89.399574   -11723.611   -10840.219    518.04335     102002.7      46.7237      46.7237      46.7237 
   33000    89.396804   -11714.145   -10830.781    461.02932     102002.7      46.7237      46.7237      46.7237 
   34000    91.255189   -11727.867    -10826.14    637.52055     102002.7      46.7237      46.7237      46.7237 
   35000    88.685511   -11718.768   -10842.432    586.09525     102002.7      46.7237      46.7237      46.7237 
   36000    90.981937   -11714.057   -10815.029    561.89467     102002.7      46.7237      46.7237      46.7237 
   37000    92.531699   -11707.652    -10793.31    411.84417     102002.7      46.7237      46.7237      46.7237 
   38000    92.339952   -11730.587    -10818.14     459.6422     102002.7      46.7237      46.7237      46.7237 
   39000    89.226645   -11702.583     -10820.9    750.19368     102002.7      46.7237      46.7237      46.7237 
   40000    88.661243   -11723.652   -10847.556    477.24504     102002.7      46.7237      46.7237      46.7237 
   41000    91.484255    -11723.55   -10819.559    770.37153     102002.7      46.7237      46.7237      46.7237 
   42000    92.301102   -11739.627   -10827.565    503.06918     102002.7      46.7237      46.7237      46.7237 
   43000    91.875419   -11706.828   -10798.971    597.77848     102002.7      46.7237      46.7237      46.7237 
   44000    89.203474   -11715.458   -10834.004    690.61264     102002.7      46.7237      46.7237      46.7237 
   45000    90.281624   -11709.507   -10817.399    449.49681     102002.7      46.7237      46.7237      46.7237 
   46000    90.487156   -11728.206   -10834.068    730.32638     102002.7      46.7237      46.7237      46.7237 
   47000    89.570178   -11727.187    -10842.11    402.71055     102002.7      46.7237      46.7237      46.7237 
   48000     89.75971   -11716.513   -10829.563    341.20836     102002.7      46.7237      46.7237      46.7237 
   49000    91.371944   -11708.091   -10805.209    881.32022     102002.7      46.7237      46.7237      46.7237 
   50000    91.555227   -11722.635   -10817.943    581.01665     102002.7      46.7237      46.7237      46.7237 
   51000    93.982534   -11688.285   -10759.608    822.07687     102002.7      46.7237      46.7237      46.7237 
   52000    90.660235   -11706.745   -10810.896    482.18029     102002.7      46.7237      46.7237      46.7237 
   53000    90.579868   -11745.907   -10850.852    395.23312     102002.7      46.7237      46.7237      46.7237 
   54000    89.631192   -11726.397   -10840.716    694.16092     102002.7      46.7237      46.7237      46.7237 
   55000    90.199807   -11742.135   -10850.835    677.82901     102002.7      46.7237      46.7237      46.7237 
   56000     90.34661   -11712.768   -10820.018    556.12801     102002.7      46.7237      46.7237      46.7237 
   57000    89.418396   -11714.998   -10831.421    371.83021     102002.7      46.7237      46.7237      46.7237 
   58000    91.626887   -11706.368   -10800.967    713.06228     102002.7      46.7237      46.7237      46.7237 
   59000    91.560469   -11711.132   -10806.388    551.13194     102002.7      46.7237      46.7237      46.7237 
   60000    90.726137   -11720.992   -10824.492    403.17026     102002.7      46.7237      46.7237      46.7237 
   61000    93.823787    -11711.33   -10784.221    408.90379     102002.7      46.7237      46.7237      46.7237 
   62000    89.951791   -11707.346   -10818.497     347.4389     102002.7      46.7237      46.7237      46.7237 
   63000    91.731912   -11727.932   -10821.494    432.22959     102002.7      46.7237      46.7237      46.7237 
   64000    88.837865   -11714.875   -10837.033    708.47893     102002.7      46.7237      46.7237      46.7237 
   65000     91.35015   -11719.276    -10816.61    457.49131     102002.7      46.7237      46.7237      46.7237 
   66000    89.481573   -11722.253   -10838.051      536.587     102002.7      46.7237      46.7237      46.7237 
   67000     88.74593   -11721.237   -10844.304    533.40327     102002.7      46.7237      46.7237      46.7237 
   68000    90.236856   -11717.653   -10825.988    632.30848     102002.7      46.7237      46.7237      46.7237 
   69000    92.004661   -11724.881   -10815.747    495.29065     102002.7      46.7237      46.7237      46.7237 
   70000    91.224773   -11714.103   -10812.675    576.28256     102002.7      46.7237      46.7237      46.7237 
   71000    91.211722    -11718.78   -10817.482    388.55131     102002.7      46.7237      46.7237      46.7237 
   72000    90.457149   -11727.635   -10833.793    818.35618     102002.7      46.7237      46.7237      46.7237 
   73000    90.800012   -11729.548   -10832.319    420.97602     102002.7      46.7237      46.7237      46.7237 
   74000    92.290857   -11712.249   -10800.288    517.99328     102002.7      46.7237      46.7237      46.7237 
   75000    88.363212   -11720.937   -10847.786     718.7253     102002.7      46.7237      46.7237      46.7237 
   76000     91.42513   -11714.747    -10811.34    483.98034     102002.7      46.7237      46.7237      46.7237 
   77000    91.153408   -11715.102    -10814.38    289.86371     102002.7      46.7237      46.7237      46.7237 
   78000    89.566188   -11732.904   -10847.866    322.42031     102002.7      46.7237      46.7237      46.7237 
   79000    92.184583   -11748.333   -10837.421    427.01624     102002.7      46.7237      46.7237      46.7237 
   80000    92.234104   -11715.177   -10803.776    500.12895     102002.7      46.7237      46.7237      46.7237 
   81000    90.496799    -11733.25   -10839.016    520.78212     102002.7      46.7237      46.7237      46.7237 
   82000    90.746203   -11742.346   -10845.648    293.94441     102002.7      46.7237      46.7237      46.7237 
   83000    91.052952   -11746.336   -10846.606    338.89634     102002.7      46.7237      46.7237      46.7237 
   84000    91.432837   -11734.091   -10830.608    502.90496     102002.7      46.7237      46.7237      46.7237 
   85000    90.551694   -11739.347   -10844.571    321.88298     102002.7      46.7237      46.7237      46.7237 
   86000    91.852708   -11713.132     -10805.5    789.25726     102002.7      46.7237      46.7237      46.7237 
   87000    90.143511   -11741.236   -10850.493    684.19865     102002.7      46.7237      46.7237      46.7237 
   88000    91.379027   -11729.641    -10826.69     442.6443     102002.7      46.7237      46.7237      46.7237 
   89000    90.972584   -11716.191   -10817.256    634.98641     102002.7      46.7237      46.7237      46.7237 
   90000    90.836554   -11726.589   -10828.998    674.42594     102002.7      46.7237      46.7237      46.7237 
   91000    89.070007   -11735.678   -10855.542    529.30934     102002.7      46.7237      46.7237      46.7237 
   92000    93.183953   -11710.369   -10789.582    629.22653     102002.7      46.7237      46.7237      46.7237 
   93000    89.258528   -11718.352   -10836.354    445.75606     102002.7      46.7237      46.7237      46.7237 
   94000    89.348943   -11742.994   -10860.103    372.98589     102002.7      46.7237      46.7237      46.7237 
   95000    89.517922   -11740.336   -10855.775    322.75537     102002.7      46.7237      46.7237      46.7237 
   96000     91.80705   -11728.954   -10821.773    588.07258     102002.7      46.7237      46.7237      46.7237 
   97000    91.507601   -11723.457   -10819.235    841.90735     102002.7      46.7237      46.7237      46.7237 
   98000    90.873547   -11747.393   -10849.437     561.5198     102002.7      46.7237      46.7237      46.7237 
   99000    92.284189   -11747.307   -10835.411    356.32502     102002.7      46.7237      46.7237      46.7237 
  100000    89.122207   -11745.419   -10864.768    496.05953     102002.7      46.7237      46.7237      46.7237 
  101000    90.714166   -11719.706   -10823.324    346.32491     102002.7      46.7237      46.7237      46.7237 
  102000    90.490012   -11751.953   -10857.786    747.26169     102002.7      46.7237      46.7237      46.7237 
  103000    94.470725   -11715.632   -10782.131    501.33092     102002.7      46.7237      46.7237      46.7237 
  104000    89.680666   -11735.235   -10849.066    621.29565     102002.7      46.7237      46.7237      46.7237 
  105000    89.758387   -11728.329   -10841.392    549.27219     102002.7      46.7237      46.7237      46.7237 
  106000    88.082819   -11731.353   -10860.973    584.18232     102002.7      46.7237      46.7237      46.7237 
  107000    90.053947   -11741.652   -10851.794    528.42166     102002.7      46.7237      46.7237      46.7237 
  108000    89.260675   -11755.845   -10873.826    643.07699     102002.7      46.7237      46.7237      46.7237 
  109000     90.85296   -11728.612   -10830.859    548.03275     102002.7      46.7237      46.7237      46.7237 
  110000    91.664058   -11758.463   -10852.695    345.17163     102002.7      46.7237      46.7237      46.7237 
  111000     90.28136   -11745.976   -10853.871     444.9929     102002.7      46.7237      46.7237      46.7237 
  112000    92.044792   -11751.953   -10842.423    394.44168     102002.7      46.7237      46.7237      46.7237 
  113000    89.122231    -11734.63   -10853.979    1068.2906     102002.7      46.7237      46.7237      46.7237 
  114000    91.067274   -11712.828   -10812.957    527.91322     102002.7      46.7237      46.7237      46.7237 
  115000    91.384241   -11740.646   -10837.643    441.07474     102002.7      46.7237      46.7237      46.7237 
  116000    90.742188   -11743.229   -10846.571    447.51788     102002.7      46.7237      46.7237      46.7237 
  117000    89.082604   -11745.792   -10865.532    410.39614     102002.7      46.7237      46.7237      46.7237 
  118000    89.157256   -11737.998       -10857     713.5708     102002.7      46.7237      46.7237      46.7237 
  119000    89.196834    -11725.78   -10844.391    378.18334     102002.7      46.7237      46.7237      46.7237 
  120000    88.562973   -11750.892   -10875.768    413.64928     102002.7      46.7237      46.7237      46.7237 
  121000    87.998324   -11736.758   -10867.213    659.46829     102002.7      46.7237      46.7237      46.7237 
  122000    90.825702   -11737.752   -10840.268    289.49055     102002.7      46.7237      46.7237      46.7237 
  123000    91.975695   -11736.424   -10827.577     702.5566     102002.7      46.7237      46.7237      46.7237 
  124000    90.827437    -11763.07   -10865.569    667.63498     102002.7      46.7237      46.7237      46.7237 
  125000    93.219848   -11748.609   -10827.468    788.32702     102002.7      46.7237      46.7237      46.7237 
  126000    92.458218   -11727.371   -10813.756    721.00545     102002.7      46.7237      46.7237      46.7237 
  127000    90.500519   -11739.838   -10845.567    453.11324     102002.7      46.7237      46.7237      46.7237 
  128000     89.42893   -11750.352    -10866.67    614.12387     102002.7      46.7237      46.7237      46.7237 
  129000    90.107243   -11761.565    -10871.18    945.10522     102002.7      46.7237      46.7237      46.7237 
  130000    91.158729   -11756.815    -10856.04    410.90918     102002.7      46.7237      46.7237      46.7237 
  131000    90.909395   -11731.591   -10833.281    485.44639     102002.7      46.7237      46.7237      46.7237 
  132000    89.485808   -11727.788   -10843.544    384.84038     102002.7      46.7237      46.7237      46.7237 
  133000    90.190379   -11734.906     -10843.7    391.71006     102002.7      46.7237      46.7237      46.7237 
  134000    92.019263   -11735.562   -10826.285     550.8401     102002.7      46.7237      46.7237      46.7237 
  135000    90.060352   -11762.246   -10872.324    517.97692     102002.7      46.7237      46.7237      46.7237 
  136000    90.181931   -11751.782   -10860.659    546.32992     102002.7      46.7237      46.7237      46.7237 
  137000    90.032445   -11750.784   -10861.139    839.76289     102002.7      46.7237      46.7237      46.7237 
  138000     92.97769   -11770.017   -10851.268    506.48667     102002.7      46.7237      46.7237      46.7237 
  139000    91.351041   -11758.782   -10856.107     558.2481     102002.7      46.7237      46.7237      46.7237 
  140000    89.806892   -11752.623   -10865.206    447.77565     102002.7      46.7237      46.7237      46.7237 
  141000    92.750452   -11746.889   -10830.386    600.31126     102002.7      46.7237      46.7237      46.7237 
  142000    92.352208    -11776.01   -10863.442    538.54438     102002.7      46.7237      46.7237      46.7237 
  143000    91.687325   -11733.323   -10827.325    581.05399     102002.7      46.7237      46.7237      46.7237 
  144000    90.807216   -11769.409   -10872.108    474.35834     102002.7      46.7237      46.7237      46.7237 
  145000    90.372295   -11762.841   -10869.837    660.67432     102002.7      46.7237      46.7237      46.7237 
  146000     92.13684   -11744.384   -10833.944    515.31565     102002.7      46.7237      46.7237      46.7237 
  147000    90.551063   -11760.549   -10865.779    634.50495     102002.7      46.7237      46.7237      46.7237 
  148000     91.09675   -11750.325   -10850.162    740.02308     102002.7      46.7237      46.7237      46.7237 
  149000    90.409316     -11730.8    -10837.43    649.83569     102002.7      46.7237      46.7237      46.7237 
  150000    90.524117   -11754.421   -10859.917    741.96123     102002.7      46.7237      46.7237      46.7237 
  151000    89.814054   -11731.193   -10843.706     686.6874     102002.7      46.7237      46.7237      46.7237 
  152000    90.640625   -11750.356   -10854.701    605.14318     102002.7      46.7237      46.7237      46.7237 
  153000    89.737717   -11743.477   -10856.744    587.13053     102002.7      46.7237      46.7237      46.7237 
  154000    90.520868   -11735.728   -10841.256    1012.5284     102002.7      46.7237      46.7237      46.7237 
  155000    91.752945    -11752.58   -10845.934    916.72861     102002.7      46.7237      46.7237      46.7237 
  156000    90.276757    -11722.19    -10830.13    905.53634     102002.7      46.7237      46.7237      46.7237 
  157000    91.560281   -11744.424   -10839.681    695.94352     102002.7      46.7237      46.7237      46.7237 
  158000    93.327442   -11751.249   -10829.044    358.27603     102002.7      46.7237      46.7237      46.7237 
  159000    89.183088   -11754.671   -10873.418    585.99667     102002.7      46.7237      46.7237      46.7237 
  160000    90.231767   -11754.544   -10862.929    830.78025     102002.7      46.7237      46.7237      46.7237 
  161000    88.810442   -11754.791   -10877.221    589.06343     102002.7      46.7237      46.7237      46.7237 
  162000    91.857106   -11754.972   -10847.296    416.21142     102002.7      46.7237      46.7237      46.7237 
  163000    93.519486    -11743.24   -10819.138    545.96616     102002.7      46.7237      46.7237      46.7237 
  164000    91.813041   -11765.451   -10858.211    660.26124     102002.7      46.7237      46.7237      46.7237 
  165000    90.623251   -11763.523    -10868.04    597.50547     102002.7      46.7237      46.7237      46.7237 
  166000    87.774564     -11741.4   -10874.066    637.64323     102002.7      46.7237      46.7237      46.7237 
  167000    91.167758   -11752.381   -10851.517    318.65915     102002.7      46.7237      46.7237      46.7237 
  168000     90.05765   -11744.375    -10854.48    527.14687     102002.7      46.7237      46.7237      46.7237 
  169000    91.628823   -11774.447   -10869.028    669.95058     102002.7      46.7237      46.7237      46.7237 
  170000    92.521716   -11748.039   -10833.796    699.12222     102002.7      46.7237      46.7237      46.7237 
  171000    92.438422   -11731.034   -10817.614    847.20797     102002.7      46.7237      46.7237      46.7237 
  172000    90.462618   -11754.537   -10860.641      821.198     102002.7      46.7237      46.7237      46.7237 
  173000    91.224418   -11756.153   -10854.729    528.98205     102002.7      46.7237      46.7237      46.7237 
  174000    92.997821   -11767.203   -10848.256    670.28099     102002.7      46.7237      46.7237      46.7237 
  175000    91.340597   -11746.875   -10844.304    404.98383     102002.7      46.7237      46.7237      46.7237 
  176000    89.407888   -11757.484   -10874.011    586.59999     102002.7      46.7237      46.7237      46.7237 
  177000    92.610155   -11752.094   -10836.978    608.20877     102002.7      46.7237      46.7237      46.7237 
  178000    89.506928   -11748.867   -10864.414     695.2082     102002.7      46.7237      46.7237      46.7237 
  179000    91.384262   -11747.226   -10844.223    544.83504     102002.7      46.7237      46.7237      46.7237 
  180000    92.425751   -11776.363   -10863.069    668.05276     102002.7      46.7237      46.7237      46.7237 
  181000    89.692115   -11753.214   -10866.931    414.42052     102002.7      46.7237      46.7237      46.7237 
  182000    91.241683    -11740.71   -10839.115    547.38859     102002.7      46.7237      46.7237      46.7237 
  183000    90.657492   -11755.509   -10859.687    429.39628     102002.7      46.7237      46.7237      46.7237 
  184000    90.786573   -11747.554   -10850.457    724.84212     102002.7      46.7237      46.7237      46.7237 
  185000    90.080476   -11731.482   -10841.362    611.80725     102002.7      46.7237      46.7237      46.7237 
  186000    91.565354   -11747.607   -10842.815    518.03987     102002.7      46.7237      46.7237      46.7237 
  187000    90.880375   -11752.836   -10854.812    529.15317     102002.7      46.7237      46.7237      46.7237 
  188000    90.697316   -11748.215       -10852    751.90017     102002.7      46.7237      46.7237      46.7237 
  189000    93.488221   -11741.525   -10817.732    504.13715     102002.7      46.7237      46.7237      46.7237 
  190000    91.730039   -11770.401   -10863.981    420.44688     102002.7      46.7237      46.7237      46.7237 
  191000    91.399137   -11754.137   -10850.987    571.94563     102002.7      46.7237      46.7237      46.7237 
  192000     88.52194   -11734.454   -10859.734    759.54299     102002.7      46.7237      46.7237      46.7237 
  193000    89.523935   -11769.177   -10884.556     753.9767     102002.7      46.7237      46.7237      46.7237 
  194000     92.21162    -11782.63   -10871.451    430.85991     102002.7      46.7237      46.7237      46.7237 
  195000    92.364128   -11763.942   -10851.257     765.0249     102002.7      46.7237      46.7237      46.7237 
  196000     91.32559   -11772.803    -10870.38    731.53106     102002.7      46.7237      46.7237      46.7237 
  197000    88.757487   -11743.342   -10866.295     776.3313     102002.7      46.7237      46.7237      46.7237 
  198000    89.567793   -11738.153   -10853.099    928.25964     102002.7      46.7237      46.7237      46.7237 
  199000     90.45405   -11740.111     -10846.3    630.20496     102002.7      46.7237      46.7237      46.7237 
  200000    91.925496   -11752.746   -10844.395    783.73389     102002.7      46.7237      46.7237      46.7237 
  201000    91.733995   -11766.584   -10860.125    715.80444     102002.7      46.7237      46.7237      46.7237 
  202000    89.011511   -11743.268   -10863.711    733.39839     102002.7      46.7237      46.7237      46.7237 
  203000    91.692102   -11750.542   -10844.497    545.18769     102002.7      46.7237      46.7237      46.7237 
  204000    88.455291   -11755.675   -10881.614    684.47071     102002.7      46.7237      46.7237      46.7237 
  205000    91.734383   -11764.502   -10858.039    377.08246     102002.7      46.7237      46.7237      46.7237 
  206000    92.724521   -11739.831   -10823.584     758.2592     102002.7      46.7237      46.7237      46.7237 
  207000    88.736824   -11743.473    -10866.63    895.88847     102002.7      46.7237      46.7237      46.7237 
  208000    90.531586   -11740.701   -10846.123    581.66332     102002.7      46.7237      46.7237      46.7237 
  209000    90.821055   -11765.459   -10868.021    254.28534     102002.7      46.7237      46.7237      46.7237 
  210000    90.937967   -11751.537   -10852.944    735.65702     102002.7      46.7237      46.7237      46.7237 
  211000    89.691937   -11753.293   -10867.012    558.79948     102002.7      46.7237      46.7237      46.7237 
  212000    90.636794    -11768.07   -10872.453    619.69497     102002.7      46.7237      46.7237      46.7237 
  213000    91.708384   -11754.863   -10848.657    677.16679     102002.7      46.7237      46.7237      46.7237 
  214000    91.873889   -11735.683   -10827.842    838.59925     102002.7      46.7237      46.7237      46.7237 
  215000    90.473776   -11743.275   -10849.269    747.47512     102002.7      46.7237      46.7237      46.7237 
  216000    89.941813   -11758.269    -10869.52    291.89237     102002.7      46.7237      46.7237      46.7237 
  217000    91.365607   -11758.748   -10855.929    727.25661     102002.7      46.7237      46.7237      46.7237 
  218000     89.80512   -11746.655   -10859.256    740.97077     102002.7      46.7237      46.7237      46.7237 
  219000    91.353025   -11764.877   -10862.183    849.62066     102002.7      46.7237      46.7237      46.7237 
  220000    91.293784   -11731.687   -10829.578    512.84587     102002.7      46.7237      46.7237      46.7237 
  221000       91.749   -11771.098   -10864.491    591.30913     102002.7      46.7237      46.7237      46.7237 
  222000    90.112388   -11749.389   -10858.954    813.98545     102002.7      46.7237      46.7237      46.7237 
  223000    91.854007   -11742.399   -10834.754    419.07454     102002.7      46.7237      46.7237      46.7237 
  224000    90.934055   -11753.587   -10855.032    372.58401     102002.7      46.7237      46.7237      46.7237 
  225000    91.050646   -11725.917    -10826.21    671.13832     102002.7      46.7237      46.7237      46.7237 
  226000    91.487624   -11733.815    -10829.79    474.39172     102002.7      46.7237      46.7237      46.7237 
  227000    88.948831   -11748.095   -10869.157    492.39643     102002.7      46.7237      46.7237      46.7237 
  228000    90.401252   -11747.508   -10854.218    517.45172     102002.7      46.7237      46.7237      46.7237 
  229000    92.579673   -11734.937   -10820.121    753.18304     102002.7      46.7237      46.7237      46.7237 
  230000    88.883407   -11743.911    -10865.62    724.09009     102002.7      46.7237      46.7237      46.7237 
  231000    90.381589   -11744.508   -10851.413    760.18112     102002.7      46.7237      46.7237      46.7237 
  232000    88.537522   -11761.525   -10886.652     569.2981     102002.7      46.7237      46.7237      46.7237 
  233000    91.820896   -11748.106   -10840.789    723.47558     102002.7      46.7237      46.7237      46.7237 
  234000    95.249756   -11760.992   -10819.792    718.68695     102002.7      46.7237      46.7237      46.7237 
  235000    91.066476   -11749.512   -10849.649    436.09756     102002.7      46.7237      46.7237      46.7237 
  236000     90.02253   -11756.657    -10867.11    467.72551     102002.7      46.7237      46.7237      46.7237 
  237000    92.031521   -11766.186   -10856.787    479.89351     102002.7      46.7237      46.7237      46.7237 
  238000    90.088443   -11738.337   -10848.138    632.10135     102002.7      46.7237      46.7237      46.7237 
  239000    89.051255   -11789.628   -10909.678    350.79095     102002.7      46.7237      46.7237      46.7237 
  240000    91.572832   -11748.043   -10843.177    533.87979     102002.7      46.7237      46.7237      46.7237 
  241000     90.58997   -11745.619   -10850.464    758.12134     102002.7      46.7237      46.7237      46.7237 
  242000    91.625681   -11732.026   -10826.637    811.97992     102002.7      46.7237      46.7237      46.7237 
  243000    90.580473   -11746.587   -10851.527    627.48117     102002.7      46.7237      46.7237      46.7237 
  244000    91.014535   -11759.363   -10860.013    550.44203     102002.7      46.7237      46.7237      46.7237 
  245000    90.741606    -11755.51   -10858.858    380.34306     102002.7      46.7237      46.7237      46.7237 
  246000     92.77803   -11746.559   -10829.783    225.33232     102002.7      46.7237      46.7237      46.7237 
  247000    89.703626   -11759.605   -10873.209    375.79115     102002.7      46.7237      46.7237      46.7237 
  248000    91.122431       -11749   -10848.585    478.95058     102002.7      46.7237      46.7237      46.7237 
  249000    89.341557   -11746.093   -10863.275    617.26194     102002.7      46.7237      46.7237      46.7237 
  250000    90.069125     -11732.9   -10842.892    531.39619     102002.7      46.7237      46.7237      46.7237 
  251000    92.501033   -11772.756   -10858.718    436.88132     102002.7      46.7237      46.7237      46.7237 
  252000    91.880508    -11762.55   -10854.644    225.71364     102002.7      46.7237      46.7237      46.7237 
  253000    89.730069   -11782.101   -10895.444    375.02547     102002.7      46.7237      46.7237      46.7237 
  254000    92.178025   -11735.089   -10824.243     673.2736     102002.7      46.7237      46.7237      46.7237 
  255000     89.57203    -11746.99   -10861.894    590.24715     102002.7      46.7237      46.7237      46.7237 
  256000    93.089933   -11772.328    -10852.47    380.87933     102002.7      46.7237      46.7237      46.7237 
  257000     91.52953   -11755.582   -10851.144    541.98389     102002.7      46.7237      46.7237      46.7237 
  258000    89.919794   -11747.457   -10858.925    678.20033     102002.7      46.7237      46.7237      46.7237 
  259000    90.627127   -11747.341   -10851.819    638.08047     102002.7      46.7237      46.7237      46.7237 
  260000    90.838038   -11759.651   -10862.045     782.7503     102002.7      46.7237      46.7237      46.7237 
  261000     90.94603   -11743.573     -10844.9    510.47153     102002.7      46.7237      46.7237      46.7237 
  262000    92.901482   -11743.412   -10825.417    351.55222     102002.7      46.7237      46.7237      46.7237 
  263000    89.323442   -11753.936   -10871.297    667.49896     102002.7      46.7237      46.7237      46.7237 
  264000    90.326581    -11745.69   -10853.138    731.46912     102002.7      46.7237      46.7237      46.7237 
  265000    91.450516   -11763.012   -10859.355    565.48587     102002.7      46.7237      46.7237      46.7237 
  266000    89.920232   -11756.834   -10868.297    784.54454     102002.7      46.7237      46.7237      46.7237 
  267000    91.328647   -11769.119   -10866.666    385.73608     102002.7      46.7237      46.7237      46.7237 
  268000    91.554115   -11757.586   -10852.905    615.53363     102002.7      46.7237      46.7237      46.7237 
  269000    89.808708   -11747.719   -10860.284    477.66927     102002.7      46.7237      46.7237      46.7237 
  270000    89.276838   -11763.764   -10881.585    466.83082     102002.7      46.7237      46.7237      46.7237 
  271000    89.726739   -11739.714   -10853.089     608.1089     102002.7      46.7237      46.7237      46.7237 
  272000    90.437432   -11734.269   -10840.622    673.57876     102002.7      46.7237      46.7237      46.7237 
  273000    91.101424   -11745.505   -10845.297    540.09709     102002.7      46.7237      46.7237      46.7237 
  274000    92.862375   -11743.468    -10825.86    488.97746     102002.7      46.7237      46.7237      46.7237 
  275000     92.73329   -11748.069   -10831.736    505.99578     102002.7      46.7237      46.7237      46.7237 
  276000    89.613771   -11749.754   -10864.246    636.40572     102002.7      46.7237      46.7237      46.7237 
  277000    90.966084   -11760.664   -10861.793    658.50812     102002.7      46.7237      46.7237      46.7237 
  278000    89.669925   -11750.905   -10864.842    396.16764     102002.7      46.7237      46.7237      46.7237 
  279000    92.631697   -11754.109    -10838.78    209.51987     102002.7      46.7237      46.7237      46.7237 
  280000    90.494601   -11770.258   -10876.046    554.49919     102002.7      46.7237      46.7237      46.7237 
  281000    91.690909   -11773.484   -10867.451    784.87836     102002.7      46.7237      46.7237      46.7237 
  282000    90.721585   -11771.396   -10874.941    343.11287     102002.7      46.7237      46.7237      46.7237 
  283000    88.968302   -11770.456   -10891.326    575.87203     102002.7      46.7237      46.7237      46.7237 
  284000    90.574763   -11746.489   -10851.485    632.80668     102002.7      46.7237      46.7237      46.7237 
  285000    90.906656   -11761.361   -10863.078    577.14773     102002.7      46.7237      46.7237      46.7237 
  286000    93.448182   -11750.297   -10826.899    391.41905     102002.7      46.7237      46.7237      46.7237 
  287000    90.005671   -11785.038   -10895.657    337.32433     102002.7      46.7237      46.7237      46.7237 
  288000    91.561284   -11742.587   -10837.835    701.58918     102002.7      46.7237      46.7237      46.7237 
  289000    89.815486   -11746.816   -10859.314    578.55832     102002.7      46.7237      46.7237      46.7237 
  290000    92.470844   -11744.639   -10830.899    458.25355     102002.7      46.7237      46.7237      46.7237 
  291000    91.530318   -11762.064   -10857.618    605.69786     102002.7      46.7237      46.7237      46.7237 
  292000    92.089564   -11752.451   -10842.479    628.75055     102002.7      46.7237      46.7237      46.7237 
  293000    89.272953    -11777.79    -10895.65    495.57657     102002.7      46.7237      46.7237      46.7237 
  294000    90.197759   -11764.816   -10873.537    627.43848     102002.7      46.7237      46.7237      46.7237 
  295000    91.694083    -11740.92   -10834.855    762.78003     102002.7      46.7237      46.7237      46.7237 
  296000    91.690755   -11767.672    -10861.64    351.06899     102002.7      46.7237      46.7237      46.7237 
  297000    91.607501    -11754.78   -10849.571    550.66984     102002.7      46.7237      46.7237      46.7237 
  298000    88.144122   -11748.312   -10877.326    514.24077     102002.7      46.7237      46.7237      46.7237 
  299000    93.271733   -11764.925   -10843.271    337.58712     102002.7      46.7237      46.7237      46.7237 
  300000    91.435664   -11769.586   -10866.075    540.35097     102002.7      46.7237      46.7237      46.7237 
  301000    92.676389   -11739.297   -10823.526    588.32178     102002.7      46.7237      46.7237      46.7237 
  302000    91.754289   -11761.355   -10854.696    672.64611     102002.7      46.7237      46.7237      46.7237 
  303000    91.007217   -11756.129   -10856.851    799.17851     102002.7      46.7237      46.7237      46.7237 
  304000    89.757105   -11794.437   -10907.512    469.19913     102002.7      46.7237      46.7237      46.7237 
  305000    92.091871   -11742.547   -10832.552     485.5716     102002.7      46.7237      46.7237      46.7237 
  306000    91.778087   -11743.688   -10836.793    721.10461     102002.7      46.7237      46.7237      46.7237 
  307000    90.670193   -11748.583   -10852.636    555.54676     102002.7      46.7237      46.7237      46.7237 
  308000    89.111343   -11755.759   -10875.215    471.17815     102002.7      46.7237      46.7237      46.7237 
  309000    90.760351   -11761.224   -10864.386     523.2482     102002.7      46.7237      46.7237      46.7237 
  310000    91.268647   -11760.077   -10858.217    762.59293     102002.7      46.7237      46.7237      46.7237 
  311000    90.740462   -11766.587   -10869.945    633.57204     102002.7      46.7237      46.7237      46.7237 
  312000    87.928703   -11743.381   -10874.524    745.19524     102002.7      46.7237      46.7237      46.7237 
  313000    90.533849   -11770.216   -10875.616    531.35334     102002.7      46.7237      46.7237      46.7237 
  314000    91.885112   -11750.093   -10842.141    465.87825     102002.7      46.7237      46.7237      46.7237 
  315000    88.524048   -11770.464   -10895.723    756.76608     102002.7      46.7237      46.7237      46.7237 
  316000     89.79706   -11755.976   -10868.656    437.81756     102002.7      46.7237      46.7237      46.7237 
  317000    93.494071   -11763.593   -10839.742    585.11728     102002.7      46.7237      46.7237      46.7237 
  318000    90.569098   -11751.281   -10856.332    628.73548     102002.7      46.7237      46.7237      46.7237 
  319000    92.993477   -11764.462   -10845.557    661.06433     102002.7      46.7237      46.7237      46.7237 
  320000    92.816514   -11767.431   -10850.275    404.11187     102002.7      46.7237      46.7237      46.7237 
  321000    90.158316   -11776.887   -10885.998    534.04426     102002.7      46.7237      46.7237      46.7237 
  322000     88.05022   -11760.929   -10890.871    477.80088     102002.7      46.7237      46.7237      46.7237 
  323000    91.625822   -11756.707   -10851.317    697.16421     102002.7      46.7237      46.7237      46.7237 
  324000    92.666869     -11755.8   -10840.123    463.82582     102002.7      46.7237      46.7237      46.7237 
  325000    91.213776   -11781.406   -10880.088    472.97339     102002.7      46.7237      46.7237      46.7237 
  326000    91.909694   -11765.418   -10857.223    881.88911     102002.7      46.7237      46.7237      46.7237 
  327000    91.139678   -11780.711   -10880.125    751.40573     102002.7      46.7237      46.7237      46.7237 
  328000    91.238381   -11760.869   -10859.307    435.03334     102002.7      46.7237      46.7237      46.7237 
  329000    90.006533   -11759.001   -10869.612    787.83831     102002.7      46.7237      46.7237      46.7237 
  330000    92.392573       -11757   -10844.033    591.31016     102002.7      46.7237      46.7237      46.7237 
  331000    89.773868   -11758.322   -10871.232     606.3144     102002.7      46.7237      46.7237      46.7237 
  332000     89.11856   -11732.951   -10852.336    732.26241     102002.7      46.7237      46.7237      46.7237 
  333000    90.366704   -11759.286   -10866.338    378.02139     102002.7      46.7237      46.7237      46.7237 
  334000    90.405432   -11749.996   -10856.665    537.45948     102002.7      46.7237      46.7237      46.7237 
  335000     88.75822   -11760.232   -10883.178    687.16893     102002.7      46.7237      46.7237      46.7237 
  336000    90.527023   -11761.893    -10867.36    607.40151     102002.7      46.7237      46.7237      46.7237 
  337000    91.068484   -11761.444   -10861.561    782.61757     102002.7      46.7237      46.7237      46.7237 
  338000    90.391144   -11758.424   -10865.235    676.74829     102002.7      46.7237      46.7237      46.7237 
  339000    90.722755   -11754.982   -10858.515    604.96636     102002.7      46.7237      46.7237      46.7237 
  340000    90.975524   -11743.048   -10844.084    363.33356     102002.7      46.7237      46.7237      46.7237 
  341000    92.409146   -11780.938   -10867.808    447.04081     102002.7      46.7237      46.7237      46.7237 
  342000    94.147269   -11756.668   -10826.363    489.39079     102002.7      46.7237      46.7237      46.7237 
  343000    92.257363   -11742.294   -10830.664    498.30492     102002.7      46.7237      46.7237      46.7237 
  344000    91.041278   -11746.428   -10846.814     713.4043     102002.7      46.7237      46.7237      46.7237 
  345000    91.513684   -11752.378   -10848.096    574.83203     102002.7      46.7237      46.7237      46.7237 
  346000    93.678863   -11760.015   -10834.338    729.34294     102002.7      46.7237      46.7237      46.7237 
  347000      91.1976   -11767.533   -10866.375    579.76723     102002.7      46.7237      46.7237      46.7237 
  348000    87.370008   -11767.647    -10904.31     316.0237     102002.7      46.7237      46.7237      46.7237 
  349000    90.099714   -11758.474   -10868.164    413.50665     102002.7      46.7237      46.7237      46.7237 
  350000    92.212263   -11756.674   -10845.489    739.15936     102002.7      46.7237      46.7237      46.7237 
  351000    89.082586   -11772.114   -10891.854    397.59894     102002.7      46.7237      46.7237      46.7237 
  352000     90.33157   -11761.751    -10869.15    520.48704     102002.7      46.7237      46.7237      46.7237 
  353000    91.271931    -11759.46   -10857.567    662.74313     102002.7      46.7237      46.7237      46.7237 
  354000    88.316617   -11742.779   -10870.089    423.64344     102002.7      46.7237      46.7237      46.7237 
  355000    92.911222    -11771.26   -10853.169    528.64348     102002.7      46.7237      46.7237      46.7237 
  356000    91.112744   -11768.283   -10867.963    330.32405     102002.7      46.7237      46.7237      46.7237 
  357000    91.655083   -11745.867   -10840.188    666.30363     102002.7      46.7237      46.7237      46.7237 
  358000    90.281628   -11789.237    -10897.13    617.20061     102002.7      46.7237      46.7237      46.7237 
  359000    89.097301   -11757.977   -10877.572    623.12424     102002.7      46.7237      46.7237      46.7237 
  360000    89.831475   -11752.501   -10864.842    619.40616     102002.7      46.7237      46.7237      46.7237 
  361000    88.638902   -11757.862   -10881.987    808.43005     102002.7      46.7237      46.7237      46.7237 
  362000    90.696625   -11767.042   -10870.834    719.36847     102002.7      46.7237      46.7237      46.7237 
  363000    93.638052   -11767.462   -10842.189     911.7914     102002.7      46.7237      46.7237      46.7237 
  364000    91.095638   -11787.266   -10887.115    506.25306     102002.7      46.7237      46.7237      46.7237 
  365000     92.20589    -11756.96   -10845.838    503.18383     102002.7      46.7237      46.7237      46.7237 
  366000      91.3252   -11767.764   -10865.345    451.02179     102002.7      46.7237      46.7237      46.7237 
  367000    89.402002   -11753.286   -10869.871    331.54368     102002.7      46.7237      46.7237      46.7237 
  368000    91.119815   -11773.626   -10873.236    464.13173     102002.7      46.7237      46.7237      46.7237 
  369000    89.859792   -11762.227   -10874.288    522.50448     102002.7      46.7237      46.7237      46.7237 
  370000    92.482192   -11755.633   -10841.781     700.8855     102002.7      46.7237      46.7237      46.7237 
  371000    90.461694   -11772.993   -10879.106    451.65506     102002.7      46.7237      46.7237      46.7237 
  372000    91.832367   -11754.528   -10847.097     439.4448     102002.7      46.7237      46.7237      46.7237 
  373000     89.48727    -11766.91   -10882.652    594.30308     102002.7      46.7237      46.7237      46.7237 
  374000    91.222637   -11762.222   -10860.816    558.82454     102002.7      46.7237      46.7237      46.7237 
  375000    90.992822   -11762.374   -10863.238    506.09734     102002.7      46.7237      46.7237      46.7237 
  376000     90.90724   -11768.093   -10869.803    422.72526     102002.7      46.7237      46.7237      46.7237 
  377000    89.546862   -11756.814   -10871.967    469.73152     102002.7      46.7237      46.7237      46.7237 
  378000    92.688885   -11755.606   -10839.712    684.90065     102002.7      46.7237      46.7237      46.7237 
  379000    92.836722   -11761.134   -10843.779    597.41995     102002.7      46.7237      46.7237      46.7237 
  380000    90.717582   -11760.996   -10864.581    629.49664     102002.7      46.7237      46.7237      46.7237 
  381000    90.023048   -11742.619   -10853.067    456.53405     102002.7      46.7237      46.7237      46.7237 
  382000    90.951896   -11769.733   -10871.002    811.05492     102002.7      46.7237      46.7237      46.7237 
  383000    92.275667   -11758.152    -10846.34    734.47636     102002.7      46.7237      46.7237      46.7237 
  384000    89.279393   -11741.554    -10859.35    725.10353     102002.7      46.7237      46.7237      46.7237 
  385000    91.821264   -11745.929   -10838.608    383.15123     102002.7      46.7237      46.7237      46.7237 
  386000    88.850939   -11761.071     -10883.1    494.88127     102002.7      46.7237      46.7237      46.7237 
  387000    92.005472   -11761.057   -10851.916    738.05822     102002.7      46.7237      46.7237      46.7237 
  388000    90.272491   -11774.216   -10882.199    611.14399     102002.7      46.7237      46.7237      46.7237 
  389000      90.2547   -11736.998   -10845.157     563.1889     102002.7      46.7237      46.7237      46.7237 
  390000    92.137201   -11752.828   -10842.385    609.63854     102002.7      46.7237      46.7237      46.7237 
  391000    92.737472   -11772.968   -10856.593     635.5951     102002.7      46.7237      46.7237      46.7237 
  392000    89.233192   -11781.711   -10899.964    622.36398     102002.7      46.7237      46.7237      46.7237 
  393000    92.097491   -11763.354   -10853.303    690.02095     102002.7      46.7237      46.7237      46.7237 
  394000    90.450269   -11748.396   -10854.622    200.04224     102002.7      46.7237      46.7237      46.7237 
  395000    90.425049   -11751.929   -10858.404    702.14957     102002.7      46.7237      46.7237      46.7237 
  396000    91.044436   -11743.136   -10843.491    628.66559     102002.7      46.7237      46.7237      46.7237 
  397000    89.617262    -11755.31   -10869.768    402.21129     102002.7      46.7237      46.7237      46.7237 
  398000     90.69417   -11783.771   -10887.587    556.42935     102002.7      46.7237      46.7237      46.7237 
  399000     92.83623   -11781.106   -10863.755    668.90913     102002.7      46.7237      46.7237      46.7237 
  400000    89.823597    -11781.56   -10893.979    537.66295     102002.7      46.7237      46.7237      46.7237 
  401000    88.283851   -11777.449   -10905.082    462.08931     102002.7      46.7237      46.7237      46.7237 
  402000    90.742015    -11749.59   -10852.934    303.85814     102002.7      46.7237      46.7237      46.7237 
  403000     90.70201   -11784.226   -10887.965    478.14773     102002.7      46.7237      46.7237      46.7237 
  404000    93.370621   -11772.786   -10850.155    768.35063     102002.7      46.7237      46.7237      46.7237 
  405000    90.427725   -11772.187   -10878.635    534.15393     102002.7      46.7237      46.7237      46.7237 
  406000     90.38165   -11755.207   -10862.111    561.73163     102002.7      46.7237      46.7237      46.7237 
  407000    90.062785   -11776.334   -10886.389    428.45773     102002.7      46.7237      46.7237      46.7237 
  408000    92.003624    -11776.55   -10867.427    493.48363     102002.7      46.7237      46.7237      46.7237 
  409000    90.043957   -11751.736   -10861.977    275.55331     102002.7      46.7237      46.7237      46.7237 
  410000    93.529251    -11729.51   -10805.312    714.48077     102002.7      46.7237      46.7237      46.7237 
  411000    91.357074   -11761.184    -10858.45    760.19495     102002.7      46.7237      46.7237      46.7237 
  412000    90.308715   -11758.736    -10866.36    646.44434     102002.7      46.7237      46.7237      46.7237 
  413000      92.2792    -11770.97   -10859.124    549.66336     102002.7      46.7237      46.7237      46.7237 
  414000    91.733501   -11755.939   -10849.485    844.82411     102002.7      46.7237      46.7237      46.7237 
  415000     90.33637   -11754.318    -10861.67    440.17827     102002.7      46.7237      46.7237      46.7237 
  416000    90.447882   -11742.944   -10849.194    597.56382     102002.7      46.7237      46.7237      46.7237 
  417000    94.301595   -11745.924   -10814.093    537.36952     102002.7      46.7237      46.7237      46.7237 
  418000    90.615078   -11759.556   -10864.154    482.85405     102002.7      46.7237      46.7237      46.7237 
  419000     90.43658   -11760.165   -10866.526    387.67403     102002.7      46.7237      46.7237      46.7237 
  420000    89.227667   -11767.115   -10885.422    331.91754     102002.7      46.7237      46.7237      46.7237 
  421000    93.960919   -11735.477   -10807.013    603.85367     102002.7      46.7237      46.7237      46.7237 
  422000    90.976337   -11761.161   -10862.188    703.07458     102002.7      46.7237      46.7237      46.7237 
  423000     92.43679   -11719.615   -10806.211    640.83178     102002.7      46.7237      46.7237      46.7237 
  424000    90.809436   -11757.744   -10860.421    664.78822     102002.7      46.7237      46.7237      46.7237 
  425000    89.200364   -11759.637   -10878.214    516.35977     102002.7      46.7237      46.7237      46.7237 
  426000    90.860045   -11743.323     -10845.5    350.67603     102002.7      46.7237      46.7237      46.7237 
  427000    89.724983   -11744.607       -10858     614.4122     102002.7      46.7237      46.7237      46.7237 
  428000    92.326349   -11723.594   -10811.282     436.0474     102002.7      46.7237      46.7237      46.7237 
  429000    90.491564   -11748.023   -10853.841    898.24995     102002.7      46.7237      46.7237      46.7237 
  430000    93.074227   -11765.792    -10846.09    739.82125     102002.7      46.7237      46.7237      46.7237 
  431000    91.130083   -11756.573   -10856.081    649.66037     102002.7      46.7237      46.7237      46.7237 
  432000    91.363437   -11779.047    -10876.25    691.28087     102002.7      46.7237      46.7237      46.7237 
  433000    92.345463   -11763.039   -10850.538     522.4082     102002.7      46.7237      46.7237      46.7237 
  434000    89.728285   -11747.046   -10860.407     563.8332     102002.7      46.7237      46.7237      46.7237 
  435000    92.636197   -11766.995   -10851.621    715.38555     102002.7      46.7237      46.7237      46.7237 
  436000    91.291646   -11751.791   -10849.703     575.9329     102002.7      46.7237      46.7237      46.7237 
  437000     91.32287   -11770.301   -10867.904    288.22601     102002.7      46.7237      46.7237      46.7237 
  438000    94.963007   -11728.341   -10789.975      626.975     102002.7      46.7237      46.7237      46.7237 
  439000    92.582654   -11778.444   -10863.599    598.13262     102002.7      46.7237      46.7237      46.7237 
  440000    94.592664   -11736.232   -10801.525    648.61273     102002.7      46.7237      46.7237      46.7237 
  441000    89.873896   -11762.081   -10874.003    730.76577     102002.7      46.7237      46.7237      46.7237 
  442000    91.949359    -11746.97   -10838.383    388.83307     102002.7      46.7237      46.7237      46.7237 
  443000    90.406279   -11755.162   -10861.823    488.97314     102002.7      46.7237      46.7237      46.7237 
  444000    89.820741   -11771.654     -10884.1    636.15927     102002.7      46.7237      46.7237      46.7237 
  445000    91.058561   -11722.124   -10822.339    456.88854     102002.7      46.7237      46.7237      46.7237 
  446000    91.704907   -11760.156   -10853.984    537.75472     102002.7      46.7237      46.7237      46.7237 
  447000    90.711951   -11761.845   -10865.486     710.9885     102002.7      46.7237      46.7237      46.7237 
  448000    90.964647   -11727.801   -10828.944    394.43152     102002.7      46.7237      46.7237      46.7237 
  449000    89.935124   -11747.799   -10859.116    528.42061     102002.7      46.7237      46.7237      46.7237 
  450000     92.75059   -11769.094   -10852.589    419.97963     102002.7      46.7237      46.7237      46.7237 
  451000    91.113348   -11753.712   -10853.386    462.43856     102002.7      46.7237      46.7237      46.7237 
  452000    89.385722   -11763.801   -10880.547    363.83519     102002.7      46.7237      46.7237      46.7237 
  453000    89.165926   -11750.931   -10869.849     693.8145     102002.7      46.7237      46.7237      46.7237 
  454000    90.553822   -11773.757    -10878.96    359.59732     102002.7      46.7237      46.7237      46.7237 
  455000    92.126889   -11763.199   -10852.858    579.31349     102002.7      46.7237      46.7237      46.7237 
  456000    90.227197   -11766.665   -10875.096    553.15282     102002.7      46.7237      46.7237      46.7237 
  457000    89.753957   -11751.711   -10864.817     732.4786     102002.7      46.7237      46.7237      46.7237 
  458000    94.803913   -11759.724    -10822.93     320.7975     102002.7      46.7237      46.7237      46.7237 
  459000    91.885395   -11747.804   -10839.849    377.04847     102002.7      46.7237      46.7237      46.7237 
  460000    90.213028   -11757.327   -10865.897    472.62413     102002.7      46.7237      46.7237      46.7237 
  461000    90.209748   -11738.673   -10847.276    535.33299     102002.7      46.7237      46.7237      46.7237 
  462000    89.068715   -11763.424   -10883.302    485.47227     102002.7      46.7237      46.7237      46.7237 
  463000    92.178802   -11736.209   -10825.355    584.67444     102002.7      46.7237      46.7237      46.7237 
  464000    91.326799    -11754.05   -10851.615    423.64695     102002.7      46.7237      46.7237      46.7237 
  465000    92.282536   -11770.437   -10858.558    489.30157     102002.7      46.7237      46.7237      46.7237 
  466000    90.098103   -11739.207   -10848.913     371.5325     102002.7      46.7237      46.7237      46.7237 
  467000    90.228355   -11748.394   -10856.813    372.17195     102002.7      46.7237      46.7237      46.7237 
  468000    91.376112   -11754.071   -10851.148    544.56045     102002.7      46.7237      46.7237      46.7237 
  469000    90.717824   -11765.566   -10869.148    484.66884     102002.7      46.7237      46.7237      46.7237 
  470000    90.004213   -11753.646    -10864.28    503.03438     102002.7      46.7237      46.7237      46.7237 
  471000    92.705878   -11733.715   -10817.653    710.51836     102002.7      46.7237      46.7237      46.7237 
  472000     91.48291   -11746.246   -10842.268    801.05116     102002.7      46.7237      46.7237      46.7237 
  473000    91.875089   -11778.719   -10870.866    407.27206     102002.7      46.7237      46.7237      46.7237 
  474000    90.615472   -11748.642   -10853.235    461.60159     102002.7      46.7237      46.7237      46.7237 
  475000      89.3854   -11760.526   -10877.274    580.26352     102002.7      46.7237      46.7237      46.7237 
  476000    91.505283   -11756.699     -10852.5    521.50446     102002.7      46.7237      46.7237      46.7237 
  477000    90.260497   -11776.779    -10884.88    578.04518     102002.7      46.7237      46.7237      46.7237 
  478000    92.005079   -11772.008    -10862.87     590.2956     102002.7      46.7237      46.7237      46.7237 
  479000    88.300887   -11750.789   -10878.254    551.65705     102002.7      46.7237      46.7237      46.7237 
  480000    89.492562   -11758.301   -10873.991    549.95072     102002.7      46.7237      46.7237      46.7237 
  481000    90.677394    -11761.81   -10865.792    228.54941     102002.7      46.7237      46.7237      46.7237 
  482000     89.72083   -11768.004   -10881.438    388.04902     102002.7      46.7237      46.7237      46.7237 
  483000    92.109312   -11748.035   -10837.867    402.97825     102002.7      46.7237      46.7237      46.7237 
  484000    90.724987   -11757.799   -10861.311    225.57928     102002.7      46.7237      46.7237      46.7237 
  485000    91.880445    -11741.76   -10833.854     570.7896     102002.7      46.7237      46.7237      46.7237 
  486000    88.832002    -11769.91   -10892.127    537.80533     102002.7      46.7237      46.7237      46.7237 
  487000    92.119332   -11772.029   -10861.762    462.11113     102002.7      46.7237      46.7237      46.7237 
  488000     88.85507   -11781.422   -10903.411    420.03914     102002.7      46.7237      46.7237      46.7237 
  489000     92.21514   -11761.846   -10850.633    309.43376     102002.7      46.7237      46.7237      46.7237 
  490000    91.855197   -11747.936    -10840.28     562.0298     102002.7      46.7237      46.7237      46.7237 
  491000    88.992659   -11758.171     -10878.8    839.99945     102002.7      46.7237      46.7237      46.7237 
  492000    90.926915   -11745.269   -10846.785    565.76254     102002.7      46.7237      46.7237      46.7237 
  493000    92.372115   -11736.244   -10823.479    278.93017     102002.7      46.7237      46.7237      46.7237 
  494000     90.79365    -11745.82   -10848.653    386.49082     102002.7      46.7237      46.7237      46.7237 
  495000    89.329815   -11782.701   -10899.999    555.03493     102002.7      46.7237      46.7237      46.7237 
  496000    92.582782   -11757.248   -10842.402    751.33695     102002.7      46.7237      46.7237      46.7237 
  497000    89.778048   -11762.637   -10875.505    687.55772     102002.7      46.7237      46.7237      46.7237 
  498000    91.139523   -11757.497   -10856.912    682.18627     102002.7      46.7237      46.7237      46.7237 
  499000    89.180855   -11767.863   -10886.633    540.94708     102002.7      46.7237      46.7237      46.7237 
  500000    93.311128   -11765.785   -10843.742    716.60125     102002.7      46.7237      46.7237      46.7237 
  500500    91.738279     -11739.5   -10832.999    565.38723     102002.7      46.7237      46.7237      46.7237 
Loop time of 1991.03 on 16 procs for 500000 steps with 3316 atoms

Performance: 21.697 ns/day, 1.106 hours/ns, 251.126 timesteps/s
99.8% CPU use with 16 MPI tasks x no OpenMP threads

MPI task timing breakdown:
Section |  min time  |  avg time  |  max time  |%varavg| %total
---------------------------------------------------------------
Pair    | 887.04     | 1213.6     | 1603.4     | 611.7 | 60.95
Bond    | 119.62     | 174.76     | 209.41     | 194.6 |  8.78
Neigh   | 15.101     | 15.15      | 15.195     |   0.8 |  0.76
Comm    | 144.32     | 569.7      | 950.46     | 982.7 | 28.61
Output  | 0.021803   | 0.022592   | 0.026133   |   0.7 |  0.00
Modify  | 9.2438     | 10.761     | 12.603     |  37.1 |  0.54
Other   |            | 7.022      |            |       |  0.35

Nlocal:    207.25 ave 234 max 169 min
Histogram: 3 0 0 0 3 0 3 3 2 2
Nghost:    4171.88 ave 4208 max 4140 min
Histogram: 1 1 3 4 1 1 1 1 2 1
Neighs:    11466.5 ave 16595 max 5833 min
Histogram: 4 0 1 1 1 1 2 2 1 3

Total # of neighbors = 183464
Ave neighs/atom = 55.3269
Ave special neighs/atom = 3.47407
Neighbor list builds = 4075
Dangerous builds = 0
Neighbor list info ...
  update every 1 steps, delay 10 steps, check yes
  max neighbors/atom: 2000, page size: 100000
  master list distance cutoff = 16
  ghost atom cutoff = 16
  binsize = 8, bins = 6 6 6
  3 neighbor lists, perpetual/occasional/extra = 3 0 0
  (1) pair buck6d/coul/gauss/dsf, perpetual, skip from (3)
      attributes: half, newton on
      pair build: skip
      stencil: none
      bin: none
  (2) pair lj/cut, perpetual, skip from (3)
      attributes: half, newton on
      pair build: skip
      stencil: none
      bin: none
  (3) neighbor class addition, perpetual
      attributes: half, newton on
      pair build: half/bin/newton
      stencil: half/bin/3d/newton
      bin: standard
Setting up Verlet run ...
  Unit style    : real
  Current step  : 500500
  Time step     : 1
WARNING: Inconsistent image flags (../domain.cpp:786)
Per MPI rank memory allocation (min/avg/max) = 22.8 | 23.21 | 23.45 Mbytes
Step Time TotEng KinEng PotEng E_mol E_pair Temp Pxx Pyy Pzz Pxy Pxz Pyz Cella Cellb Cellc CellAlpha CellBeta CellGamma Volume Press 
  500500       500000   -10832.999    906.50128     -11739.5     4146.737   -15886.237    91.738279    709.41659    686.15588    300.58922   -55.185476   -42.687852    225.50888      46.7237      46.7237      46.7237           90           90           90     102002.7    565.38723 
  501000       500500   -10874.469    887.14255   -11761.611    4136.7508   -15898.362    89.779167    882.03621    451.28839    625.63617    159.20896    108.15754   -189.91889      46.7237      46.7237      46.7237           90           90           90     102002.7    652.98692 
  502000       501500   -10852.917    902.78549   -11755.703    4124.1177    -15879.82     91.36224      194.558    852.98111     462.8674   -164.56622    -345.2756   -50.216404      46.7237      46.7237      46.7237           90           90           90     102002.7    503.46884 
  503000       502500   -10884.969    886.12974   -11771.099     4127.641    -15898.74    89.676672     437.8555    782.68486    366.75988   -125.60398     140.2354   -103.48098      46.7237      46.7237      46.7237           90           90           90     102002.7    529.10008 
  504000       503500   -10877.253    878.12483   -11755.377    4130.1756   -15885.553    88.866571    501.20667    957.27542    751.43242    263.49199    145.63069   -2.6186624      46.7237      46.7237      46.7237           90           90           90     102002.7    736.63817 
  505000       504500    -10847.09    912.43106   -11759.521     4134.694   -15894.216    92.338374    75.335727    699.21136     232.1902   -310.53999   -35.956522    114.93082      46.7237      46.7237      46.7237           90           90           90     102002.7     335.5791 
  506000       505500   -10851.764    899.51474   -11751.279     4158.175   -15909.454    91.031238    305.00872     692.1966    699.92915   -136.21477   -321.65108   -40.873639      46.7237      46.7237      46.7237           90           90           90     102002.7    565.71149 
  507000       506500   -10819.339    939.08169   -11758.421    4142.7416   -15901.163    95.035429    925.68437    826.04407    641.85901    208.51475    34.649945   -229.19638      46.7237      46.7237      46.7237           90           90           90     102002.7    797.86249 
  508000       507500   -10867.599    901.12629   -11768.725    4148.7627   -15917.488    91.194328    439.07022    -193.2164       260.17    125.05246    168.59473   -186.79941      46.7237      46.7237      46.7237           90           90           90     102002.7     168.6746 
  509000       508500   -10867.675     896.3949    -11764.07    4145.4904   -15909.561    90.715509    185.75977    861.47104    573.39009   -66.680494    219.08478    110.18713      46.7237      46.7237      46.7237           90           90           90     102002.7    540.20697 
  510000       509500   -10835.775    914.32217   -11750.097    4137.0663   -15887.163    92.529755     470.2843    904.96166    706.02898   -39.510239   -43.269278   -178.75738      46.7237      46.7237      46.7237           90           90           90     102002.7    693.75832 
  511000       510500   -10858.855    895.35786   -11754.213    4136.0171    -15890.23    90.610561     706.0706    424.57054    363.50295   -21.359266   -37.469271   -127.76382      46.7237      46.7237      46.7237           90           90           90     102002.7    498.04803 
  512000       511500   -10836.576    915.54293   -11752.119    4137.7643   -15889.884    92.653298    780.92648    905.03717    756.76318     58.82025   -3.9710677   -191.83574      46.7237      46.7237      46.7237           90           90           90     102002.7    814.24228 
  513000       512500   -10828.569    918.82628   -11747.396    4144.0654   -15891.461    92.985573   -63.797352    372.77784    282.04737    18.519923    62.798914   -179.05115      46.7237      46.7237      46.7237           90           90           90     102002.7    197.00929 
  514000       513500   -10842.936    886.63316   -11729.569    4171.6818   -15901.251    89.727618    842.21048    12.549253    749.96073   -49.025363    -103.6184   -33.065809      46.7237      46.7237      46.7237           90           90           90     102002.7    534.90682 
  515000       514500   -10863.317    894.07344   -11757.391    4136.0948   -15893.485    90.480576    726.48658    680.97702     800.9749    159.13508     234.8825    124.84875      46.7237      46.7237      46.7237           90           90           90     102002.7    736.14617 
  516000       515500   -10836.656    912.01372    -11748.67    4130.5205   -15879.191     92.29614    373.75484    312.46845    782.27987    37.235936   -168.02503     4.791782      46.7237      46.7237      46.7237           90           90           90     102002.7    489.50105 
  517000       516500    -10876.33    876.99329   -11753.323    4142.1767     -15895.5    88.752059    533.39564    544.73668    872.27642    84.638996    157.22616   -147.36711      46.7237      46.7237      46.7237           90           90           90     102002.7    650.13625 
  518000       517500   -10835.296    915.46372    -11750.76    4141.2945   -15892.055    92.645281    276.74902    367.95349    404.32133    18.342662   -125.34894   -7.1401195      46.7237      46.7237      46.7237           90           90           90     102002.7    349.67461 
  519000       518500   -10836.865    905.30188   -11742.167    4145.0679   -15887.235    91.616899    150.38933    421.77876    588.34123   -29.415252   -138.74759   -124.20489      46.7237      46.7237      46.7237           90           90           90     102002.7    386.83644 
  520000       519500   -10887.765    884.76499    -11772.53    4124.3504    -15896.88    89.538558    720.48578    654.08877    593.19643     290.3289    249.61358    97.600664      46.7237      46.7237      46.7237           90           90           90     102002.7    655.92366 
  521000       520500   -10869.502    891.57323   -11761.075    4134.6685   -15895.744    90.227554    715.58141    609.23294    554.63739    -87.22395    328.96851    234.08634      46.7237      46.7237      46.7237           90           90           90     102002.7    626.48391 
  522000       521500   -10876.024    886.98981   -11763.014    4124.9956    -15888.01    89.763711    920.47244    368.20238    679.59433   -238.99601    31.131344    29.881537      46.7237      46.7237      46.7237           90           90           90     102002.7    656.08972 
  523000       522500    -10838.55    930.06721   -11768.617    4135.2119   -15903.829     94.12316    149.01389    639.48345    602.39057    38.588658    -139.7478    84.444835      46.7237      46.7237      46.7237           90           90           90     102002.7    463.62931 
  524000       523500   -10851.391    894.37853    -11745.77     4154.825   -15900.595    90.511452    529.21012    320.47309     318.7482    189.78662    232.19883    109.91073      46.7237      46.7237      46.7237           90           90           90     102002.7    389.47714 
  525000       524500    -10871.04    906.89548   -11777.936    4109.4375   -15887.373    91.778172    694.28329    523.91464    696.91186    64.954106    50.878198     -37.1825      46.7237      46.7237      46.7237           90           90           90     102002.7    638.36993 
  526000       525500   -10845.491     894.4767   -11739.968    4147.5054   -15887.473    90.521387    527.26815    534.38894    858.99592   -129.42127    57.696311   -129.35733      46.7237      46.7237      46.7237           90           90           90     102002.7    640.21767 
  527000       526500   -10832.899    913.93826   -11746.837    4150.3155   -15897.153    92.490903    180.24039    268.55844    504.02918   -68.598794   -195.29277    152.80998      46.7237      46.7237      46.7237           90           90           90     102002.7    317.60934 
  528000       527500   -10865.294    886.69002   -11751.984     4166.387   -15918.371    89.733372    272.07228    126.05288    187.32058    61.650237   -94.286331    215.89996      46.7237      46.7237      46.7237           90           90           90     102002.7    195.14858 
  529000       528500   -10854.743    903.26743    -11758.01    4139.3175   -15897.328    91.411012    518.68217    65.779452    586.43977    115.39001    186.35545     -78.1007      46.7237      46.7237      46.7237           90           90           90     102002.7    390.30046 
  530000       529500   -10870.929    894.03154   -11764.961     4124.159    -15889.12    90.476336    759.46746    360.72151    723.93978    12.186329    79.520096    128.06776      46.7237      46.7237      46.7237           90           90           90     102002.7    614.70959 
  531000       530500   -10871.402     896.3428   -11767.745    4148.3264   -15916.071    90.710237    579.31294    478.46906    624.54524     18.52386   -55.181523   -151.10023      46.7237      46.7237      46.7237           90           90           90     102002.7    560.77575 
  532000       531500   -10828.043    902.48468   -11730.528    4132.7776   -15863.305    91.331797     1118.716    578.87397    727.17436   -111.00148   -109.91142   -149.06591      46.7237      46.7237      46.7237           90           90           90     102002.7    808.25478 
  533000       532500   -10849.935    905.54839   -11755.484    4127.9322   -15883.416    91.641846     531.3028     826.1354    906.00901    405.29033   -130.10776   -76.939874      46.7237      46.7237      46.7237           90           90           90     102002.7     754.4824 
  534000       533500   -10870.871    883.60204   -11754.473    4133.4689   -15887.942    89.420867    430.30673    809.66646    624.88545    81.355277     57.33965    63.726579      46.7237      46.7237      46.7237           90           90           90     102002.7    621.61955 
  535000       534500   -10855.016    906.01123   -11761.027    4131.4994   -15892.526    91.688685    914.87925    719.75343      640.826    80.207681     73.21861    9.7752335      46.7237      46.7237      46.7237           90           90           90     102002.7    758.48623 
  536000       535500   -10848.273    895.51168   -11743.784    4137.1964   -15880.981    90.626127    765.69954    641.85373    964.19665    120.14033     224.2367    121.92443      46.7237      46.7237      46.7237           90           90           90     102002.7    790.58331 
  537000       536500   -10884.196    880.66393    -11764.86    4123.7603    -15888.62    89.123529    288.28038    371.89416    520.75967   -236.88634    135.68412    74.666035      46.7237      46.7237      46.7237           90           90           90     102002.7    393.64474 
  538000       537500   -10846.359    881.81981   -11728.179    4149.8309    -15878.01    89.240505    417.30809    383.23258    1000.1743    88.314053    99.269748   -140.66298      46.7237      46.7237      46.7237           90           90           90     102002.7    600.23832 
  539000       538500   -10884.886    894.73183   -11779.618    4119.4547   -15899.072    90.547206    415.31535     659.9004     837.3526    65.235115    13.086114        45.46      46.7237      46.7237      46.7237           90           90           90     102002.7    637.52278 
  540000       539500   -10849.106    914.15397   -11763.259    4119.4257   -15882.685    92.512734     485.6475    877.06555    619.86075    92.155909    65.851548   -324.92528      46.7237      46.7237      46.7237           90           90           90     102002.7    660.85793 
  541000       540500   -10864.222    903.18562   -11767.408    4129.4554   -15896.863    91.402733    361.75897    684.70688     743.0827    89.416395    25.278444   -113.18383      46.7237      46.7237      46.7237           90           90           90     102002.7    596.51618 
  542000       541500   -10832.584    920.81807   -11753.402      4117.81   -15871.212    93.187143    59.582612    701.85687    528.16515    3.6862435   -241.96624    86.367771      46.7237      46.7237      46.7237           90           90           90     102002.7    429.86821 
  543000       542500   -10882.025    903.01753   -11785.043    4120.3835   -15905.426    91.385721    503.54821    412.80913    749.45671   -197.27118    112.30875    20.793193      46.7237      46.7237      46.7237           90           90           90     102002.7    555.27135 
  544000       543500   -10866.495    887.74442    -11754.24    4129.5265   -15883.766    89.840077    601.92793    473.61199    876.41893    69.640639    136.91224    29.308043      46.7237      46.7237      46.7237           90           90           90     102002.7    650.65295 
  545000       544500   -10835.271    922.62363   -11757.895    4115.5071   -15873.402    93.369867    916.46245    913.75571    479.34646   -164.25285     116.6826    64.913173      46.7237      46.7237      46.7237           90           90           90     102002.7    769.85488 
  546000       545500   -10840.571    913.22051   -11753.792    4134.8584    -15888.65    92.418267    1015.5624     655.4148    563.43693    169.24758   -61.681208    -218.7309      46.7237      46.7237      46.7237           90           90           90     102002.7    744.80471 
  547000       546500   -10881.852    890.81058   -11772.662    4121.0406   -15893.703    90.150374    626.60741    626.31803    487.71551   -87.476253   -10.189879    169.83199      46.7237      46.7237      46.7237           90           90           90     102002.7    580.21365 
  548000       547500   -10847.566    921.25553   -11768.821     4133.791   -15902.612    93.231415    722.49161    955.48325    377.97901    170.53397   -51.998908    34.074681      46.7237      46.7237      46.7237           90           90           90     102002.7    685.31796 
  549000       548500   -10878.128    902.15433   -11780.282     4121.844   -15902.126    91.298365    780.25166    555.47643    802.63316    95.627783   -38.260891   -43.367998      46.7237      46.7237      46.7237           90           90           90     102002.7    712.78708 
  550000       549500    -10865.67    900.63397   -11766.304    4126.4722   -15892.776    91.144504    427.66097    503.24568    387.10361    -3.573278   -130.29305   -158.23532      46.7237      46.7237      46.7237           90           90           90     102002.7    439.33675 
  551000       550500   -10872.882    889.39303   -11762.275    4131.7417   -15894.016    90.006918    698.22773    792.64095    909.27012   -76.662074    185.96706   -12.499076      46.7237      46.7237      46.7237           90           90           90     102002.7    800.04627 
  552000       551500   -10855.586    915.42202   -11771.009    4123.8048   -15894.813    92.641061    56.025749    698.75154    722.43199    32.076665    143.63176   -135.65126      46.7237      46.7237      46.7237           90           90           90     102002.7    492.40309 
  553000       552500   -10857.875     916.4016   -11774.276    4140.2277   -15914.504    92.740195    277.55735    285.26554    508.54783    126.59009      37.6235    43.880054      46.7237      46.7237      46.7237           90           90           90     102002.7    357.12357 
  554000       553500   -10871.603    891.38432   -11762.987    4139.9937   -15902.981    90.208436    555.64032       355.69    719.25735   -83.371523   -182.36609    215.25054      46.7237      46.7237      46.7237           90           90           90     102002.7    543.52922 
  555000       554500   -10862.948    890.56684   -11753.515    4133.3299   -15886.845    90.125708    100.99132    638.41676     319.5216      83.2242    86.208992    -105.3356      46.7237      46.7237      46.7237           90           90           90     102002.7    352.97656 
[...]
  936000       935500   -10867.486    923.18536   -11790.671     4120.238   -15910.909    93.426714    575.96986    362.91653     844.5548   -214.29822    -43.66472   -15.818646      46.7237      46.7237      46.7237           90           90           90     102002.7    594.48039 
  937000       936500   -10850.052    902.28842   -11752.341    4156.9694    -15909.31    91.311936    462.97527    24.292864    346.50945   -11.813778   -130.67902    158.36468      46.7237      46.7237      46.7237           90           90           90     102002.7    277.92586 
  938000       937500   -10866.893     888.5741   -11755.467    4140.9952   -15896.462    89.924042    742.32085    483.17013    457.30618   -54.457207    194.60248    103.22347      46.7237      46.7237      46.7237           90           90           90     102002.7    560.93239 
  939000       938500   -10860.192    893.49991   -11753.692     4136.204   -15889.896    90.422535    257.50171    631.36562    499.70859    163.99329   -181.73175    189.46057      46.7237      46.7237      46.7237           90           90           90     102002.7    462.85864 
  940000       939500   -10831.764    911.79172   -11743.556    4153.2544    -15896.81    92.273673    322.51515     155.3775     793.3606   -169.16587    388.94244       210.08      46.7237      46.7237      46.7237           90           90           90     102002.7    423.75108 
  941000       940500   -10873.945    883.07202   -11757.017    4135.1878   -15892.205    89.367228    531.82061    564.19551    822.48527   -26.369199   -98.667035    -99.45842      46.7237      46.7237      46.7237           90           90           90     102002.7    639.50046 
  942000       941500   -10861.163    906.04557   -11767.208    4123.8406   -15891.049    91.692161    649.76567     319.3186    672.79298    56.416882    82.576746    281.82883      46.7237      46.7237      46.7237           90           90           90     102002.7    547.29242 
  943000       942500   -10872.669    899.60868   -11772.277     4129.417   -15901.694    91.040745    178.70003     185.7697    823.88085    29.333042    96.757301    46.191935      46.7237      46.7237      46.7237           90           90           90     102002.7    396.11686 
  944000       943500   -10848.674    911.06069   -11759.734    4133.1381   -15892.872    92.199692    479.97746    592.06637    1152.3657    90.285737     181.9965   -258.66729      46.7237      46.7237      46.7237           90           90           90     102002.7    741.46985 
  945000       944500   -10868.425    890.63193   -11759.057    4145.0875   -15904.145    90.132294    466.74131    647.75019    602.04529   -230.62771   0.98735888   -125.85022      46.7237      46.7237      46.7237           90           90           90     102002.7    572.17893 
  946000       945500   -10857.695    895.85779   -11753.552    4144.9363   -15898.489    90.661153    299.97212    538.13955     522.0431    182.04702   -64.813921    212.84616      46.7237      46.7237      46.7237           90           90           90     102002.7    453.38492 
  947000       946500   -10866.445    888.81352   -11755.258    4140.8478   -15896.106     89.94827    538.29706    406.33882    709.95547   -119.92508    234.91121    83.522939      46.7237      46.7237      46.7237           90           90           90     102002.7    551.53045 
  948000       947500   -10839.986    918.15744   -11758.143     4135.519   -15893.662    92.917886    448.88792     262.8115    825.33632    144.17417   -139.08219   -90.660898      46.7237      46.7237      46.7237           90           90           90     102002.7    512.34524 
  949000       948500   -10840.216    909.32887   -11749.544    4144.6837   -15894.228    92.024432    757.90591    633.00633    713.60845   -5.2377652   -153.74458    -51.83992      46.7237      46.7237      46.7237           90           90           90     102002.7     701.5069 
  950000       949500   -10831.775    902.28327   -11734.058    4142.9709   -15877.029    91.311414    90.178066     409.0593    868.83684    -42.70396    112.13229     199.6497      46.7237      46.7237      46.7237           90           90           90     102002.7    456.02473 
  951000       950500   -10853.676     893.3742    -11747.05    4131.2049   -15878.255    90.409814    607.96933     241.6612    1049.9292    155.76963    148.05605    63.756595      46.7237      46.7237      46.7237           90           90           90     102002.7    633.18658 
  952000       951500    -10845.93    908.63261   -11754.562    4131.5981    -15886.16    91.953971     568.5558    979.40418    1025.5483   -199.87538    215.59564    178.47771      46.7237      46.7237      46.7237           90           90           90     102002.7    857.83609 
  953000       952500   -10847.914    914.91758   -11762.832    4143.3301   -15906.162    92.590012    242.10169    466.28962    196.23985    141.81346    116.92694   -150.71114      46.7237      46.7237      46.7237           90           90           90     102002.7    301.54372 
  954000       953500   -10865.875    901.69627   -11767.571     4119.832   -15887.403     91.25201    708.20699    583.97567     939.2886    -140.2708    29.163492   -86.916974      46.7237      46.7237      46.7237           90           90           90     102002.7    743.82375 
  955000       954500   -10876.305    882.86198   -11759.167    4147.0099   -15906.176    89.345973    741.81574   -134.17794    604.67492    109.96481    21.270884    189.53145      46.7237      46.7237      46.7237           90           90           90     102002.7    404.10424 
  956000       955500   -10847.378    905.59343   -11752.971    4149.8782   -15902.849    91.646404    586.50958    418.56765    786.23685    65.143993   -121.46765    24.989883      46.7237      46.7237      46.7237           90           90           90     102002.7    597.10469 
  957000       956500   -10864.364    879.13835   -11743.502    4166.1481   -15909.651     88.96914    552.82238    479.59308    1020.0826   -34.760263     106.1924    96.815014      46.7237      46.7237      46.7237           90           90           90     102002.7    684.16602 
  958000       957500   -10853.734    901.68272   -11755.417    4124.4516   -15879.869    91.250639     615.9262    672.88587    631.84488    214.15442     196.3726    -18.85711      46.7237      46.7237      46.7237           90           90           90     102002.7    640.21898 
  959000       958500   -10883.984    890.37746   -11774.361    4141.4165   -15915.777    90.106542    766.18379    405.35273    1023.7847   -149.83425   -126.51303   -70.054509      46.7237      46.7237      46.7237           90           90           90     102002.7    731.77374 
  960000       959500   -10843.215    897.26334   -11740.478    4133.4367   -15873.915    90.803396    527.97083    815.02618     868.9023   -142.75657   -299.89429    95.126399      46.7237      46.7237      46.7237           90           90           90     102002.7    737.29977 
  961000       960500   -10877.085     878.1559   -11755.241     4128.172   -15883.413    88.869716    512.16949    450.25905    672.93559    140.80074   -77.803964    -31.91318      46.7237      46.7237      46.7237           90           90           90     102002.7    545.12138 
  962000       961500   -10830.891    914.02485   -11744.916    4151.7876   -15896.704    92.499666    481.23993    805.31011    510.51762   -96.718585    139.46916   -89.685958      46.7237      46.7237      46.7237           90           90           90     102002.7    599.02255 
  963000       962500    -10884.29    895.61452   -11779.905    4108.6534   -15888.558    90.636534    135.51074    504.88906    970.62037     18.64334    233.74906   -29.490804      46.7237      46.7237      46.7237           90           90           90     102002.7    537.00672 
  964000       963500   -10834.453    891.14037   -11725.594    4146.4096   -15872.003    90.183749     413.9699      533.403    704.73246   -17.573019    -101.7607   -173.07835      46.7237      46.7237      46.7237           90           90           90     102002.7    550.70179 
  965000       964500   -10889.077    894.37877   -11783.456    4117.0692   -15900.525    90.511476    628.80137    535.56768    464.67848   -56.131854   -140.68358    6.0878537      46.7237      46.7237      46.7237           90           90           90     102002.7    543.01584 
  966000       965500   -10841.777    910.93556   -11752.712    4149.7764   -15902.489    92.187029    614.26139    653.09514    710.79107    210.80493    178.97323    259.96132      46.7237      46.7237      46.7237           90           90           90     102002.7    659.38254 
  967000       966500   -10874.976    892.92771   -11767.904    4131.2287   -15899.133    90.364629    566.98939    212.80199    274.11978    427.74556    99.296604    113.87179      46.7237      46.7237      46.7237           90           90           90     102002.7    351.30372 
  968000       967500   -10870.188    894.88693   -11765.075    4131.3255   -15896.401    90.562902    913.91261    1216.5138     631.8049    117.83884   -55.243699    83.441239      46.7237      46.7237      46.7237           90           90           90     102002.7    920.74378 
  969000       968500   -10848.106    902.97026   -11751.077    4156.7169   -15907.793    91.380938    419.43506    701.62997    995.46705      -13.048   -136.05689    44.369881      46.7237      46.7237      46.7237           90           90           90     102002.7    705.51069 
  970000       969500   -10878.094    872.42106   -11750.515    4156.2655    -15906.78    88.289347    232.83911    547.56539    670.21073   -108.10958   -69.066027    79.889302      46.7237      46.7237      46.7237           90           90           90     102002.7    483.53841 
  971000       970500   -10834.301    903.96437   -11738.265    4143.3194   -15881.585    91.481542    845.03706    555.37146    913.24805   -6.9648341     14.82201    99.455541      46.7237      46.7237      46.7237           90           90           90     102002.7    771.21886 
  972000       971500   -10872.129    898.30727   -11770.436    4126.7225   -15897.158    90.909041    675.08864    166.52505    1044.2634   -26.647477    72.171266   -20.178166      46.7237      46.7237      46.7237           90           90           90     102002.7    628.62571 
  973000       972500   -10823.341     909.9288    -11733.27    4154.8332   -15888.103    92.085145    595.87266    202.04429    908.58087   -38.837718    69.209513    128.60432      46.7237      46.7237      46.7237           90           90           90     102002.7     568.8326 
  974000       973500   -10859.328    904.88159    -11764.21    4138.3623   -15902.572    91.574365    438.82168    666.17139    885.64311    154.71414    126.51317   -173.73646      46.7237      46.7237      46.7237           90           90           90     102002.7    663.54539 
  975000       974500   -10850.222    898.31131   -11748.534    4130.2489   -15878.783    90.909451    1030.2461    579.25206    707.79268   -205.68038      239.086    139.13905      46.7237      46.7237      46.7237           90           90           90     102002.7    772.43027 
  976000       975500   -10859.425    903.84393   -11763.269    4136.2379   -15899.507    91.469354    891.08704    446.88595    777.08003   -3.6703898   -55.956822    65.248878      46.7237      46.7237      46.7237           90           90           90     102002.7    705.01767 
  977000       976500    -10856.82    906.64649   -11763.467    4140.2259   -15903.693    91.752974    314.78716    532.08926    877.70925    144.03435    241.40268    128.28465      46.7237      46.7237      46.7237           90           90           90     102002.7    574.86189 
  978000       977500   -10863.476    903.33377    -11766.81    4131.9882   -15898.798    91.417725    425.42474    360.59849    307.21541   -93.786522   -119.40132     123.0182      46.7237      46.7237      46.7237           90           90           90     102002.7    364.41288 
  979000       978500   -10838.899    900.19444   -11739.093    4156.0527   -15895.146    91.100024    243.75445    764.79563    1166.8542    182.45845   -73.671415    25.746831      46.7237      46.7237      46.7237           90           90           90     102002.7    725.13478 
  980000       979500   -10863.493    891.16388   -11754.657    4149.0177   -15903.675    90.186128     140.6268    393.02579    732.29289   -129.39234   0.83644153    52.629988      46.7237      46.7237      46.7237           90           90           90     102002.7    421.98183 
  981000       980500   -10856.718    894.65715   -11751.376    4152.5989   -15903.974    90.539648   -482.23221    127.26138    271.52656    120.47584    140.17295    39.849295      46.7237      46.7237      46.7237           90           90           90     102002.7   -27.814758 
  982000       981500   -10843.408    908.84866   -11752.257    4151.9289   -15904.186    91.975835   -37.370581    648.51732    1043.9731    207.38275   -56.486134    123.94606      46.7237      46.7237      46.7237           90           90           90     102002.7    551.70662 
  983000       982500   -10873.729    889.46405   -11763.193    4142.8806   -15906.074    90.014104    501.13426    320.67786    713.33958   -151.19914   -81.068623    307.03808      46.7237      46.7237      46.7237           90           90           90     102002.7    511.71723 
  984000       983500    -10861.78    885.39337   -11747.173    4155.4045   -15902.578     89.60215     49.53346    581.60905    837.37164   -60.463066    151.32703   -139.04388      46.7237      46.7237      46.7237           90           90           90     102002.7    489.50472 
  985000       984500    -10840.82    897.74521   -11738.566    4150.4401   -15889.006    90.852161    556.94831     396.9893    698.98159    58.699838   -276.63384     194.7673      46.7237      46.7237      46.7237           90           90           90     102002.7    550.97307 
  986000       985500    -10850.78    921.22597   -11772.006    4125.7529   -15897.759    93.228423    419.39114    440.25367    865.24454    155.01236   -106.50188   -3.2569033      46.7237      46.7237      46.7237           90           90           90     102002.7    574.96312 
  987000       986500   -10876.306    892.04525   -11768.351    4119.6135   -15887.965    90.275323    538.98313    202.92231    523.65916    34.985414    -154.2406    243.43824      46.7237      46.7237      46.7237           90           90           90     102002.7    421.85487 
  988000       987500   -10867.813    898.72403   -11766.537    4143.2131    -15909.75    90.951218    828.32161    724.39747    272.77597      88.4866   -97.414736   -111.04155      46.7237      46.7237      46.7237           90           90           90     102002.7    608.49835 
  989000       988500   -10882.387    888.97242    -11771.36    4120.6572   -15892.017    89.964351     384.4349    356.86459    791.43956   -30.182332   -18.880709    73.377585      46.7237      46.7237      46.7237           90           90           90     102002.7    510.91301 
  990000       989500   -10862.396    877.93904   -11740.335    4159.4358    -15899.77    88.847769    430.94306    807.39096    509.00635    13.050921   -114.87104   -27.126659      46.7237      46.7237      46.7237           90           90           90     102002.7    582.44679 
  991000       990500   -10865.605    901.71581   -11767.321    4127.8425   -15895.163    91.253987    669.82925    886.83748    505.99236   -125.94996   -85.074853   -59.385154      46.7237      46.7237      46.7237           90           90           90     102002.7    687.55303 
  992000       991500   -10889.392    888.00146   -11777.393    4123.8604   -15901.253    89.866089    269.23078    488.60323    1143.2195   -115.23376    193.73953   -92.956892      46.7237      46.7237      46.7237           90           90           90     102002.7    633.68451 
  993000       992500   -10867.312    898.84217   -11766.154    4140.1882   -15906.342    90.963174    404.98505    684.96128    807.25777   -105.94972   -130.41801    110.43201      46.7237      46.7237      46.7237           90           90           90     102002.7    632.40137 
  994000       993500   -10838.703    920.28165   -11758.985    4151.7812   -15910.766    93.132858    1028.0009    497.52934    724.45274    31.430624    136.44827    243.44067      46.7237      46.7237      46.7237           90           90           90     102002.7    749.99433 
  995000       994500   -10846.376    898.63462    -11745.01    4160.1037   -15905.114     90.94217    542.87764     448.1683    887.32687   -44.470443    195.88554    200.68241      46.7237      46.7237      46.7237           90           90           90     102002.7    626.12427 
  996000       995500   -10873.323    893.02315   -11766.347    4133.9346   -15900.281    90.374286    861.99362    464.67706    902.99426   -99.977784   -73.834465    115.20355      46.7237      46.7237      46.7237           90           90           90     102002.7    743.22165 
  997000       996500   -10837.384    924.20914   -11761.593    4136.4794   -15898.072    93.530321    319.02361    667.03781    477.10686   -46.454545   -115.57489   -128.09398      46.7237      46.7237      46.7237           90           90           90     102002.7    487.72276 
  998000       997500   -10857.679    890.06054   -11747.739    4142.7024   -15890.441     90.07447    623.12821    715.98483    861.34131   -88.171733   -97.202946    117.68919      46.7237      46.7237      46.7237           90           90           90     102002.7    733.48478 
  999000       998500   -10861.646    895.72192   -11757.367     4138.236   -15895.603    90.647403    422.31314    523.14348    683.20097    121.02838    271.84373    285.66494      46.7237      46.7237      46.7237           90           90           90     102002.7    542.88587 
 1000000       999500   -10867.707    902.49502   -11770.202    4137.0769   -15907.279    91.332843    91.091505    898.43195    431.53195    184.03825   -169.73591   0.41702707      46.7237      46.7237      46.7237           90           90           90     102002.7    473.68513 
 1000500      1000000   -10834.445    917.24275   -11751.688    4149.2603   -15900.948     92.82532    1024.2096    745.64986    977.07232    302.38632   -175.00978    117.20264      46.7237      46.7237      46.7237           90           90           90     102002.7    915.64394 
Loop time of 2429.58 on 16 procs for 500000 steps with 3316 atoms

Performance: 17.781 ns/day, 1.350 hours/ns, 205.797 timesteps/s
99.8% CPU use with 16 MPI tasks x no OpenMP threads

MPI task timing breakdown:
Section |  min time  |  avg time  |  max time  |%varavg| %total
---------------------------------------------------------------
Pair    | 1121.4     | 1538.6     | 2017.4     | 674.4 | 63.33
Bond    | 114.87     | 184.01     | 233.58     | 245.7 |  7.57
Neigh   | 15.164     | 15.212     | 15.259     |   0.8 |  0.63
Comm    | 136.01     | 659.01     | 1144.2     |1141.8 | 27.12
Output  | 0.13896    | 0.14402    | 0.14454    |   0.3 |  0.01
Modify  | 23.868     | 25.522     | 27.289     |  23.8 |  1.05
Other   |            | 7.107      |            |       |  0.29

Nlocal:    207.25 ave 247 max 159 min
Histogram: 1 1 2 1 3 0 3 1 2 2
Nghost:    4176.31 ave 4221 max 4134 min
Histogram: 2 1 2 3 0 1 1 3 2 1
Neighs:    11464.1 ave 18284 max 4634 min
Histogram: 1 2 3 2 1 1 0 2 0 4

Total # of neighbors = 183425
Ave neighs/atom = 55.3151
Ave special neighs/atom = 3.47407
Neighbor list builds = 4064
Dangerous builds = 0
Total wall time: 1:13:45
