LAMMPS (30 Mar 2018)
Reading data file ...
  orthogonal box = (0 0 0) to (46.7237 46.7237 46.7237)
  2 by 2 by 4 MPI processor grid
  reading atoms ...
  1734 atoms
  scanning bonds ...
  5 = max bonds/atom
  scanning angles ...
  10 = max angles/atom
  scanning dihedrals ...
  32 = max dihedrals/atom
  scanning impropers ...
  3 = max impropers/atom
  reading bonds ...
  2064 bonds
  reading angles ...
  3696 angles
  reading dihedrals ...
  6240 dihedrals
  reading impropers ...
  1008 impropers
Finding 1-2 1-3 1-4 neighbors ...
  special bond factors lj:   0          0          0         
  special bond factors coul: 0          0          0         
  5 = max # of 1-2 neighbors
  8 = max # of 1-3 neighbors
  20 = max # of 1-4 neighbors
  19 = max # of special neighbors
Finding 1-2 1-3 1-4 neighbors ...
  special bond factors lj:   0          0          1         
  special bond factors coul: 1          1          1         
  5 = max # of 1-2 neighbors
  8 = max # of 1-3 neighbors
  19 = max # of special neighbors
WARNING: Using 'neigh_modify every 1 delay 0 check yes' setting during minimization (../min.cpp:168)
Neighbor list info ...
  update every 1 steps, delay 0 steps, check yes
  max neighbors/atom: 2000, page size: 100000
  master list distance cutoff = 16
  ghost atom cutoff = 16
  binsize = 8, bins = 6 6 6
  3 neighbor lists, perpetual/occasional/extra = 3 0 0
  (1) pair buck6d/coul/gauss/dsf, perpetual, skip from (3)
      attributes: half, newton on
      pair build: skip
      stencil: none
      bin: none
  (2) pair lj/cut, perpetual, skip from (3)
      attributes: half, newton on
      pair build: skip
      stencil: none
      bin: none
  (3) neighbor class addition, perpetual
      attributes: half, newton on
      pair build: half/bin/newton
      stencil: half/bin/3d/newton
      bin: standard
Setting up cg style minimization ...
  Unit style    : real
  Current step  : 0
WARNING: Inconsistent image flags (../domain.cpp:786)
Per MPI rank memory allocation (min/avg/max) = 22.89 | 23.35 | 23.79 Mbytes
Step Temp E_pair E_mol TotEng Press 
       0            0   -11529.471    6482.8914   -5046.5795    6285.0537 
     503            0   -11552.559    3736.4618   -7816.0971   -478.22165 
Loop time of 2.73448 on 16 procs for 503 steps with 1734 atoms

99.8% CPU use with 16 MPI tasks x no OpenMP threads

Minimization stats:
  Stopping criterion = max force evaluations
  Energy initial, next-to-last, final = 
        -5046.57946325     -7816.07716077     -7816.09713247
  Force two-norm initial, final = 2577 6.58028
  Force max component initial, final = 152.068 0.787168
  Final line search alpha, max atom move = 0.0146779 0.011554
  Iterations, force evaluations = 503 1000

MPI task timing breakdown:
Section |  min time  |  avg time  |  max time  |%varavg| %total
---------------------------------------------------------------
Pair    | 1.1842     | 1.5691     | 1.9076     |  17.5 | 57.38
Bond    | 0.31977    | 0.36167    | 0.43699    |   5.1 | 13.23
Neigh   | 0.01519    | 0.015287   | 0.015416   |   0.1 |  0.56
Comm    | 0.42389    | 0.74897    | 1.1209     |  24.5 | 27.39
Output  | 0          | 0          | 0          |   0.0 |  0.00
Modify  | 0          | 0          | 0          |   0.0 |  0.00
Other   |            | 0.03944    |            |       |  1.44

Nlocal:    108.375 ave 124 max 100 min
Histogram: 5 0 3 2 1 1 3 0 0 1
Nghost:    2189.75 ave 2199 max 2174 min
Histogram: 1 0 1 2 1 1 2 3 2 3
Neighs:    11434.8 ave 15179 max 7745 min
Histogram: 2 3 1 1 1 1 1 2 2 2

Total # of neighbors = 182956
Ave neighs/atom = 105.511
Ave special neighs/atom = 6.6436
Neighbor list builds = 13
Dangerous builds = 0
Neighbor list info ...
  update every 1 steps, delay 10 steps, check yes
  max neighbors/atom: 2000, page size: 100000
  master list distance cutoff = 16
  ghost atom cutoff = 16
  binsize = 8, bins = 6 6 6
  3 neighbor lists, perpetual/occasional/extra = 3 0 0
  (1) pair buck6d/coul/gauss/dsf, perpetual, skip from (3)
      attributes: half, newton on
      pair build: skip
      stencil: none
      bin: none
  (2) pair lj/cut, perpetual, skip from (3)
      attributes: half, newton on
      pair build: skip
      stencil: none
      bin: none
  (3) neighbor class addition, perpetual
      attributes: half, newton on
      pair build: half/bin/newton
      stencil: half/bin/3d/newton
      bin: standard
Setting up Verlet run ...
  Unit style    : real
  Current step  : 503
  Time step     : 1
WARNING: Inconsistent image flags (../domain.cpp:786)
Per MPI rank memory allocation (min/avg/max) = 22.54 | 22.61 | 22.73 Mbytes
Step Temp PotEng TotEng Press Volume Lx Ly Lz 
     503          130   -7816.0971   -7144.5504   -177.26954     102002.7      46.7237      46.7237      46.7237 
    1000    116.75847   -7228.8955   -6625.7512   -904.88562     102002.7      46.7237      46.7237      46.7237 
    2000    127.36713   -7093.8039    -6435.858    -698.7006     102002.7      46.7237      46.7237      46.7237 
    3000    125.51702   -7114.7738    -6466.385   -1195.0095     102002.7      46.7237      46.7237      46.7237 
    4000    125.69718   -7127.6893   -6478.3699   -612.31811     102002.7      46.7237      46.7237      46.7237 
    5000    132.54707   -7129.2089   -6444.5047   -706.38202     102002.7      46.7237      46.7237      46.7237 
    6000    126.36384   -7152.5443   -6499.7811   -807.20879     102002.7      46.7237      46.7237      46.7237 
    7000    131.96213   -7123.7593   -6442.0767   -586.03577     102002.7      46.7237      46.7237      46.7237 
    8000    128.54463   -7120.0943   -6456.0657   -668.13156     102002.7      46.7237      46.7237      46.7237 
    9000    130.83448   -7140.9631   -6465.1057   -546.96919     102002.7      46.7237      46.7237      46.7237 
   10000    132.21183   -7126.2682   -6443.2957   -671.95943     102002.7      46.7237      46.7237      46.7237 
   11000    129.16918   -7141.0295   -6473.7746   -514.11621     102002.7      46.7237      46.7237      46.7237 
   12000    131.98876   -7110.7935   -6428.9734   -831.96536     102002.7      46.7237      46.7237      46.7237 
   13000    130.21168   -7132.6174   -6459.9772   -1147.8554     102002.7      46.7237      46.7237      46.7237 
   14000    131.55659   -7149.3079   -6469.7203   -865.98817     102002.7      46.7237      46.7237      46.7237 
   15000    133.18135   -7133.4145   -6445.4337   -834.91774     102002.7      46.7237      46.7237      46.7237 
   16000    129.55731   -7147.7499   -6478.4901   -819.22986     102002.7      46.7237      46.7237      46.7237 
   17000    131.40704   -7129.0572   -6450.2421   -405.07624     102002.7      46.7237      46.7237      46.7237 
   18000    127.32634   -7137.7518   -6480.0165   -792.84384     102002.7      46.7237      46.7237      46.7237 
   19000     129.6489   -7130.4524   -6460.7194    -652.9248     102002.7      46.7237      46.7237      46.7237 
   20000    131.12634   -7154.8233   -6477.4583    -771.0796     102002.7      46.7237      46.7237      46.7237 
   21000    128.83086   -7123.0593   -6457.5521   -595.97992     102002.7      46.7237      46.7237      46.7237 
   22000    128.56633   -7123.3197    -6459.179   -959.15998     102002.7      46.7237      46.7237      46.7237 
   23000    128.43739   -7141.7621   -6478.2874   -499.01914     102002.7      46.7237      46.7237      46.7237 
   24000    131.58692   -7126.8188   -6447.0745   -335.75043     102002.7      46.7237      46.7237      46.7237 
   25000     132.8532   -7130.3012   -6444.0156   -580.16366     102002.7      46.7237      46.7237      46.7237 
   26000    133.19907   -7149.3274   -6461.2551   -560.27612     102002.7      46.7237      46.7237      46.7237 
   27000    130.05549   -7127.4465   -6455.6131   -366.97884     102002.7      46.7237      46.7237      46.7237 
   28000    127.86986   -7123.6249    -6463.082   -606.34198     102002.7      46.7237      46.7237      46.7237 
   29000    129.08248   -7100.1559   -6433.3489   -509.75807     102002.7      46.7237      46.7237      46.7237 
   30000    127.38697   -7115.5507   -6457.5022   -60.002357     102002.7      46.7237      46.7237      46.7237 
   31000    127.22016   -7136.3228   -6479.1361   -636.43749     102002.7      46.7237      46.7237      46.7237 
   32000    127.79073   -7099.5914   -6439.4572   -540.42808     102002.7      46.7237      46.7237      46.7237 
   33000    129.21888   -7169.9579   -6502.4463    -506.9449     102002.7      46.7237      46.7237      46.7237 
   34000    131.05135   -7144.9812   -6468.0035   -685.47861     102002.7      46.7237      46.7237      46.7237 
   35000    134.42144   -7124.0031   -6429.6163   -827.28413     102002.7      46.7237      46.7237      46.7237 
   36000    130.41511   -7155.0674   -6481.3764   -871.04102     102002.7      46.7237      46.7237      46.7237 
   37000    126.77622   -7115.9494   -6461.0559   -1132.2951     102002.7      46.7237      46.7237      46.7237 
   38000     134.5046   -7127.0675   -6432.2512   -950.99849     102002.7      46.7237      46.7237      46.7237 
   39000    126.89495   -7138.0883   -6482.5815   -879.30929     102002.7      46.7237      46.7237      46.7237 
   40000    127.38025   -7120.0732   -6462.0595   -836.10656     102002.7      46.7237      46.7237      46.7237 
   41000    133.86383   -7121.6322   -6430.1259    -643.5739     102002.7      46.7237      46.7237      46.7237 
   42000    132.88583   -7148.3301   -6461.8759   -297.33569     102002.7      46.7237      46.7237      46.7237 
   43000    131.64347   -7128.2071   -6448.1707   -488.62222     102002.7      46.7237      46.7237      46.7237 
   44000    132.34719   -7146.8516   -6463.1799   -636.87101     102002.7      46.7237      46.7237      46.7237 
   45000    131.49736   -7135.7649   -6456.4833   -672.16659     102002.7      46.7237      46.7237      46.7237 
   46000     132.0866    -7131.084   -6448.7585   -1051.2715     102002.7      46.7237      46.7237      46.7237 
   47000    126.76076   -7161.5243   -6506.7107   -562.95249     102002.7      46.7237      46.7237      46.7237 
   48000    128.73718   -7128.0262    -6463.003   -724.25976     102002.7      46.7237      46.7237      46.7237 
   49000    128.47883   -7123.3738   -6459.6851    -617.5192     102002.7      46.7237      46.7237      46.7237 
   50000     130.2144   -7134.3384   -6461.6841    -630.4745     102002.7      46.7237      46.7237      46.7237 
   51000    127.23535   -7142.9555   -6485.6903   -689.43502     102002.7      46.7237      46.7237      46.7237 
   52000    132.19069   -7128.0077   -6445.1444   -408.08591     102002.7      46.7237      46.7237      46.7237 
   53000    128.37195   -7122.5693   -6459.4327    -719.6079     102002.7      46.7237      46.7237      46.7237 
   54000    125.07143   -7151.8747   -6505.7877   -726.63461     102002.7      46.7237      46.7237      46.7237 
   55000    129.37505   -7117.6888   -6449.3704   -653.91122     102002.7      46.7237      46.7237      46.7237 
   56000    130.94427    -7170.473   -6494.0484   -746.80924     102002.7      46.7237      46.7237      46.7237 
   57000    127.44237   -7120.5573   -6462.2227   -434.37299     102002.7      46.7237      46.7237      46.7237 
   58000    132.92455   -7121.2136   -6434.5594   -1081.6063     102002.7      46.7237      46.7237      46.7237 
   59000    130.17009    -7148.405   -6475.9797     -926.293     102002.7      46.7237      46.7237      46.7237 
   60000    130.86142   -7111.4099   -6435.4134   -738.27095     102002.7      46.7237      46.7237      46.7237 
   61000     128.1392   -7137.0132   -6475.0789    -955.3819     102002.7      46.7237      46.7237      46.7237 
   62000    133.17554    -7124.854   -6436.9032   -602.53089     102002.7      46.7237      46.7237      46.7237 
   63000    127.84272    -7146.396   -6485.9932   -530.32942     102002.7      46.7237      46.7237      46.7237 
   64000    134.54962   -7143.2296   -6448.1808   -701.14919     102002.7      46.7237      46.7237      46.7237 
   65000     125.0682   -7141.8452    -6495.775    -563.0655     102002.7      46.7237      46.7237      46.7237 
   66000    131.01988   -7129.0395   -6452.2244    -744.4415     102002.7      46.7237      46.7237      46.7237 
   67000    128.58306    -7131.643   -6467.4159   -520.57758     102002.7      46.7237      46.7237      46.7237 
   68000    132.47047   -7130.5597   -6446.2512   -575.01741     102002.7      46.7237      46.7237      46.7237 
   69000    124.68568   -7156.7253    -6512.631   -489.26407     102002.7      46.7237      46.7237      46.7237 
   70000    128.11352   -7108.6627   -6446.8611   -678.16399     102002.7      46.7237      46.7237      46.7237 
   71000    131.15949   -7139.4486   -6461.9123   -483.44955     102002.7      46.7237      46.7237      46.7237 
   72000    128.41068   -7134.0307   -6470.6941   -622.57821     102002.7      46.7237      46.7237      46.7237 
   73000      127.744    -7107.465   -6447.5722   -792.05512     102002.7      46.7237      46.7237      46.7237 
   74000    129.36354   -7128.6996   -6460.4407    -893.5234     102002.7      46.7237      46.7237      46.7237 
   75000    132.37822   -7158.1929   -6474.3609   -728.02183     102002.7      46.7237      46.7237      46.7237 
   76000    131.94229    -7150.384   -6468.8039   -872.46096     102002.7      46.7237      46.7237      46.7237 
   77000     131.6197   -7140.9351   -6461.0214   -712.18735     102002.7      46.7237      46.7237      46.7237 
   78000    131.94437   -7112.5649    -6430.974   -733.59169     102002.7      46.7237      46.7237      46.7237 
   79000    132.34772   -7141.9907   -6458.3163   -527.38448     102002.7      46.7237      46.7237      46.7237 
   80000    131.68703   -7145.0499   -6464.7885   -584.20249     102002.7      46.7237      46.7237      46.7237 
   81000    131.28373   -7139.0364   -6460.8583   -884.27668     102002.7      46.7237      46.7237      46.7237 
   82000    132.97979   -7119.1698   -6432.2303   -767.31642     102002.7      46.7237      46.7237      46.7237 
   83000    127.45383   -7116.9179    -6458.524   -863.79678     102002.7      46.7237      46.7237      46.7237 
   84000    128.67854   -7143.4217   -6478.7013   -845.57334     102002.7      46.7237      46.7237      46.7237 
   85000    131.58395   -7127.9488   -6448.2199   -839.88279     102002.7      46.7237      46.7237      46.7237 
   86000    128.79718   -7149.4731   -6484.1399   -552.83919     102002.7      46.7237      46.7237      46.7237 
   87000    132.16475   -7132.0413   -6449.3121   -918.10788     102002.7      46.7237      46.7237      46.7237 
   88000    125.39921    -7155.847   -6508.0668   -728.15156     102002.7      46.7237      46.7237      46.7237 
   89000    132.42865   -7130.3514   -6446.2589   -735.98164     102002.7      46.7237      46.7237      46.7237 
   90000    126.91824   -7119.2326   -6463.6055   -879.60297     102002.7      46.7237      46.7237      46.7237 
   91000    134.58211    -7129.289   -6434.0723   -815.00002     102002.7      46.7237      46.7237      46.7237 
   92000    131.87862   -7130.6836   -6449.4324   -765.78994     102002.7      46.7237      46.7237      46.7237 
   93000    127.51826   -7138.0384   -6479.3117   -711.42497     102002.7      46.7237      46.7237      46.7237 
   94000    124.20688   -7096.8781   -6455.2571   -929.61666     102002.7      46.7237      46.7237      46.7237 
   95000    129.87889   -7126.9848   -6456.0637   -722.93386     102002.7      46.7237      46.7237      46.7237 
   96000     127.7704   -7108.1748   -6448.1456   -758.79921     102002.7      46.7237      46.7237      46.7237 
   97000     131.8829    -7140.903   -6459.6298    -680.3421     102002.7      46.7237      46.7237      46.7237 
   98000    128.91813   -7150.1333   -6484.1752    -735.4608     102002.7      46.7237      46.7237      46.7237 
   99000    132.23653   -7116.6923   -6433.5923   -543.68905     102002.7      46.7237      46.7237      46.7237 
  100000    128.32256   -7145.4239   -6482.5424   -408.92668     102002.7      46.7237      46.7237      46.7237 
  101000    133.44565   -7145.9003   -6456.5543   -627.17513     102002.7      46.7237      46.7237      46.7237 
  102000    132.25678   -7130.6707    -6447.466   -665.88934     102002.7      46.7237      46.7237      46.7237 
  103000    128.05477   -7144.7301    -6483.232   -621.75662     102002.7      46.7237      46.7237      46.7237 
  104000    132.49858   -7150.2884   -6465.8347   -232.86754     102002.7      46.7237      46.7237      46.7237 
  105000    126.91362   -7163.8113   -6508.2081   -842.62901     102002.7      46.7237      46.7237      46.7237 
  106000    132.37401   -7136.9145   -6453.1043   -762.77655     102002.7      46.7237      46.7237      46.7237 
  107000    131.59571   -7154.1126   -6474.3228   -583.12326     102002.7      46.7237      46.7237      46.7237 
  108000    130.65951   -7133.4105    -6458.457   -782.58286     102002.7      46.7237      46.7237      46.7237 
  109000     129.7334   -7125.1972   -6455.0277   -579.60213     102002.7      46.7237      46.7237      46.7237 
  110000    131.37346   -7107.4441   -6428.8025   -932.25711     102002.7      46.7237      46.7237      46.7237 
  111000    132.34146    -7127.406   -6443.7639   -934.65913     102002.7      46.7237      46.7237      46.7237 
  112000    130.21654   -7140.0278   -6467.3625   -954.06216     102002.7      46.7237      46.7237      46.7237 
  113000    130.24608   -7122.1807   -6449.3628   -615.41894     102002.7      46.7237      46.7237      46.7237 
  114000    131.43624   -7106.8281   -6427.8621   -394.19878     102002.7      46.7237      46.7237      46.7237 
  115000    128.68636    -7141.426   -6476.6653   -584.82936     102002.7      46.7237      46.7237      46.7237 
  116000     131.9567   -7145.7318   -6464.0772   -397.19489     102002.7      46.7237      46.7237      46.7237 
  117000    129.86107   -7126.5631   -6455.7341   -538.93122     102002.7      46.7237      46.7237      46.7237 
  118000    125.55076   -7154.1671   -6505.6041   -574.39969     102002.7      46.7237      46.7237      46.7237 
  119000    128.18673    -7111.197   -6449.0172   -814.06942     102002.7      46.7237      46.7237      46.7237 
  120000    131.71158   -7142.1975   -6461.8092   -655.79761     102002.7      46.7237      46.7237      46.7237 
  121000    128.70823   -7144.0704   -6479.1967   -514.85215     102002.7      46.7237      46.7237      46.7237 
  122000    132.22513   -7137.7174   -6454.6763   -743.80367     102002.7      46.7237      46.7237      46.7237 
  123000    126.92638   -7140.0918   -6484.4226   -854.57841     102002.7      46.7237      46.7237      46.7237 
  124000    126.86726   -7102.9659   -6447.6021    -568.7645     102002.7      46.7237      46.7237      46.7237 
  125000    129.97308   -7137.2598   -6465.8521   -758.41516     102002.7      46.7237      46.7237      46.7237 
  126000    135.05136   -7145.0712   -6447.4305   -583.08129     102002.7      46.7237      46.7237      46.7237 
  127000    130.22845   -7136.4819   -6463.7551   -771.56619     102002.7      46.7237      46.7237      46.7237 
  128000    131.29231   -7139.1299   -6460.9075   -988.95633     102002.7      46.7237      46.7237      46.7237 
  129000    130.70049   -7135.6644   -6460.4992   -653.20709     102002.7      46.7237      46.7237      46.7237 
  130000    125.30138   -7119.4998    -6472.225   -792.43381     102002.7      46.7237      46.7237      46.7237 
  131000    130.90642   -7122.7876   -6446.5585   -792.91782     102002.7      46.7237      46.7237      46.7237 
  132000    129.40941   -7151.5213   -6483.0254   -560.48196     102002.7      46.7237      46.7237      46.7237 
  133000    130.76654   -7158.1219   -6482.6155   -712.19991     102002.7      46.7237      46.7237      46.7237 
  134000      132.149   -7135.2128   -6452.5649   -793.59565     102002.7      46.7237      46.7237      46.7237 
  135000    125.00179   -7141.1598   -6495.4326   -803.87326     102002.7      46.7237      46.7237      46.7237 
  136000    131.58802   -7124.3307   -6444.5807   -762.26356     102002.7      46.7237      46.7237      46.7237 
  137000    126.72043   -7139.5117   -6484.9064   -713.15664     102002.7      46.7237      46.7237      46.7237 
  138000    128.27143   -7136.0988   -6473.4815   -648.42964     102002.7      46.7237      46.7237      46.7237 
  139000    130.61963   -7120.9583   -6446.2108   -1009.6518     102002.7      46.7237      46.7237      46.7237 
  140000    128.09664    -7149.936   -6488.2215   -798.53455     102002.7      46.7237      46.7237      46.7237 
  141000    127.89717   -7118.5722   -6457.8882   -621.85854     102002.7      46.7237      46.7237      46.7237 
  142000     132.4578   -7108.9633   -6424.7203   -592.34455     102002.7      46.7237      46.7237      46.7237 
  143000     129.3611   -7145.2362   -6476.9899   -438.25892     102002.7      46.7237      46.7237      46.7237 
  144000    129.47605   -7138.4569   -6469.6167   -551.00679     102002.7      46.7237      46.7237      46.7237 
  145000    129.10311   -7126.6633   -6459.7497   -566.64299     102002.7      46.7237      46.7237      46.7237 
  146000    128.73501   -7124.5223   -6459.5102   -632.53172     102002.7      46.7237      46.7237      46.7237 
  147000    132.68912   -7117.5893   -6432.1513   -556.85578     102002.7      46.7237      46.7237      46.7237 
  148000    130.82372   -7141.5004   -6465.6986   -970.71859     102002.7      46.7237      46.7237      46.7237 
  149000    131.61716   -7128.8008   -6448.9003   -635.44664     102002.7      46.7237      46.7237      46.7237 
  150000    131.33296   -7120.4118   -6441.9794   -884.83657     102002.7      46.7237      46.7237      46.7237 
  151000    125.93312   -7139.2599   -6488.7217   -626.27646     102002.7      46.7237      46.7237      46.7237 
  152000    133.70672   -7148.8829   -6458.1882   -851.42181     102002.7      46.7237      46.7237      46.7237 
  153000     130.9725   -7119.3734    -6442.803    -819.4572     102002.7      46.7237      46.7237      46.7237 
  154000    129.70545   -7150.2676   -6480.2425   -481.31719     102002.7      46.7237      46.7237      46.7237 
  155000    129.38426    -7127.792   -6459.4261   -802.65463     102002.7      46.7237      46.7237      46.7237 
  156000    131.81863   -7164.0279   -6483.0866   -619.03463     102002.7      46.7237      46.7237      46.7237 
  157000    133.42727   -7162.7017   -6473.4506   -767.67187     102002.7      46.7237      46.7237      46.7237 
  158000    136.04865   -7137.5712   -6434.7788    -471.0907     102002.7      46.7237      46.7237      46.7237 
  159000     130.1911   -7130.3777   -6457.8438   -680.93394     102002.7      46.7237      46.7237      46.7237 
  160000    127.84835   -7127.0587   -6466.6268   -694.17808     102002.7      46.7237      46.7237      46.7237 
  161000    134.14667   -7123.1049   -6430.1376   -776.86042     102002.7      46.7237      46.7237      46.7237 
  162000    133.89702   -7142.8084   -6451.1306   -646.56071     102002.7      46.7237      46.7237      46.7237 
  163000    127.50803   -7158.6318    -6499.958   -566.54283     102002.7      46.7237      46.7237      46.7237 
  164000    129.14914   -7125.4912   -6458.3398   -896.06476     102002.7      46.7237      46.7237      46.7237 
  165000    130.43614   -7140.3708   -6466.5711   -635.94852     102002.7      46.7237      46.7237      46.7237 
  166000    127.93194   -7140.1104   -6479.2468    -581.6253     102002.7      46.7237      46.7237      46.7237 
  167000    129.01728   -7127.7936   -6461.3234   -937.59794     102002.7      46.7237      46.7237      46.7237 
  168000    132.55177    -7120.124   -6435.3955   -645.43264     102002.7      46.7237      46.7237      46.7237 
  169000    128.21363   -7140.3234   -6478.0046   -852.79787     102002.7      46.7237      46.7237      46.7237 
  170000     125.3365   -7132.4834   -6485.0272   -568.37428     102002.7      46.7237      46.7237      46.7237 
  171000    129.14625   -7128.1824   -6461.0459    -843.2384     102002.7      46.7237      46.7237      46.7237 
  172000    127.88442    -7137.904   -6477.2859   -473.11884     102002.7      46.7237      46.7237      46.7237 
  173000    133.08776   -7127.5544   -6440.0571     -624.123     102002.7      46.7237      46.7237      46.7237 
  174000    130.57466   -7112.8315   -6438.3163   -420.11397     102002.7      46.7237      46.7237      46.7237 
  175000    130.92691   -7143.6688   -6467.3339   -507.43769     102002.7      46.7237      46.7237      46.7237 
  176000    134.54639   -7118.2546   -6423.2224   -346.47251     102002.7      46.7237      46.7237      46.7237 
  177000    129.79222   -7132.1288   -6461.6554   -690.34263     102002.7      46.7237      46.7237      46.7237 
  178000    129.49123   -7136.6968   -6467.7783   -768.40758     102002.7      46.7237      46.7237      46.7237 
  179000    135.13811   -7133.4316   -6435.3428   -546.60346     102002.7      46.7237      46.7237      46.7237 
  180000    130.70165   -7118.4221   -6443.2509     -708.016     102002.7      46.7237      46.7237      46.7237 
  181000    129.25371   -7130.0097   -6462.3181   -702.38275     102002.7      46.7237      46.7237      46.7237 
  182000    125.57514   -7144.6182   -6495.9292     -612.843     102002.7      46.7237      46.7237      46.7237 
  183000    130.32993   -7132.8606   -6459.6095   -651.57157     102002.7      46.7237      46.7237      46.7237 
  184000    133.00397   -7127.1948   -6440.1304   -648.66721     102002.7      46.7237      46.7237      46.7237 
  185000    132.63127   -7131.7962    -6446.657   -524.98379     102002.7      46.7237      46.7237      46.7237 
  186000    130.83745   -7119.3283   -6443.4555   -511.62436     102002.7      46.7237      46.7237      46.7237 
  187000    132.70243   -7140.1243   -6454.6175   -639.28236     102002.7      46.7237      46.7237      46.7237 
  188000    130.03737   -7152.4278   -6480.6881   -449.55453     102002.7      46.7237      46.7237      46.7237 
  189000    124.22746   -7129.6403    -6487.913   -693.68462     102002.7      46.7237      46.7237      46.7237 
  190000    129.34505   -7124.1695   -6456.0061   -705.52597     102002.7      46.7237      46.7237      46.7237 
  191000    129.39921   -7116.4628   -6448.0197   -675.49079     102002.7      46.7237      46.7237      46.7237 
  192000    123.64375   -7172.5637   -6533.8518   -588.43182     102002.7      46.7237      46.7237      46.7237 
  193000    130.66113   -7119.8936   -6444.9316   -671.55381     102002.7      46.7237      46.7237      46.7237 
  194000    130.89799    -7154.777   -6478.5916   -626.07805     102002.7      46.7237      46.7237      46.7237 
  195000    133.38323   -7142.4583   -6453.4346   -682.01842     102002.7      46.7237      46.7237      46.7237 
  196000    130.39786   -7112.9159   -6439.3139   -543.11271     102002.7      46.7237      46.7237      46.7237 
  197000    129.57226   -7131.8644   -6462.5273   -568.94067     102002.7      46.7237      46.7237      46.7237 
  198000    135.00318   -7123.4111   -6426.0193   -772.97715     102002.7      46.7237      46.7237      46.7237 
  199000    132.28143   -7134.6873   -6451.3553   -503.11804     102002.7      46.7237      46.7237      46.7237 
  200000    128.63907   -7134.5078   -6469.9913   -606.98889     102002.7      46.7237      46.7237      46.7237 
  201000    130.09211   -7117.2677   -6445.2452   -607.97031     102002.7      46.7237      46.7237      46.7237 
  202000    129.22142   -7106.9329   -6439.4081   -605.35787     102002.7      46.7237      46.7237      46.7237 
  203000     126.1224   -7120.6802   -6469.1642   -878.27076     102002.7      46.7237      46.7237      46.7237 
  204000    128.81129   -7138.9637   -6473.5576   -568.27418     102002.7      46.7237      46.7237      46.7237 
  205000    130.44953   -7113.6912   -6439.8223   -667.48847     102002.7      46.7237      46.7237      46.7237 
  206000    128.95434   -7154.2966   -6488.1515   -464.54971     102002.7      46.7237      46.7237      46.7237 
  207000     129.5734   -7136.8227   -6467.4797   -682.57845     102002.7      46.7237      46.7237      46.7237 
  208000    131.18788   -7112.3191   -6434.6361   -497.34148     102002.7      46.7237      46.7237      46.7237 
  209000    127.37371   -7161.8164   -6503.8364   -531.56211     102002.7      46.7237      46.7237      46.7237 
  210000    131.16233   -7129.3907   -6451.8396   -223.31797     102002.7      46.7237      46.7237      46.7237 
  211000    129.83411   -7156.6196   -6485.9298   -766.69139     102002.7      46.7237      46.7237      46.7237 
  212000    128.48578   -7135.9598   -6472.2352   -509.60175     102002.7      46.7237      46.7237      46.7237 
  213000    127.30254   -7137.5329   -6479.9206   -849.47598     102002.7      46.7237      46.7237      46.7237 
  214000      125.581   -7110.4326   -6461.7133   -553.08004     102002.7      46.7237      46.7237      46.7237 
  215000    130.13798    -7134.442   -6462.1825   -780.15607     102002.7      46.7237      46.7237      46.7237 
  216000    133.09477   -7097.7892   -6410.2557   -590.12356     102002.7      46.7237      46.7237      46.7237 
  217000    129.38144   -7132.8797   -6464.5283   -802.12606     102002.7      46.7237      46.7237      46.7237 
  218000     133.8808   -7107.2346   -6415.6406   -625.31293     102002.7      46.7237      46.7237      46.7237 
  219000    129.16491   -7136.2244   -6468.9916   -448.39323     102002.7      46.7237      46.7237      46.7237 
  220000    129.24849   -7131.3434   -6463.6788   -905.80427     102002.7      46.7237      46.7237      46.7237 
  221000    129.53751   -7139.0653   -6469.9077   -793.16228     102002.7      46.7237      46.7237      46.7237 
  222000    127.00145   -7144.6937   -6488.6368   -960.25346     102002.7      46.7237      46.7237      46.7237 
  223000    129.92843   -7137.6653   -6466.4883    -846.3947     102002.7      46.7237      46.7237      46.7237 
  224000    134.85504    -7121.568   -6424.9414    -996.1394     102002.7      46.7237      46.7237      46.7237 
  225000    127.85652   -7146.9329   -6486.4588   -619.14715     102002.7      46.7237      46.7237      46.7237 
  226000    133.82618   -7139.9038   -6448.5921   -646.44628     102002.7      46.7237      46.7237      46.7237 
  227000    133.74544   -7124.5755   -6433.6808   -486.98469     102002.7      46.7237      46.7237      46.7237 
  228000    130.07683   -7136.6821   -6464.7385   -597.15569     102002.7      46.7237      46.7237      46.7237 
  229000    127.82483    -7144.252   -6483.9417   -689.03821     102002.7      46.7237      46.7237      46.7237 
  230000    133.49809   -7127.0864   -6437.4695   -721.49486     102002.7      46.7237      46.7237      46.7237 
  231000    130.67896   -7149.8834   -6474.8294   -769.24724     102002.7      46.7237      46.7237      46.7237 
  232000    129.50467   -7117.4784   -6448.4905   -952.67425     102002.7      46.7237      46.7237      46.7237 
  233000     130.3534   -7133.6737   -6460.3014   -743.49414     102002.7      46.7237      46.7237      46.7237 
  234000    125.24247    -7132.542   -6485.5715   -761.31315     102002.7      46.7237      46.7237      46.7237 
  235000    128.14007   -7132.0084   -6470.0697   -589.22115     102002.7      46.7237      46.7237      46.7237 
  236000    127.55735   -7115.4306    -6456.502   -646.46343     102002.7      46.7237      46.7237      46.7237 
  237000    135.98962     -7145.62   -6443.1325   -714.17692     102002.7      46.7237      46.7237      46.7237 
  238000    127.27305   -7125.9188   -6468.4588   -618.64341     102002.7      46.7237      46.7237      46.7237 
  239000    128.71091   -7135.0347   -6470.1471   -725.93743     102002.7      46.7237      46.7237      46.7237 
  240000    125.41228   -7102.6552   -6454.8074   -866.23501     102002.7      46.7237      46.7237      46.7237 
  241000    129.67271   -7141.4803   -6471.6243   -871.21952     102002.7      46.7237      46.7237      46.7237 
  242000    130.27054   -7120.1785   -6447.2343   -784.30557     102002.7      46.7237      46.7237      46.7237 
  243000    128.47381   -7099.8836   -6436.2208   -622.15129     102002.7      46.7237      46.7237      46.7237 
  244000    128.80625    -7139.368   -6473.9879   -944.54191     102002.7      46.7237      46.7237      46.7237 
  245000    129.91273   -7135.3774   -6464.2815   -1034.0081     102002.7      46.7237      46.7237      46.7237 
  246000    131.77596   -7135.2043   -6454.4834   -872.37491     102002.7      46.7237      46.7237      46.7237 
  247000    127.39674   -7148.3048   -6490.2058    -598.6438     102002.7      46.7237      46.7237      46.7237 
  248000    129.45496   -7138.7969   -6470.0657   -758.72333     102002.7      46.7237      46.7237      46.7237 
  249000    134.39951   -7127.4277   -6433.1543   -789.37517     102002.7      46.7237      46.7237      46.7237 
  250000    128.93057   -7120.4982   -6454.4759   -608.80186     102002.7      46.7237      46.7237      46.7237 
  251000    127.88011   -7163.4529    -6502.857   -768.47272     102002.7      46.7237      46.7237      46.7237 
  252000    127.21265   -7110.9869   -6453.8389    -894.6503     102002.7      46.7237      46.7237      46.7237 
  253000    131.10622   -7138.8194   -6461.5583   -322.37994     102002.7      46.7237      46.7237      46.7237 
  254000    130.60354   -7120.0504    -6445.386   -585.59629     102002.7      46.7237      46.7237      46.7237 
  255000     128.6475   -7148.6893   -6484.1293    -416.0901     102002.7      46.7237      46.7237      46.7237 
  256000    130.99514    -7137.487   -6460.7997   -740.41818     102002.7      46.7237      46.7237      46.7237 
  257000    126.77706     -7122.53   -6467.6322    -925.5521     102002.7      46.7237      46.7237      46.7237 
  258000    125.31713   -7125.6198   -6478.2636    -680.1761     102002.7      46.7237      46.7237      46.7237 
  259000    131.61919   -7134.6628   -6454.7518   -865.50711     102002.7      46.7237      46.7237      46.7237 
  260000    129.89659   -7140.8155    -6469.803   -489.08575     102002.7      46.7237      46.7237      46.7237 
  261000    134.11653   -7111.8042   -6418.9926   -892.68102     102002.7      46.7237      46.7237      46.7237 
  262000    135.26903   -7151.3616   -6452.5964   -487.67389     102002.7      46.7237      46.7237      46.7237 
  263000    126.45424   -7133.8988   -6480.6686   -774.94237     102002.7      46.7237      46.7237      46.7237 
  264000    128.00673   -7148.9226   -6487.6726   -730.78533     102002.7      46.7237      46.7237      46.7237 
  265000    126.60743   -7112.5948   -6458.5732   -730.22628     102002.7      46.7237      46.7237      46.7237 
  266000    127.71402   -7114.2068   -6454.4689   -415.93107     102002.7      46.7237      46.7237      46.7237 
  267000    128.51862   -7124.9994   -6461.1051   -688.88393     102002.7      46.7237      46.7237      46.7237 
  268000    127.30266   -7139.3959   -6481.7829    -696.1363     102002.7      46.7237      46.7237      46.7237 
  269000    128.15306   -7138.6169   -6476.6111   -794.46832     102002.7      46.7237      46.7237      46.7237 
  270000    132.19363   -7127.4532   -6444.5748   -521.23726     102002.7      46.7237      46.7237      46.7237 
  271000    130.90389   -7163.3172   -6487.1013   -838.32878     102002.7      46.7237      46.7237      46.7237 
  272000    130.57018    -7093.385   -6418.8929   -713.11577     102002.7      46.7237      46.7237      46.7237 
  273000    129.63461   -7140.1604   -6470.5012   -693.07542     102002.7      46.7237      46.7237      46.7237 
  274000    127.10156   -7157.9328   -6501.3588   -770.89234     102002.7      46.7237      46.7237      46.7237 
  275000    132.74592   -7137.2078   -6451.4764   -641.75156     102002.7      46.7237      46.7237      46.7237 
  276000    123.30327   -7120.4432   -6483.4901   -1052.8529     102002.7      46.7237      46.7237      46.7237 
  277000    127.94912   -7122.8978   -6461.9454   -1064.1449     102002.7      46.7237      46.7237      46.7237 
  278000    130.15743   -7103.6804   -6431.3205   -1158.4845     102002.7      46.7237      46.7237      46.7237 
  279000    130.86121   -7142.2215   -6466.2261   -935.45597     102002.7      46.7237      46.7237      46.7237 
  280000    126.83561   -7108.8049   -6453.6046   -952.82907     102002.7      46.7237      46.7237      46.7237 
  281000    132.63411   -7133.9106   -6448.7568   -764.53218     102002.7      46.7237      46.7237      46.7237 
  282000    127.17647   -7129.2399   -6472.2788   -908.68893     102002.7      46.7237      46.7237      46.7237 
  283000     132.6373   -7144.1268   -6458.9565   -857.78675     102002.7      46.7237      46.7237      46.7237 
  284000    126.30374   -7135.0859   -6482.6331   -1018.2998     102002.7      46.7237      46.7237      46.7237 
  285000    126.34037   -7133.8415   -6481.1995   -757.69122     102002.7      46.7237      46.7237      46.7237 
  286000    128.61232   -7119.6032   -6455.2249   -826.60733     102002.7      46.7237      46.7237      46.7237 
  287000    126.49648   -7142.7113   -6489.2628   -505.71804     102002.7      46.7237      46.7237      46.7237 
  288000    130.63744   -7148.7783   -6473.9387   -414.75464     102002.7      46.7237      46.7237      46.7237 
  289000    133.85279   -7125.7999   -6434.3507   -485.22894     102002.7      46.7237      46.7237      46.7237 
  290000       129.07   -7136.4526     -6469.71    -725.2857     102002.7      46.7237      46.7237      46.7237 
  291000    127.13178   -7158.2187   -6501.4885   -399.03343     102002.7      46.7237      46.7237      46.7237 
  292000    129.51143   -7115.6241   -6446.6012   -777.64798     102002.7      46.7237      46.7237      46.7237 
  293000    128.60291   -7122.1451   -6457.8154   -570.33608     102002.7      46.7237      46.7237      46.7237 
  294000    129.13957   -7142.0192   -6474.9172   -459.03372     102002.7      46.7237      46.7237      46.7237 
  295000    127.76176   -7133.3434   -6473.3589   -356.80014     102002.7      46.7237      46.7237      46.7237 
  296000    126.34111   -7136.0145   -6483.3687   -748.75464     102002.7      46.7237      46.7237      46.7237 
  297000    131.46903   -7137.4652   -6458.3299   -374.07493     102002.7      46.7237      46.7237      46.7237 
  298000    128.75171   -7134.4152   -6469.3168   -598.56829     102002.7      46.7237      46.7237      46.7237 
  299000    130.40691   -7122.3823   -6448.7336   -457.13449     102002.7      46.7237      46.7237      46.7237 
  300000    127.82102   -7127.6254   -6467.3347    -550.2418     102002.7      46.7237      46.7237      46.7237 
  301000    127.81854   -7165.0261   -6504.7483   -775.78309     102002.7      46.7237      46.7237      46.7237 
  302000    130.35938    -7120.892   -6447.4889    -491.0998     102002.7      46.7237      46.7237      46.7237 
  303000    128.02622   -7153.3346    -6491.984    -590.8016     102002.7      46.7237      46.7237      46.7237 
  304000    134.08683     -7144.99   -6452.3318   -385.59478     102002.7      46.7237      46.7237      46.7237 
  305000    130.98654   -7143.5343   -6466.8913   -696.57642     102002.7      46.7237      46.7237      46.7237 
  306000      130.962   -7133.2199   -6456.7037    -1035.243     102002.7      46.7237      46.7237      46.7237 
  307000    124.94684   -7129.5411   -6484.0977   -843.00874     102002.7      46.7237      46.7237      46.7237 
  308000     129.5708    -7123.159   -6453.8295   -1106.3925     102002.7      46.7237      46.7237      46.7237 
  309000    133.67816   -7115.6594   -6425.1123   -622.10363     102002.7      46.7237      46.7237      46.7237 
  310000    128.28927   -7129.4346   -6466.7251   -927.81124     102002.7      46.7237      46.7237      46.7237 
  311000    134.60932   -7139.9614   -6444.6042   -602.56216     102002.7      46.7237      46.7237      46.7237 
  312000    133.06556   -7127.9343   -6440.5517   -780.98286     102002.7      46.7237      46.7237      46.7237 
  313000    129.49066    -7147.269   -6478.3535   -742.05836     102002.7      46.7237      46.7237      46.7237 
  314000    131.79863   -7135.1687   -6454.3307   -719.21955     102002.7      46.7237      46.7237      46.7237 
  315000    134.93791   -7126.0782   -6429.0236   -889.75205     102002.7      46.7237      46.7237      46.7237 
  316000    131.10598    -7147.827   -6470.5671   -707.17894     102002.7      46.7237      46.7237      46.7237 
  317000    130.50746    -7134.777   -6460.6089   -724.52183     102002.7      46.7237      46.7237      46.7237 
  318000    129.99889   -7131.3862   -6459.8452   -702.48858     102002.7      46.7237      46.7237      46.7237 
  319000    129.15117   -7144.1983   -6477.0365   -514.01931     102002.7      46.7237      46.7237      46.7237 
  320000    129.53833   -7112.4247   -6443.2629   -673.63867     102002.7      46.7237      46.7237      46.7237 
  321000    128.92809   -7136.1043   -6470.0948   -772.87441     102002.7      46.7237      46.7237      46.7237 
  322000    129.29776   -7141.0737   -6473.1546   -751.85673     102002.7      46.7237      46.7237      46.7237 
  323000    131.69787   -7139.4622   -6459.1448   -986.54897     102002.7      46.7237      46.7237      46.7237 
  324000    126.53085   -7123.9174   -6470.2914   -1132.6218     102002.7      46.7237      46.7237      46.7237 
  325000    130.40932   -7153.3676   -6479.7065    -586.9904     102002.7      46.7237      46.7237      46.7237 
  326000    130.09296   -7130.8424   -6458.8155   -985.04034     102002.7      46.7237      46.7237      46.7237 
  327000    131.78866    -7174.047   -6493.2606   -447.97489     102002.7      46.7237      46.7237      46.7237 
  328000    130.15854   -7143.8068   -6471.4412   -605.88244     102002.7      46.7237      46.7237      46.7237 
  329000     126.6996   -7136.0127   -6481.5151   -499.99095     102002.7      46.7237      46.7237      46.7237 
  330000    131.80934    -7157.636   -6476.7427   -678.35773     102002.7      46.7237      46.7237      46.7237 
  331000    132.00505   -7122.4778   -6440.5735   -698.95129     102002.7      46.7237      46.7237      46.7237 
  332000    129.41713   -7125.3558   -6456.8201   -577.93872     102002.7      46.7237      46.7237      46.7237 
  333000     128.6776   -7144.2289   -6479.5134   -698.05612     102002.7      46.7237      46.7237      46.7237 
  334000    132.02877   -7123.7913   -6441.7645    -237.9074     102002.7      46.7237      46.7237      46.7237 
  335000    129.48804   -7125.8547   -6456.9526   -760.04661     102002.7      46.7237      46.7237      46.7237 
  336000    132.02972   -7143.5024   -6461.4707   -620.29803     102002.7      46.7237      46.7237      46.7237 
  337000    131.17002   -7109.6251   -6432.0343   -730.85897     102002.7      46.7237      46.7237      46.7237 
  338000    133.35461   -7135.9916   -6447.1159   -1066.5036     102002.7      46.7237      46.7237      46.7237 
  339000    126.71822   -7122.7854   -6468.1915   -919.57182     102002.7      46.7237      46.7237      46.7237 
  340000    132.85721   -7149.8922   -6463.5859   -954.95169     102002.7      46.7237      46.7237      46.7237 
  341000    127.99379   -7132.2886   -6471.1055    -995.3365     102002.7      46.7237      46.7237      46.7237 
  342000    132.72604   -7122.5065   -6436.8778   -811.67484     102002.7      46.7237      46.7237      46.7237 
  343000     126.9806   -7152.0542    -6496.105   -770.65668     102002.7      46.7237      46.7237      46.7237 
  344000    128.05413    -7117.714   -6456.2192   -571.48695     102002.7      46.7237      46.7237      46.7237 
  345000    127.16415   -7141.4509   -6484.5535   -1133.8461     102002.7      46.7237      46.7237      46.7237 
  346000    132.54326   -7139.1359   -6454.4514   -763.53833     102002.7      46.7237      46.7237      46.7237 
  347000    129.77267   -7125.1809   -6454.8086   -750.45033     102002.7      46.7237      46.7237      46.7237 
  348000    129.06218   -7133.9975   -6467.2953   -401.79667     102002.7      46.7237      46.7237      46.7237 
  349000    130.56665   -7145.6055   -6471.1316   -533.70331     102002.7      46.7237      46.7237      46.7237 
  350000    128.93305    -7136.062   -6470.0269   -587.83131     102002.7      46.7237      46.7237      46.7237 
  351000    128.54214   -7134.9391   -6470.9234    -602.4561     102002.7      46.7237      46.7237      46.7237 
  352000    132.75613   -7110.4686   -6424.6844   -377.19121     102002.7      46.7237      46.7237      46.7237 
  353000    130.45195   -7139.5133   -6465.6319   -540.37288     102002.7      46.7237      46.7237      46.7237 
  354000    127.93691   -7136.9852   -6476.0958   -669.04043     102002.7      46.7237      46.7237      46.7237 
  355000    129.68972   -7133.4816   -6463.5377   -380.92103     102002.7      46.7237      46.7237      46.7237 
  356000    131.60279   -7120.1206   -6440.2943   -731.71871     102002.7      46.7237      46.7237      46.7237 
  357000    128.05134   -7130.8772   -6469.3968   -697.84386     102002.7      46.7237      46.7237      46.7237 
  358000    126.13254   -7139.5457   -6487.9773   -697.85898     102002.7      46.7237      46.7237      46.7237 
  359000    129.85846   -7116.8666    -6446.051   -603.34784     102002.7      46.7237      46.7237      46.7237 
  360000    134.53193   -7113.2427   -6418.2852   -409.45285     102002.7      46.7237      46.7237      46.7237 
  361000    126.66491   -7129.4096   -6475.0912   -1017.1034     102002.7      46.7237      46.7237      46.7237 
  362000    131.14386   -7137.6385    -6460.183   -771.61729     102002.7      46.7237      46.7237      46.7237 
  363000     126.4771   -7116.9355   -6463.5872   -432.23419     102002.7      46.7237      46.7237      46.7237 
  364000    128.44561   -7128.7334   -6465.2163   -602.43878     102002.7      46.7237      46.7237      46.7237 
  365000    131.63117   -7147.4046   -6467.4317   -924.05475     102002.7      46.7237      46.7237      46.7237 
  366000     135.9872   -7137.6698   -6435.1947   -659.07875     102002.7      46.7237      46.7237      46.7237 
  367000    126.11842   -7116.9034    -6465.408   -716.84735     102002.7      46.7237      46.7237      46.7237 
  368000     131.0155   -7092.3003   -6415.5078   -658.22761     102002.7      46.7237      46.7237      46.7237 
  369000    132.49151   -7153.4515   -6469.0343   -594.54481     102002.7      46.7237      46.7237      46.7237 
  370000    128.83039   -7156.9087   -6491.4039   -597.52441     102002.7      46.7237      46.7237      46.7237 
  371000    133.00443   -7142.5236   -6455.4568   -422.85051     102002.7      46.7237      46.7237      46.7237 
  372000    128.31894   -7154.4486   -6491.5858   -539.63076     102002.7      46.7237      46.7237      46.7237 
  373000    132.25549   -7129.0624   -6445.8644   -385.37894     102002.7      46.7237      46.7237      46.7237 
  374000    127.84783   -7132.3249   -6471.8958    -575.1245     102002.7      46.7237      46.7237      46.7237 
  375000    127.45066   -7121.7014    -6463.324   -586.40685     102002.7      46.7237      46.7237      46.7237 
  376000    129.00698   -7130.4099   -6463.9928   -496.91575     102002.7      46.7237      46.7237      46.7237 
  377000    127.18448   -7147.3822   -6490.3797   -492.52723     102002.7      46.7237      46.7237      46.7237 
  378000    129.77256   -7119.7129   -6449.3412   -569.31724     102002.7      46.7237      46.7237      46.7237 
  379000    130.57573   -7112.9845   -6438.4638   -216.27447     102002.7      46.7237      46.7237      46.7237 
  380000    129.70038   -7138.8181   -6468.8191   -598.63042     102002.7      46.7237      46.7237      46.7237 
  381000    133.83218   -7124.5788    -6433.236   -584.22723     102002.7      46.7237      46.7237      46.7237 
  382000    126.87969   -7129.3881   -6473.9602   -534.25005     102002.7      46.7237      46.7237      46.7237 
  383000    129.69611    -7135.599   -6465.6221   -658.63983     102002.7      46.7237      46.7237      46.7237 
  384000    131.70843    -7126.033    -6445.661   -784.96503     102002.7      46.7237      46.7237      46.7237 
  385000    126.18336   -7135.5439   -6483.7129   -660.66271     102002.7      46.7237      46.7237      46.7237 
  386000    131.11908   -7142.9523   -6465.6247   -586.68112     102002.7      46.7237      46.7237      46.7237 
  387000     132.9855   -7131.1358   -6444.1667   -438.90444     102002.7      46.7237      46.7237      46.7237 
  388000    132.40456   -7122.7365   -6438.7684    -848.1624     102002.7      46.7237      46.7237      46.7237 
  389000    128.55303    -7135.153    -6471.081   -777.96311     102002.7      46.7237      46.7237      46.7237 
  390000     133.5687   -7114.2377    -6424.256   -499.08684     102002.7      46.7237      46.7237      46.7237 
  391000    133.29497   -7157.5482   -6468.9805   -636.89005     102002.7      46.7237      46.7237      46.7237 
  392000    130.11802   -7145.4059   -6473.2495   -902.01124     102002.7      46.7237      46.7237      46.7237 
  393000    128.35883   -7144.4753   -6481.4065   -632.55937     102002.7      46.7237      46.7237      46.7237 
  394000    130.18023    -7139.006   -6466.5283   -962.70975     102002.7      46.7237      46.7237      46.7237 
  395000    130.17776    -7113.389   -6440.9241      -430.58     102002.7      46.7237      46.7237      46.7237 
  396000    130.56658   -7138.8582   -6464.3847     -635.572     102002.7      46.7237      46.7237      46.7237 
  397000    131.27745   -7109.8962   -6431.7506   -816.49892     102002.7      46.7237      46.7237      46.7237 
  398000    133.25099    -7141.847   -6453.5065   -555.38597     102002.7      46.7237      46.7237      46.7237 
  399000    127.32162   -7135.4925   -6477.7816   -916.17988     102002.7      46.7237      46.7237      46.7237 
  400000    131.46925   -7118.8631   -6439.7266   -669.72111     102002.7      46.7237      46.7237      46.7237 
  401000    126.84985   -7167.8316   -6512.5577   -724.63708     102002.7      46.7237      46.7237      46.7237 
  402000    129.13243   -7137.0559   -6469.9909   -702.40864     102002.7      46.7237      46.7237      46.7237 
  403000    135.10072    -7142.888   -6444.9923   -605.65873     102002.7      46.7237      46.7237      46.7237 
  404000     130.1407    -7111.558   -6439.2845   -312.95476     102002.7      46.7237      46.7237      46.7237 
  405000    126.71421   -7157.0153   -6502.4421   -704.80849     102002.7      46.7237      46.7237      46.7237 
  406000    133.18235   -7135.9049    -6447.919   -749.03481     102002.7      46.7237      46.7237      46.7237 
  407000    126.44669   -7142.1673   -6488.9761   -589.09271     102002.7      46.7237      46.7237      46.7237 
  408000    132.32928    -7160.384   -6476.8049   -801.83755     102002.7      46.7237      46.7237      46.7237 
  409000     129.3226   -7125.9071   -6457.8597   -590.41964     102002.7      46.7237      46.7237      46.7237 
  410000    129.55065   -7145.2205    -6475.995   -434.63322     102002.7      46.7237      46.7237      46.7237 
  411000    131.96286   -7109.3102   -6427.6239    -609.9242     102002.7      46.7237      46.7237      46.7237 
  412000    130.13563   -7135.2403    -6462.993   -587.44823     102002.7      46.7237      46.7237      46.7237 
  413000    129.08682   -7116.9378   -6450.1084   -359.72354     102002.7      46.7237      46.7237      46.7237 
  414000    129.22507   -7138.1076    -6470.564   -647.25572     102002.7      46.7237      46.7237      46.7237 
  415000    129.63595   -7165.3105   -6495.6444   -923.37967     102002.7      46.7237      46.7237      46.7237 
  416000    130.31835   -7127.1624   -6453.9712   -725.88284     102002.7      46.7237      46.7237      46.7237 
  417000    130.76623   -7158.9218    -6483.417   -864.00869     102002.7      46.7237      46.7237      46.7237 
  418000    129.30209   -7114.7195    -6446.778   -406.04958     102002.7      46.7237      46.7237      46.7237 
  419000    128.74586   -7124.3953   -6459.3272   -642.40808     102002.7      46.7237      46.7237      46.7237 
  420000     129.2012   -7155.4842   -6488.0639    -880.9971     102002.7      46.7237      46.7237      46.7237 
  421000    136.31239   -7131.0376   -6426.8828   -608.81747     102002.7      46.7237      46.7237      46.7237 
  422000    132.47432   -7127.6778   -6443.3494   -725.06959     102002.7      46.7237      46.7237      46.7237 
  423000    129.63682   -7139.8087   -6470.1381   -554.08872     102002.7      46.7237      46.7237      46.7237 
  424000    129.43805   -7127.8726   -6459.2288   -553.13798     102002.7      46.7237      46.7237      46.7237 
  425000    133.42298   -7128.4845   -6439.2556   -591.32438     102002.7      46.7237      46.7237      46.7237 
  426000    129.65338   -7158.2072    -6488.451   -639.73386     102002.7      46.7237      46.7237      46.7237 
  427000    130.20255   -7127.4813   -6454.8883   -470.98554     102002.7      46.7237      46.7237      46.7237 
  428000    132.16416   -7121.9625   -6439.2363   -796.06432     102002.7      46.7237      46.7237      46.7237 
  429000    129.47519    -7129.657   -6460.8213   -729.58692     102002.7      46.7237      46.7237      46.7237 
  430000    132.00168   -7148.1249   -6466.2381   -639.52746     102002.7      46.7237      46.7237      46.7237 
  431000    126.43876   -7143.5278   -6490.3775   -762.92529     102002.7      46.7237      46.7237      46.7237 
  432000    134.34577   -7143.0516   -6449.0557   -902.58718     102002.7      46.7237      46.7237      46.7237 
  433000    133.41971   -7126.6645   -6437.4524   -608.82731     102002.7      46.7237      46.7237      46.7237 
  434000    130.40041   -7145.9711   -6472.3559   -532.56745     102002.7      46.7237      46.7237      46.7237 
  435000    132.66989   -7138.0858   -6452.7471   -478.68445     102002.7      46.7237      46.7237      46.7237 
  436000    129.44564   -7140.6976   -6472.0146   -298.68845     102002.7      46.7237      46.7237      46.7237 
  437000     127.5009   -7116.3383   -6457.7013   -535.61279     102002.7      46.7237      46.7237      46.7237 
  438000    131.77868    -7128.138   -6447.4031   -528.43314     102002.7      46.7237      46.7237      46.7237 
  439000    130.47227    -7103.078   -6429.0917   -644.86455     102002.7      46.7237      46.7237      46.7237 
  440000    130.22487   -7141.5036   -6468.7953   -537.58766     102002.7      46.7237      46.7237      46.7237 
  441000    131.29022   -7140.6413   -6462.4297    -628.4939     102002.7      46.7237      46.7237      46.7237 
  442000     129.0582   -7115.3121   -6448.6304   -638.01947     102002.7      46.7237      46.7237      46.7237 
  443000      128.235   -7129.9012   -6467.4721   -781.56111     102002.7      46.7237      46.7237      46.7237 
  444000    126.53568   -7119.4837   -6465.8328   -714.06624     102002.7      46.7237      46.7237      46.7237 
  445000     136.4404   -7156.2986   -6451.4824   -410.34814     102002.7      46.7237      46.7237      46.7237 
  446000    132.95449   -7136.5415   -6449.7327   -613.69245     102002.7      46.7237      46.7237      46.7237 
  447000    128.64686   -7130.4849   -6465.9282   -599.57487     102002.7      46.7237      46.7237      46.7237 
  448000    130.91463   -7141.1799   -6464.9085   -464.59782     102002.7      46.7237      46.7237      46.7237 
  449000    134.92642   -7148.0734   -6451.0781   -441.07727     102002.7      46.7237      46.7237      46.7237 
  450000    129.66315   -7123.3283   -6453.5217   -522.62977     102002.7      46.7237      46.7237      46.7237 
  451000    127.43454   -7157.2779   -6498.9837   -468.43602     102002.7      46.7237      46.7237      46.7237 
  452000    131.06983   -7123.0537   -6445.9805   -437.95688     102002.7      46.7237      46.7237      46.7237 
  453000    125.82734   -7153.1735   -6503.1817   -870.09547     102002.7      46.7237      46.7237      46.7237 
  454000    129.29908   -7119.2141   -6451.2882   -466.64398     102002.7      46.7237      46.7237      46.7237 
  455000    127.36522   -7143.9548   -6486.0187   -597.68607     102002.7      46.7237      46.7237      46.7237 
  456000    131.60458   -7134.2527   -6454.4171    -537.6468     102002.7      46.7237      46.7237      46.7237 
  457000    131.65041   -7138.6629   -6458.5907   -669.67093     102002.7      46.7237      46.7237      46.7237 
  458000    131.75752   -7158.3019   -6477.6763    -791.1319     102002.7      46.7237      46.7237      46.7237 
  459000    134.13873   -7141.8217   -6448.8954   -410.57519     102002.7      46.7237      46.7237      46.7237 
  460000    128.26924   -7129.3183   -6466.7123   -673.01596     102002.7      46.7237      46.7237      46.7237 
  461000    129.53049   -7125.7353    -6456.614   -525.34989     102002.7      46.7237      46.7237      46.7237 
  462000    126.26346   -7148.3566   -6496.1119   -616.31538     102002.7      46.7237      46.7237      46.7237 
  463000     129.7573   -7128.4746   -6458.1816   -626.19553     102002.7      46.7237      46.7237      46.7237 
  464000    126.28259   -7125.3085    -6472.965   -1106.1973     102002.7      46.7237      46.7237      46.7237 
  465000     134.6822   -7120.4959   -6424.7622   -859.62663     102002.7      46.7237      46.7237      46.7237 
  466000    131.70129   -7123.3333   -6442.9982   -834.57118     102002.7      46.7237      46.7237      46.7237 
  467000    130.38617    -7136.659   -6463.1174   -928.69164     102002.7      46.7237      46.7237      46.7237 
  468000     127.9464   -7127.7378   -6466.7994   -802.11314     102002.7      46.7237      46.7237      46.7237 
  469000    132.28836    -7135.137   -6451.7692    -699.1828     102002.7      46.7237      46.7237      46.7237 
  470000    131.77466   -7118.0176   -6437.3034   -954.70507     102002.7      46.7237      46.7237      46.7237 
  471000    124.82978   -7150.4979   -6505.6593   -833.31591     102002.7      46.7237      46.7237      46.7237 
  472000    130.65352   -7127.4195   -6452.4969   -715.30182     102002.7      46.7237      46.7237      46.7237 
  473000    126.48209   -7146.1709   -6492.7968   -855.25578     102002.7      46.7237      46.7237      46.7237 
  474000    127.94789   -7119.6037   -6458.6577   -804.94722     102002.7      46.7237      46.7237      46.7237 
  475000    132.10358   -7131.9162   -6449.5029   -919.94036     102002.7      46.7237      46.7237      46.7237 
  476000    130.86786    -7141.557   -6465.5271   -938.78795     102002.7      46.7237      46.7237      46.7237 
  477000    130.03303    -7119.093   -6447.3757   -1002.2144     102002.7      46.7237      46.7237      46.7237 
  478000    132.54417   -7153.2789   -6468.5897   -991.49543     102002.7      46.7237      46.7237      46.7237 
  479000    130.87376   -7105.9974   -6429.9371   -943.86674     102002.7      46.7237      46.7237      46.7237 
  480000    127.08955   -7125.3708   -6468.8587   -1154.4733     102002.7      46.7237      46.7237      46.7237 
  481000    131.19557   -7128.1968   -6450.4741   -913.93433     102002.7      46.7237      46.7237      46.7237 
  482000    129.61018   -7143.5168   -6473.9838   -787.98946     102002.7      46.7237      46.7237      46.7237 
  483000     128.8756   -7098.0082   -6432.2699   -802.69261     102002.7      46.7237      46.7237      46.7237 
  484000    125.79442   -7119.4667   -6469.6449   -550.60551     102002.7      46.7237      46.7237      46.7237 
  485000    126.95839   -7116.1583   -6460.3238   -851.05072     102002.7      46.7237      46.7237      46.7237 
  486000    131.91496   -7146.6387   -6465.1998   -491.07541     102002.7      46.7237      46.7237      46.7237 
  487000    127.71881   -7135.2065   -6475.4439   -636.37688     102002.7      46.7237      46.7237      46.7237 
  488000     128.0498     -7104.31   -6442.8375   -595.51134     102002.7      46.7237      46.7237      46.7237 
  489000    132.23292   -7149.7816   -6466.7002   -827.65607     102002.7      46.7237      46.7237      46.7237 
  490000     129.1161   -7120.7501   -6453.7695   -788.91055     102002.7      46.7237      46.7237      46.7237 
  491000    131.45347   -7110.7638   -6431.7088   -734.55803     102002.7      46.7237      46.7237      46.7237 
  492000    127.02277   -7123.7478   -6467.5807   -677.21053     102002.7      46.7237      46.7237      46.7237 
  493000    127.96826   -7159.3043   -6498.2531   -572.65444     102002.7      46.7237      46.7237      46.7237 
  494000     128.3308   -7116.1472   -6453.2231   -810.56987     102002.7      46.7237      46.7237      46.7237 
  495000    127.82888   -7149.6004   -6489.2691    -537.0481     102002.7      46.7237      46.7237      46.7237 
  496000    132.03866   -7155.3232   -6473.2453   -941.54478     102002.7      46.7237      46.7237      46.7237 
  497000    125.69583   -7114.2754   -6464.9629   -1094.0955     102002.7      46.7237      46.7237      46.7237 
  498000    135.51157   -7149.3066   -6449.2885   -548.93487     102002.7      46.7237      46.7237      46.7237 
  499000    127.71472   -7144.9086   -6485.1671   -375.13792     102002.7      46.7237      46.7237      46.7237 
  500000    133.13653   -7130.4162    -6442.667   -831.10111     102002.7      46.7237      46.7237      46.7237 
  500503     131.3377   -7139.9109    -6461.454   -634.20342     102002.7      46.7237      46.7237      46.7237 
Loop time of 1310.45 on 16 procs for 500000 steps with 1734 atoms

Performance: 32.966 ns/day, 0.728 hours/ns, 381.548 timesteps/s
99.8% CPU use with 16 MPI tasks x no OpenMP threads

MPI task timing breakdown:
Section |  min time  |  avg time  |  max time  |%varavg| %total
---------------------------------------------------------------
Pair    | 485.77     | 686.49     | 892.46     | 522.3 | 52.39
Bond    | 162.68     | 173.99     | 184.62     |  54.4 | 13.28
Neigh   | 4.0944     | 4.1206     | 4.1536     |   1.1 |  0.31
Comm    | 218.02     | 432.4      | 637.82     | 682.9 | 33.00
Output  | 0.020739   | 0.021107   | 0.023879   |   0.5 |  0.00
Modify  | 7.2596     | 8.1508     | 9.2595     |  29.0 |  0.62
Other   |            | 5.273      |            |       |  0.40

Nlocal:    108.375 ave 138 max 75 min
Histogram: 1 0 1 2 4 1 4 1 1 1
Nghost:    2203.88 ave 2235 max 2176 min
Histogram: 1 1 2 4 0 2 4 0 1 1
Neighs:    11448.8 ave 17974 max 6600 min
Histogram: 1 3 1 3 4 0 1 1 1 1

Total # of neighbors = 183180
Ave neighs/atom = 105.64
Ave special neighs/atom = 6.6436
Neighbor list builds = 3542
Dangerous builds = 0
Neighbor list info ...
  update every 1 steps, delay 10 steps, check yes
  max neighbors/atom: 2000, page size: 100000
  master list distance cutoff = 16
  ghost atom cutoff = 16
  binsize = 8, bins = 6 6 6
  3 neighbor lists, perpetual/occasional/extra = 3 0 0
  (1) pair buck6d/coul/gauss/dsf, perpetual, skip from (3)
      attributes: half, newton on
      pair build: skip
      stencil: none
      bin: none
  (2) pair lj/cut, perpetual, skip from (3)
      attributes: half, newton on
      pair build: skip
      stencil: none
      bin: none
  (3) neighbor class addition, perpetual
      attributes: half, newton on
      pair build: half/bin/newton
      stencil: half/bin/3d/newton
      bin: standard
Setting up Verlet run ...
  Unit style    : real
  Current step  : 500503
  Time step     : 1
WARNING: Inconsistent image flags (../domain.cpp:786)
Per MPI rank memory allocation (min/avg/max) = 23.06 | 23.31 | 23.34 Mbytes
Step Time TotEng KinEng PotEng E_mol E_pair Temp Pxx Pyy Pzz Pxy Pxz Pyz Cella Cellb Cellc CellAlpha CellBeta CellGamma Volume Press 
  500503       500000    -6461.454    678.45692   -7139.9109    4415.4588    -11555.37     131.3377   -541.47222   -930.29677   -430.84128   -95.175224   -69.493737    126.03701      46.7237      46.7237      46.7237           90           90           90     102002.7   -634.20342 
  501000       500497   -6484.2606    662.45905   -7146.7197    4411.7259   -11558.446    128.24079    -686.7053   -461.94767   -168.58501    247.84457    37.557793      58.8085      46.7237      46.7237      46.7237           90           90           90     102002.7   -439.07933 
  502000       501497   -6498.8815    645.24077   -7144.1223    4388.9677    -11533.09    124.90762   -457.76566   -631.04619    -560.9925   -49.647676   -113.85912    241.67184      46.7237      46.7237      46.7237           90           90           90     102002.7   -549.93478 
  503000       502497   -6453.7774     671.5698   -7125.3472     4444.961   -11570.308    130.00447   -748.52659   -1006.2501   -803.74455   -10.159601   -43.092476    227.12653      46.7237      46.7237      46.7237           90           90           90     102002.7   -852.84043 
  504000       503497    -6455.694    679.77855   -7135.4725    4396.0761   -11531.549    131.59355   -792.83804   -1032.7584   -322.14133    53.994513    168.55697    35.765322      46.7237      46.7237      46.7237           90           90           90     102002.7   -715.91259 
  505000       504497    -6463.385    662.75598    -7126.141    4426.0776   -11552.219    128.29827   -1309.4721   -855.82742    -384.2427    57.293982    4.4096539    335.88325      46.7237      46.7237      46.7237           90           90           90     102002.7   -849.84741 
  506000       505497   -6444.0584    674.77151   -7118.8299     4431.261   -11550.091    130.62427   -1306.5859   -984.90459   -1163.0885    259.14338   -143.59227   -307.26731      46.7237      46.7237      46.7237           90           90           90     102002.7   -1151.5263 
  507000       506497   -6470.0606    672.42199   -7142.4826    4413.1242   -11555.607    130.16944   -935.88011   -1186.6611   -1105.4135    215.78884    7.6112026    78.538441      46.7237      46.7237      46.7237           90           90           90     102002.7   -1075.9849 
  508000       507497    -6434.672    683.74191   -7118.4139    4424.3775   -11542.791    132.36079   -354.21833   -585.68489   -368.23359    73.012904    101.36166    -92.72722      46.7237      46.7237      46.7237           90           90           90     102002.7    -436.0456 
  509000       508497   -6449.3628    683.92222    -7133.285    4417.0599   -11550.345    132.39569   -1256.8527   -370.55616   -1021.8753   -4.6007191   -13.376863    129.33549      46.7237      46.7237      46.7237           90           90           90     102002.7   -883.09472 
  510000       509497   -6471.1355    663.89025   -7135.0257    4423.1357   -11558.161    128.51784   -1183.7649   -1123.2657   -993.20268   -74.119872   -87.709819   -241.42933      46.7237      46.7237      46.7237           90           90           90     102002.7   -1100.0778 
  511000       510497   -6471.2182    657.03985    -7128.258    4424.1568   -11552.415    127.19172   -910.53419   -920.64504    -340.2029   -363.49033   -39.155495    155.50975      46.7237      46.7237      46.7237           90           90           90     102002.7   -723.79405 
  512000       511497   -6440.0064    687.76922   -7127.7757    4406.7243     -11534.5     133.1404   -737.31614   -1189.0889   -932.46281   -71.438139    273.03126   -76.187332      46.7237      46.7237      46.7237           90           90           90     102002.7   -952.95597 
  513000       512497   -6454.8599    688.86069   -7143.7206    4409.1747   -11552.895    133.35169   -1081.4709   -604.17332   -586.04731    49.998807    113.79117   -128.86693      46.7237      46.7237      46.7237           90           90           90     102002.7   -757.23051 
  514000       513497   -6474.6709    661.71319   -7136.3841    4419.5071   -11555.891     128.0964   -1080.5427   -805.43291   -343.92147     81.33204   -111.93391    145.88511      46.7237      46.7237      46.7237           90           90           90     102002.7   -743.29903 
  515000       514497   -6431.1291    701.22504   -7132.3542    4406.9475   -11539.302    135.74522   -696.15678   -1216.7345   -867.77885    48.485117    77.540561   -39.943018      46.7237      46.7237      46.7237           90           90           90     102002.7   -926.89006 
  516000       515497   -6467.6033    663.92993   -7131.5332    4415.9548   -11547.488    128.52552   -821.30191   -371.01969   -302.44453   -151.49416    277.79725   -211.54464      46.7237      46.7237      46.7237           90           90           90     102002.7   -498.25538 
  517000       516497   -6474.5989    669.43694   -7144.0358    4395.5659   -11539.602    129.59159   -771.85888   -686.61284   -806.70261   -78.745431    57.619604    57.468728      46.7237      46.7237      46.7237           90           90           90     102002.7   -755.05811 
  518000       517497    -6461.978    666.68006   -7128.6581    4405.1534   -11533.811     129.0579   -435.55846   -901.06406   -628.91362    357.24034    75.705322    101.60699      46.7237      46.7237      46.7237           90           90           90     102002.7   -655.17871 
  519000       518497   -6440.2371    682.40782   -7122.6449    4428.2446   -11550.889    132.10253   -399.72464   -753.22969   -554.59393    124.16203   -157.89536    36.782439      46.7237      46.7237      46.7237           90           90           90     102002.7   -569.18275 
  520000       519497   -6501.2791    656.24525   -7157.5243      4385.58   -11543.104     127.0379   -895.36118   -839.67005   -799.48229    -248.9271    174.31916   -118.50951      46.7237      46.7237      46.7237           90           90           90     102002.7   -844.83784 
  521000       520497   -6466.9386    668.84809   -7135.7866    4414.8276   -11550.614     129.4776   -605.22961   -817.20131    -451.0569    134.22317    46.684085    190.97348      46.7237      46.7237      46.7237           90           90           90     102002.7   -624.49594 
  522000       521497   -6478.4122    650.91443   -7129.3266    4422.3644   -11551.691    126.00595   -811.71841   -509.73462   -965.38546   -21.939938   -97.364823    157.40474      46.7237      46.7237      46.7237           90           90           90     102002.7    -762.2795 
  523000       522497   -6467.0071    671.50752   -7138.5147    4395.0231   -11533.538    129.99242   -401.76929   -424.07398    -617.8313   -197.93907    90.839867   -102.68702      46.7237      46.7237      46.7237           90           90           90     102002.7   -481.22486 
  524000       523497   -6466.0254    683.53618   -7149.5615    4393.8294   -11543.391    132.32096   -715.39077    -782.0285   -785.95049   -282.38141  -0.97021031   -118.91487      46.7237      46.7237      46.7237           90           90           90     102002.7   -761.12326 
  525000       524497   -6486.4539     676.0408   -7162.4946    4370.0162   -11532.511    130.86998   -422.18735    382.66549   -565.06277   -37.656001   -323.76808    120.36441      46.7237      46.7237      46.7237           90           90           90     102002.7   -201.52821 
  526000       525497   -6449.3626    684.50125   -7133.8639    4419.8861    -11553.75    132.50778   -1181.1778   -639.78531   -528.81856   -137.32117    320.39126    74.133487      46.7237      46.7237      46.7237           90           90           90     102002.7   -783.26057 
  527000       526497   -6478.2263    667.56173    -7145.788    4389.0439   -11534.832    129.22858   -299.20535   -348.54063   -804.01004    30.987101   -65.337383    1.9116764      46.7237      46.7237      46.7237           90           90           90     102002.7   -483.91867 
  528000       527497   -6460.9943    668.35441   -7129.3487    4415.6837   -11545.032    129.38203   -669.79704   -981.28474   -471.06151    100.90845    312.21008   -193.65256      46.7237      46.7237      46.7237           90           90           90     102002.7   -707.38109 
  529000       528497   -6469.4346     658.0905   -7127.5251    4401.4302   -11528.955    127.39511   -725.21392    -435.5224   -862.01882    88.765943   -124.59443    58.539385      46.7237      46.7237      46.7237           90           90           90     102002.7   -674.25171 
  530000       529497   -6478.6134    671.99955    -7150.613    4381.5842   -11532.197    130.08766   -464.32052    -1030.745   -822.02589   -234.75137    113.72342   -10.884805      46.7237      46.7237      46.7237           90           90           90     102002.7   -772.36381 
  531000       530497   -6454.8956     662.5022   -7117.3978    4432.2439   -11549.642    128.24914   -682.50124   -673.05129   -710.02795    86.707954   -212.17562    225.10403      46.7237      46.7237      46.7237           90           90           90     102002.7   -688.52683 
  532000       531497   -6473.0542    649.27749   -7122.3316    4424.3338   -11546.665    125.68906   -851.88271   -251.01933   -367.76907    128.01114    4.8807839    130.55677      46.7237      46.7237      46.7237           90           90           90     102002.7    -490.2237 
  533000       532497    -6449.932    660.87113   -7110.8031    4411.7863   -11522.589    127.93339   -688.10472   -231.14989   -601.52652   -113.04538    15.357003   -85.188487      46.7237      46.7237      46.7237           90           90           90     102002.7   -506.92704 
  534000       533497   -6483.1044    646.29018   -7129.3946    4416.7963   -11546.191    125.11077   -317.84201     47.93446   -736.83928   -353.24596   -95.533127   -69.469595      46.7237      46.7237      46.7237           90           90           90     102002.7   -335.58228 
  535000       534497   -6490.8804    636.61754   -7127.4979    4395.9462   -11523.444    123.23831    -590.4534   -452.64986    214.61061     70.61358    154.10548    35.721166      46.7237      46.7237      46.7237           90           90           90     102002.7   -276.16422 
  536000       535497   -6441.6403    692.92219   -7134.5625     4404.502   -11539.064    134.13793   -341.88601   -290.95953   -790.87395    78.923481    43.720763    48.285931      46.7237      46.7237      46.7237           90           90           90     102002.7   -474.57316 
  537000       536497   -6449.6274    684.53598   -7134.1634    4410.7855   -11544.949     132.5145   -361.75307   -849.99837   -632.29551    -8.343376    24.096234   -34.307264      46.7237      46.7237      46.7237           90           90           90     102002.7   -614.68232 
  538000       537497   -6469.7512    675.16232   -7144.9135    4392.8917   -11537.805    130.69992    -766.0825   -885.62794   -304.75302    -41.61495    144.78185   -84.394893      46.7237      46.7237      46.7237           90           90           90     102002.7   -652.15449 
  539000       538497    -6423.717    693.25537   -7116.9724    4432.0427   -11549.015    134.20243   -625.15671   -747.86258   -978.29742     248.5448   -17.373925     267.4331      46.7237      46.7237      46.7237           90           90           90     102002.7   -783.77224 
  540000       539497   -6481.4269    661.39423   -7142.8212    4398.2768   -11541.098    128.03466   -819.63728   -392.33207   -637.98569    97.729525    183.69062    66.494622      46.7237      46.7237      46.7237           90           90           90     102002.7   -616.65168 
  541000       540497   -6446.7748    676.04071   -7122.8155    4431.5737   -11554.389    130.86996   -910.81395   -1086.7703   -515.13157   -49.010397   -30.894931   -26.145361      46.7237      46.7237      46.7237           90           90           90     102002.7   -837.57195 
  542000       541497   -6470.5142    669.96649   -7140.4807    4401.0005   -11541.481     129.6941   -1013.7553   -556.12187   -505.84325   -104.51872    292.16155   -166.40364      46.7237      46.7237      46.7237           90           90           90     102002.7    -691.9068 
  543000       542497   -6453.0478    666.27002   -7119.3178    4434.6949   -11554.013    128.97853   -431.63779   -412.48194    -756.2403     96.54213   -30.673447    47.221474      46.7237      46.7237      46.7237           90           90           90     102002.7   -533.45334 
  544000       543497   -6426.9094    694.41338   -7121.3228     4440.549   -11561.872     134.4266   -676.43769   -1030.3168    -657.9391   -116.48101     77.90645   -303.62625      46.7237      46.7237      46.7237           90           90           90     102002.7    -788.2312 
  545000       544497   -6482.7558    658.41142   -7141.1673     4412.708   -11553.875    127.45724   -661.08616   -272.01958   -790.87247   -99.799257   -19.388674    120.52007      46.7237      46.7237      46.7237           90           90           90     102002.7    -574.6594 
  546000       545497   -6451.7635     670.4694   -7122.2329    4413.6923   -11535.925    129.79145   -387.66773   -828.91564   -784.13588    278.22998    101.55965    80.186681      46.7237      46.7237      46.7237           90           90           90     102002.7   -666.90642 
  547000       546497   -6463.4758    670.36338   -7133.8392    4401.8377   -11535.677    129.77093   -668.47434   -1353.5288   -407.44174   -129.06868    201.78131    17.741886      46.7237      46.7237      46.7237           90           90           90     102002.7   -809.81495 
  548000       547497   -6437.2173    684.07274   -7121.2901     4429.105   -11550.395    132.42483   -690.84575   -1249.6056   -442.73194   -56.185324    69.031145    372.39826      46.7237      46.7237      46.7237           90           90           90     102002.7   -794.39444 
  549000       548497   -6472.1216    675.44341    -7147.565      4399.84   -11547.405    130.75434   -636.12816   -1280.5421   -628.45683   -50.551916    183.31754   -333.69053      46.7237      46.7237      46.7237           90           90           90     102002.7    -848.3757 
  550000       549497   -6431.5778    672.93921    -7104.517    4455.8744   -11560.391    130.26957    -385.1815   -873.65677   -945.23083   -197.19011    279.10863    222.70065      46.7237      46.7237      46.7237           90           90           90     102002.7    -734.6897 
  551000       550497   -6443.6357    670.06902   -7113.7048    4424.2336   -11537.938    129.71395   -834.28148   -568.06534   -1038.1615   -31.208059     237.4421    352.52095      46.7237      46.7237      46.7237           90           90           90     102002.7   -813.50276 
  552000       551497   -6473.6922     660.8695   -7134.5617    4421.6571   -11556.219    127.93308   -793.85501   -894.54503   -1054.7879    33.052507    13.428928    52.042777      46.7237      46.7237      46.7237           90           90           90     102002.7   -914.39598 
  553000       552497   -6438.7849      679.956   -7118.7409     4427.467   -11546.208     131.6279   -814.30712   -1120.9822   -706.47923     32.05073   -251.56877   -126.07597      46.7237      46.7237      46.7237           90           90           90     102002.7   -880.58952 
  554000       553497   -6455.0249    664.06823   -7119.0932     4437.019   -11556.112     128.5523   -816.06575   -560.76015   -1193.2646    226.57137    296.24159    1.7846945      46.7237      46.7237      46.7237           90           90           90     102002.7   -856.69684 
  555000       554497   -6483.6866     667.8402   -7151.5268    4418.5163   -11570.043    129.28249   -912.34946   -1081.1955   -566.18748    92.325361    269.11659   -31.832006      46.7237      46.7237      46.7237           90           90           90     102002.7   -853.24414 
[...]
  936000       935497   -6458.8145    655.70838   -7114.5229    4425.4811   -11540.004    126.93397    -562.8678   -586.98602   -624.61442   -1.2372553   -154.77867   -37.797315      46.7237      46.7237      46.7237           90           90           90     102002.7   -591.48941 
  937000       936497   -6461.4858    666.19943   -7127.6852    4421.1146     -11548.8    128.96486    -601.6792   -25.963913   -627.05301     1.666276    155.20237   -57.924041      46.7237      46.7237      46.7237           90           90           90     102002.7   -418.23204 
  938000       937497    -6443.042    684.27268   -7127.3147    4449.6037   -11576.918    132.46353   -645.71981   -327.55046   -368.70014    324.77981   -90.574229     90.79218      46.7237      46.7237      46.7237           90           90           90     102002.7   -447.32347 
  939000       938497   -6472.3506     653.0153   -7125.3659    4425.0964   -11550.462    126.41264   -280.22962    -635.2649   -594.55998   -22.249856   -281.76807   -21.327127      46.7237      46.7237      46.7237           90           90           90     102002.7    -503.3515 
  940000       939497   -6436.1556    682.06452   -7118.2202     4432.619   -11550.839    132.03607   -496.42558   -258.29809   -228.07756   -301.58016   -256.68351   -397.02703      46.7237      46.7237      46.7237           90           90           90     102002.7   -327.60041 
  941000       940497   -6472.8664    677.35402   -7150.2204     4387.782   -11538.002     131.1242   -831.05885   -284.58029   -966.61031    247.44131   -167.15962   -19.631806      46.7237      46.7237      46.7237           90           90           90     102002.7   -694.08315 
  942000       941497   -6460.2045    664.58033   -7124.7849    4403.1925   -11527.977    128.65143   -300.86667   -436.50265   -1206.3621    96.304486   -209.18645    343.18389      46.7237      46.7237      46.7237           90           90           90     102002.7   -647.91047 
  943000       942497   -6470.7624     668.5918   -7139.3542    4409.4834   -11548.838    129.42798   -1047.0295   -854.99573   -548.16002    142.47693    -157.4396    32.181986      46.7237      46.7237      46.7237           90           90           90     102002.7    -816.7284 
  944000       943497   -6462.8216    676.66265   -7139.4843    4422.8905   -11562.375    130.99036   -875.54427    -562.5797    -572.4231   -16.033301    217.82537    65.284716      46.7237      46.7237      46.7237           90           90           90     102002.7   -670.18236 
  945000       944497   -6457.1109     664.6806   -7121.7915    4414.5791   -11536.371    128.67084   -852.96104   -863.15611   -916.20185    43.935443    29.402814    115.63671      46.7237      46.7237      46.7237           90           90           90     102002.7   -877.43966 
  946000       945497   -6462.1524    685.28315   -7147.4355    4404.0308   -11551.466    132.65914   -416.80021   -643.50171   -628.37512    29.093623   -256.23694   -5.3528475      46.7237      46.7237      46.7237           90           90           90     102002.7   -562.89235 
  947000       946497   -6493.7255    645.05817   -7138.7837    4413.9426   -11552.726    124.87227   -584.32636   -709.59346   -569.45443    208.37628    483.58268    214.34982      46.7237      46.7237      46.7237           90           90           90     102002.7   -621.12475 
  948000       947497   -6456.0799    668.33462   -7124.4146    4431.1198   -11555.534     129.3782   -970.68061   -390.46356   -1123.0839    80.336771    56.081624   -104.74398      46.7237      46.7237      46.7237           90           90           90     102002.7   -828.07603 
  949000       948497   -6482.7884    658.77965   -7141.5681    4405.9451   -11547.513    127.52852    149.44235   -340.12247   -845.90626   -138.07525   -16.414367    105.98306      46.7237      46.7237      46.7237           90           90           90     102002.7   -345.52879 
  950000       949497   -6455.3186    676.61109   -7131.9297    4417.4399    -11549.37    130.98038   -524.32936   -819.91577   -779.99194   -92.937041   -87.036278   -82.737677      46.7237      46.7237      46.7237           90           90           90     102002.7   -708.07902 
  951000       950497   -6466.0783    660.39309   -7126.4714    4422.1254   -11548.597    127.84085   -331.16262   -377.08651   -818.47913    25.499341   -146.49765    331.09915      46.7237      46.7237      46.7237           90           90           90     102002.7   -508.90942 
  952000       951497    -6482.566    659.06453   -7141.6305    4412.1577   -11553.788    127.58367   -880.98121   -1105.4001   -802.55325     -188.283   -126.80877    27.085267      46.7237      46.7237      46.7237           90           90           90     102002.7   -929.64485 
  953000       952497   -6447.2283        671.6   -7118.8283    4437.3827   -11556.211    130.01032   -1071.0696   -717.29623    -644.0089   -187.74189   -6.1940699   -67.547523      46.7237      46.7237      46.7237           90           90           90     102002.7   -810.79159 
  954000       953497   -6487.7773    665.17408   -7152.9514    4401.1861   -11554.137    128.76637   -803.41118    -745.1289   -401.36321    149.28244   -68.391625     82.42078      46.7237      46.7237      46.7237           90           90           90     102002.7   -649.96776 
  955000       954497    -6480.623    664.85403    -7145.477    4393.4559   -11538.933    128.70441   -687.99586   -571.30582   -760.73313   -22.152017   -19.320786    182.89823      46.7237      46.7237      46.7237           90           90           90     102002.7   -673.34494 
  956000       955497   -6456.5576    671.28933   -7127.8469     4414.423    -11542.27    129.95018   -1306.8801   -676.67363   -938.62468    104.43129    393.69201    43.170327      46.7237      46.7237      46.7237           90           90           90     102002.7   -974.05948 
  957000       956497    -6492.698    666.57187   -7159.2699    4398.5579   -11557.828    129.03696    -927.5484   -447.35292   -581.57634    372.29535   -230.13736    366.97621      46.7237      46.7237      46.7237           90           90           90     102002.7   -652.15922 
  958000       957497   -6470.6233    674.93751   -7145.5608    4410.8882   -11556.449     130.6564   -270.75013   -916.03989   -804.44431    206.30852   -24.502338    -165.9299      46.7237      46.7237      46.7237           90           90           90     102002.7   -663.74478 
  959000       958497   -6462.0466     671.3389   -7133.3855    4412.0513   -11545.437    129.95977    -445.1404   -873.24127   -445.25578   -28.985391   -68.500916    232.42543      46.7237      46.7237      46.7237           90           90           90     102002.7   -587.87915 
  960000       959497   -6473.5841    678.85759   -7152.4417    4392.8768   -11545.319    131.41526   -755.24233   -632.95654   -1022.9063    5.6017994   -98.733542   -130.06492      46.7237      46.7237      46.7237           90           90           90     102002.7   -803.70171 
  961000       960497   -6463.3261    667.69844   -7131.0245    4415.7566   -11546.781    129.25504   -565.96485   -609.49069   -889.66706    155.32537     145.3853   -360.30715      46.7237      46.7237      46.7237           90           90           90     102002.7    -688.3742 
  962000       961497   -6472.0118    685.29119    -7157.303    4390.9304   -11548.233     132.6607    16.336371   -723.30096   -512.22223     -62.7926    44.350079    70.666326      46.7237      46.7237      46.7237           90           90           90     102002.7   -406.39561 
  963000       962497   -6484.5906    662.99196   -7147.5826    4400.2782   -11547.861    128.34395   -720.56611    -462.8114   -121.07939    35.688348   -170.35181   -100.11028      46.7237      46.7237      46.7237           90           90           90     102002.7   -434.81897 
  964000       963497   -6465.0586    655.65753   -7120.7161    4420.6512   -11541.367    126.92413   -815.34131   -752.64064   -680.72529   -24.916258   -263.60789   -424.71598      46.7237      46.7237      46.7237           90           90           90     102002.7   -749.56908 
  965000       964497   -6470.4639    671.68459   -7142.1485    4391.2123   -11533.361    130.02669    -785.2594   -454.89416   -1005.0768   -179.51817   -79.822291   -241.07929      46.7237      46.7237      46.7237           90           90           90     102002.7   -748.41013 
  966000       965497   -6466.7981    663.78943   -7130.5875    4411.3815   -11541.969    128.49832   -748.31843    -304.8412   -364.59524    101.33062   -68.097445    9.8756772      46.7237      46.7237      46.7237           90           90           90     102002.7   -472.58495 
  967000       966497    -6450.256    678.10113   -7128.3571    4420.6052   -11548.962    131.26883     -1035.71   -1056.1592   -1131.6332    230.55796    29.395903   -147.71702      46.7237      46.7237      46.7237           90           90           90     102002.7   -1074.5008 
  968000       967497   -6490.4205    656.70781   -7147.1284    4407.9514    -11555.08    127.12744   -474.19094   -661.80089   -505.14825    14.747362   -36.154755   -215.32181      46.7237      46.7237      46.7237           90           90           90     102002.7    -547.0467 
  969000       968497   -6460.4483    675.60869    -7136.057    4418.0359   -11554.093    130.78633   -1101.3443   -1115.5394   -813.45242   -12.747023    35.387232    108.45139      46.7237      46.7237      46.7237           90           90           90     102002.7    -1010.112 
  970000       969497     -6445.93    666.99545   -7112.9254    4426.9145    -11539.84    129.11896   -683.37049   -662.60826   -1029.5061   -18.706348    188.41156   -32.468078      46.7237      46.7237      46.7237           90           90           90     102002.7   -791.82829 
  971000       970497    -6444.107    694.36247   -7138.4695       4424.2    -11562.67    134.41674   -780.50526   -1230.3583   -993.11481     191.8122   -80.818735    138.58279      46.7237      46.7237      46.7237           90           90           90     102002.7   -1001.3261 
  972000       971497   -6458.5348    682.51576   -7141.0505    4393.3777   -11534.428    132.12342    -764.3049   -988.75721   -127.72135   -353.89321   -180.10005    43.217157      46.7237      46.7237      46.7237           90           90           90     102002.7   -626.92782 
  973000       972497   -6445.2399    683.56152   -7128.8014    4417.5916   -11546.393    132.32587   -642.68858   -465.37806   -540.14654   -260.52116    133.65105   -35.563867      46.7237      46.7237      46.7237           90           90           90     102002.7   -549.40439 
  974000       973497   -6460.4183     682.6445   -7143.0628    4398.2029   -11541.266    132.14835    -807.7501   -487.22541   -821.28267    249.55576    135.32435    185.50302      46.7237      46.7237      46.7237           90           90           90     102002.7   -705.41939 
  975000       974497   -6457.3617    678.50451   -7135.8662    4405.2542    -11541.12    131.34691   -495.73753   -568.82689    -210.3049    179.73196    337.98058    103.85284      46.7237      46.7237      46.7237           90           90           90     102002.7   -424.95644 
  976000       975497   -6483.7637    664.35952   -7148.1233    4403.4178   -11551.541    128.60868   -1136.3061   -650.78898   -917.80666    14.521378    109.14071    108.01805      46.7237      46.7237      46.7237           90           90           90     102002.7   -901.63392 
  977000       976497    -6447.403    681.45869   -7128.8617     4420.737   -11549.599    131.91879   -1074.8716   -236.73788   -779.64692    294.98885    -33.76794    74.613898      46.7237      46.7237      46.7237           90           90           90     102002.7   -697.08545 
  978000       977497   -6483.8555       669.69   -7153.5455    4385.2952   -11538.841    129.64058   -577.87442   -683.14993   -402.16644   -239.27107    8.2529956    62.117297      46.7237      46.7237      46.7237           90           90           90     102002.7   -554.39693 
  979000       978497   -6463.6702    656.53484   -7120.2051    4428.4293   -11548.634    127.09396   -1051.4143   -651.95507   -786.47003    216.48772    42.613232    170.84131      46.7237      46.7237      46.7237           90           90           90     102002.7   -829.94645 
  980000       979497   -6480.2469    657.17506    -7137.422    4417.1194   -11554.541     127.2179   -749.41183   -645.43945   -650.18404    67.964544   -128.05415    72.635069      46.7237      46.7237      46.7237           90           90           90     102002.7   -681.67844 
  981000       980497   -6478.8867    666.81337   -7145.7001    4399.8198    -11545.52    129.08371   -710.48168   -250.32477   -1057.0608   -194.03054   -144.26358   -20.316287      46.7237      46.7237      46.7237           90           90           90     102002.7   -672.62243 
  982000       981497   -6444.2523    682.06043   -7126.3128     4412.754   -11539.067    132.03528    -576.1591   -285.09484   -715.13147    -65.92274   -3.0568981    1.4998489      46.7237      46.7237      46.7237           90           90           90     102002.7    -525.4618 
  983000       982497   -6482.2753    662.58261   -7144.8579    4406.3178   -11551.176    128.26471    -496.7884    -599.2361   -1071.3509   -3.3924893    145.27156    44.004921      46.7237      46.7237      46.7237           90           90           90     102002.7   -722.45847 
  984000       983497   -6444.7918    691.46968   -7136.2615    4396.2517   -11532.513    133.85675   -790.85642    85.436843   -306.46747   -191.29202    52.581324     127.9732      46.7237      46.7237      46.7237           90           90           90     102002.7   -337.29568 
  985000       984497   -6435.9894    663.62383   -7099.6132    4441.4783   -11541.092    128.46627   -588.33566   -1131.2931   -1070.1575   -21.577915   -322.53391   -135.80723      46.7237      46.7237      46.7237           90           90           90     102002.7   -929.92874 
  986000       985497   -6469.9484    654.69127   -7124.6397    4425.4323   -11550.072    126.73708   -721.21253    -915.8271   -702.22766    163.26402   -31.995139    107.57138      46.7237      46.7237      46.7237           90           90           90     102002.7   -779.75576 
  987000       986497   -6429.2126    687.01534    -7116.228    4433.1113   -11549.339    132.99447   -912.32325   -429.64056   -490.27538    206.10863   -29.227843    230.40258      46.7237      46.7237      46.7237           90           90           90     102002.7    -610.7464 
  988000       987497   -6453.7097     680.5844   -7134.2941    4408.3616   -11542.656    131.74955   -1001.7933   -1268.4346    -690.6453    -411.3779   -98.188061    158.39807      46.7237      46.7237      46.7237           90           90           90     102002.7   -986.95771 
  989000       988497   -6489.3311    643.54366   -7132.8748    4426.3539   -11559.229    124.57909   -557.92364   -958.76301   -359.12207    14.694034   -321.42544   -41.466546      46.7237      46.7237      46.7237           90           90           90     102002.7   -625.26957 
  990000       989497    -6440.804    670.69637   -7111.5004    4436.2019   -11547.702    129.83539   -846.30873   -627.25685   -597.50054   -84.536214   -243.31887    212.37412      46.7237      46.7237      46.7237           90           90           90     102002.7   -690.35538 
  991000       990497   -6474.6622    662.04964   -7136.7119    4409.2642   -11545.976    128.16153   -697.69023    -513.0628   -799.59145    -277.1205    89.603403    121.00522      46.7237      46.7237      46.7237           90           90           90     102002.7   -670.11483 
  992000       991497    -6458.839    656.90448   -7115.7435     4433.427   -11549.171    127.16552   -1324.4556   -849.12854   -889.61546    -155.0562    22.945926   -20.974561      46.7237      46.7237      46.7237           90           90           90     102002.7   -1021.0665 
  993000       992497   -6489.9438    649.69428    -7139.638    4396.0973   -11535.735    125.76974   -486.66023   -601.29932   -822.66548    171.37113   -291.67445   -136.90309      46.7237      46.7237      46.7237           90           90           90     102002.7   -636.87501 
  994000       993497   -6449.6885     674.3294   -7124.0179    4423.3444   -11547.362    130.53868   -1342.2581   -855.99735   -1122.3982    37.347847   -85.169578    45.792406      46.7237      46.7237      46.7237           90           90           90     102002.7   -1106.8845 
  995000       994497   -6442.8998     679.1338   -7122.0336    4425.8571   -11547.891    131.46873   -573.87446   -798.51871   -653.67347   -143.85162    62.789649    -14.69036      46.7237      46.7237      46.7237           90           90           90     102002.7   -675.35554 
  996000       995497   -6486.8596    655.27539    -7142.135    4396.3237   -11538.459    126.85015   -796.59561   -952.96677    -613.2535    35.685348    290.79814     57.01524      46.7237      46.7237      46.7237           90           90           90     102002.7    -787.6053 
  997000       996497   -6456.8449    672.38383   -7129.2287    4412.5548   -11541.784    130.16206   -827.33975   -1274.7177   -934.70599    105.11071    72.237422   -91.351023      46.7237      46.7237      46.7237           90           90           90     102002.7   -1012.2545 
  998000       997497   -6438.0611    676.68618   -7114.7472    4425.5501   -11540.297    130.99492   -516.70467   -930.32046   -688.08634    87.339893    28.111659    406.56405      46.7237      46.7237      46.7237           90           90           90     102002.7   -711.70382 
  999000       998497   -6451.8032    690.17768   -7141.9808    4404.4213   -11546.402    133.60664   -1065.8327    -762.8207   -777.98037    -74.72216    -99.05338   -57.873938      46.7237      46.7237      46.7237           90           90           90     102002.7   -868.87792 
 1000000       999497   -6463.0431    673.27677   -7136.3198    4413.0063   -11549.326    130.33491   -1172.0032   -786.05916   -778.91563    61.409348   -16.802882     -59.5193      46.7237      46.7237      46.7237           90           90           90     102002.7     -912.326 
 1000503      1000000   -6449.7872    669.14095   -7118.9282    4418.7351   -11537.663    129.53429   -839.39284   -759.67132   -698.70811   -137.05934    101.36701   -152.93719      46.7237      46.7237      46.7237           90           90           90     102002.7   -765.92409 
Loop time of 1446.77 on 16 procs for 500000 steps with 1734 atoms

Performance: 29.860 ns/day, 0.804 hours/ns, 345.598 timesteps/s
99.8% CPU use with 16 MPI tasks x no OpenMP threads

MPI task timing breakdown:
Section |  min time  |  avg time  |  max time  |%varavg| %total
---------------------------------------------------------------
Pair    | 552.22     | 770.07     | 995.73     | 552.2 | 53.23
Bond    | 168.8      | 183.22     | 198.2      |  61.5 | 12.66
Neigh   | 4.1686     | 4.1973     | 4.2337     |   1.2 |  0.29
Comm    | 228.91     | 461.29     | 685.15     | 742.4 | 31.88
Output  | 0.097191   | 0.10228    | 0.1028     |   0.4 |  0.01
Modify  | 21.628     | 22.586     | 23.718     |  17.6 |  1.56
Other   |            | 5.301      |            |       |  0.37

Nlocal:    108.375 ave 135 max 80 min
Histogram: 1 1 1 2 2 4 1 1 1 2
Nghost:    2204 ave 2237 max 2178 min
Histogram: 1 1 2 3 2 4 1 1 0 1
Neighs:    11455.7 ave 17961 max 7164 min
Histogram: 4 0 2 3 0 4 1 0 1 1

Total # of neighbors = 183291
Ave neighs/atom = 105.704
Ave special neighs/atom = 6.6436
Neighbor list builds = 3649
Dangerous builds = 0
Total wall time: 0:46:00
