LAMMPS (30 Mar 2018)
Reading data file ...
  orthogonal box = (0 0 0) to (46.7237 46.7237 46.7237)
  2 by 2 by 4 MPI processor grid
  reading atoms ...
  1737 atoms
  scanning bonds ...
  5 = max bonds/atom
  scanning angles ...
  10 = max angles/atom
  scanning dihedrals ...
  32 = max dihedrals/atom
  scanning impropers ...
  3 = max impropers/atom
  reading bonds ...
  2064 bonds
  reading angles ...
  3696 angles
  reading dihedrals ...
  6240 dihedrals
  reading impropers ...
  1008 impropers
Finding 1-2 1-3 1-4 neighbors ...
  special bond factors lj:   0          0          0         
  special bond factors coul: 0          0          0         
  5 = max # of 1-2 neighbors
  8 = max # of 1-3 neighbors
  20 = max # of 1-4 neighbors
  19 = max # of special neighbors
Finding 1-2 1-3 1-4 neighbors ...
  special bond factors lj:   0          0          1         
  special bond factors coul: 1          1          1         
  5 = max # of 1-2 neighbors
  8 = max # of 1-3 neighbors
  19 = max # of special neighbors
WARNING: Using 'neigh_modify every 1 delay 0 check yes' setting during minimization (../min.cpp:168)
Neighbor list info ...
  update every 1 steps, delay 0 steps, check yes
  max neighbors/atom: 2000, page size: 100000
  master list distance cutoff = 16
  ghost atom cutoff = 16
  binsize = 8, bins = 6 6 6
  3 neighbor lists, perpetual/occasional/extra = 3 0 0
  (1) pair buck6d/coul/gauss/dsf, perpetual, skip from (3)
      attributes: half, newton on
      pair build: skip
      stencil: none
      bin: none
  (2) pair lj/cut, perpetual, skip from (3)
      attributes: half, newton on
      pair build: skip
      stencil: none
      bin: none
  (3) neighbor class addition, perpetual
      attributes: half, newton on
      pair build: half/bin/newton
      stencil: half/bin/3d/newton
      bin: standard
Setting up cg style minimization ...
  Unit style    : real
  Current step  : 0
WARNING: Inconsistent image flags (../domain.cpp:786)
Per MPI rank memory allocation (min/avg/max) = 22.89 | 23.35 | 23.79 Mbytes
Step Temp E_pair E_mol TotEng Press 
       0            0   -11539.119    6482.8914   -5056.2276    6276.5762 
     505            0   -11566.597    3739.9646    -7826.632   -503.06154 
Loop time of 2.74818 on 16 procs for 505 steps with 1737 atoms

99.8% CPU use with 16 MPI tasks x no OpenMP threads

Minimization stats:
  Stopping criterion = max force evaluations
  Energy initial, next-to-last, final = 
        -5056.22764461     -7826.60696436     -7826.63200126
  Force two-norm initial, final = 2576.94 7.42072
  Force max component initial, final = 151.973 0.83991
  Final line search alpha, max atom move = 0.014116 0.0118562
  Iterations, force evaluations = 505 1000

MPI task timing breakdown:
Section |  min time  |  avg time  |  max time  |%varavg| %total
---------------------------------------------------------------
Pair    | 1.1147     | 1.5766     | 1.9811     |  18.8 | 57.37
Bond    | 0.31038    | 0.35998    | 0.42897    |   5.0 | 13.10
Neigh   | 0.016329   | 0.016436   | 0.016509   |   0.0 |  0.60
Comm    | 0.3376     | 0.75578    | 1.2237     |  27.2 | 27.50
Output  | 0          | 0          | 0          |   0.0 |  0.00
Modify  | 0          | 0          | 0          |   0.0 |  0.00
Other   |            | 0.0394     |            |       |  1.43

Nlocal:    108.562 ave 126 max 93 min
Histogram: 1 1 3 3 0 3 2 2 0 1
Nghost:    2192.31 ave 2210 max 2176 min
Histogram: 1 0 4 2 1 3 1 3 0 1
Neighs:    11443.2 ave 15512 max 7428 min
Histogram: 2 1 3 1 2 0 0 4 1 2

Total # of neighbors = 183092
Ave neighs/atom = 105.407
Ave special neighs/atom = 6.63212
Neighbor list builds = 14
Dangerous builds = 0
Neighbor list info ...
  update every 1 steps, delay 10 steps, check yes
  max neighbors/atom: 2000, page size: 100000
  master list distance cutoff = 16
  ghost atom cutoff = 16
  binsize = 8, bins = 6 6 6
  3 neighbor lists, perpetual/occasional/extra = 3 0 0
  (1) pair buck6d/coul/gauss/dsf, perpetual, skip from (3)
      attributes: half, newton on
      pair build: skip
      stencil: none
      bin: none
  (2) pair lj/cut, perpetual, skip from (3)
      attributes: half, newton on
      pair build: skip
      stencil: none
      bin: none
  (3) neighbor class addition, perpetual
      attributes: half, newton on
      pair build: half/bin/newton
      stencil: half/bin/3d/newton
      bin: standard
Setting up Verlet run ...
  Unit style    : real
  Current step  : 505
  Time step     : 1
WARNING: Inconsistent image flags (../domain.cpp:786)
Per MPI rank memory allocation (min/avg/max) = 22.54 | 22.63 | 22.73 Mbytes
Step Temp PotEng TotEng Press Volume Lx Ly Lz 
     505           91    -7826.632   -7355.7356   -292.03038     102002.7      46.7237      46.7237      46.7237 
    1000    80.337717   -7409.3161   -6993.5936   -741.66134     102002.7      46.7237      46.7237      46.7237 
    2000    88.236735   -7321.8731   -6865.2757   -492.29987     102002.7      46.7237      46.7237      46.7237 
    3000    85.639347   -7325.2706   -6882.1139   -1010.5839     102002.7      46.7237      46.7237      46.7237 
    4000    90.183018   -7355.2314   -6888.5626   -590.34622     102002.7      46.7237      46.7237      46.7237 
    5000    92.873567   -7349.4874   -6868.8958   -830.13679     102002.7      46.7237      46.7237      46.7237 
    6000    87.219677   -7348.3387   -6897.0043    -671.2995     102002.7      46.7237      46.7237      46.7237 
    7000    93.746998   -7356.4594   -6871.3481   -600.45368     102002.7      46.7237      46.7237      46.7237 
    8000    89.891947    -7358.417   -6893.2543   -668.16248     102002.7      46.7237      46.7237      46.7237 
    9000    90.811475   -7337.9747   -6868.0538   -799.22567     102002.7      46.7237      46.7237      46.7237 
   10000    92.314109    -7337.236   -6859.5394   -773.05882     102002.7      46.7237      46.7237      46.7237 
   11000    92.498632   -7347.8216   -6869.1702   -800.10466     102002.7      46.7237      46.7237      46.7237 
   12000    89.482585   -7355.3629   -6892.3186   -606.80339     102002.7      46.7237      46.7237      46.7237 
   13000    92.338044   -7348.2171   -6870.3967   -585.88194     102002.7      46.7237      46.7237      46.7237 
   14000    90.777985   -7348.6251   -6878.8775   -834.94974     102002.7      46.7237      46.7237      46.7237 
   15000     90.14833   -7339.8865   -6873.3972   -661.15027     102002.7      46.7237      46.7237      46.7237 
   16000     89.26872   -7335.5834   -6873.6458   -793.82767     102002.7      46.7237      46.7237      46.7237 
   17000    89.142627   -7352.9343   -6891.6492   -617.30484     102002.7      46.7237      46.7237      46.7237 
   18000    91.108342    -7371.581   -6900.1239   -666.90164     102002.7      46.7237      46.7237      46.7237 
   19000     91.96318   -7344.4007   -6868.5201   -669.99068     102002.7      46.7237      46.7237      46.7237 
   20000    90.404679   -7362.5541   -6894.7382   -857.49813     102002.7      46.7237      46.7237      46.7237 
   21000    94.624833   -7371.4948    -6881.841   -776.73799     102002.7      46.7237      46.7237      46.7237 
   22000    93.680391   -7356.4918   -6871.7251   -721.12518     102002.7      46.7237      46.7237      46.7237 
   23000    87.721217   -7349.3128    -6895.383   -643.92608     102002.7      46.7237      46.7237      46.7237 
   24000    95.878806   -7343.0606   -6846.9178   -565.81315     102002.7      46.7237      46.7237      46.7237 
   25000    90.749206    -7358.757   -6889.1583   -687.17253     102002.7      46.7237      46.7237      46.7237 
   26000    90.585127   -7345.8021   -6877.0525   -651.31402     102002.7      46.7237      46.7237      46.7237 
   27000    87.788446   -7351.0048   -6896.7272   -816.17046     102002.7      46.7237      46.7237      46.7237 
   28000    92.034563   -7353.3418   -6877.0918   -861.10558     102002.7      46.7237      46.7237      46.7237 
   29000    92.077222   -7344.4494   -6867.9786   -945.31497     102002.7      46.7237      46.7237      46.7237 
   30000    90.441001   -7352.1878    -6884.184   -884.12775     102002.7      46.7237      46.7237      46.7237 
   31000    91.602578   -7347.5584   -6873.5438   -490.63305     102002.7      46.7237      46.7237      46.7237 
   32000    89.929805   -7365.3905    -6900.032   -876.77873     102002.7      46.7237      46.7237      46.7237 
   33000    92.081412   -7354.3962   -6877.9037   -783.20593     102002.7      46.7237      46.7237      46.7237 
   34000    96.893489   -7346.1914    -6844.798   -772.89229     102002.7      46.7237      46.7237      46.7237 
   35000    91.888857    -7356.399    -6880.903   -883.35514     102002.7      46.7237      46.7237      46.7237 
   36000    93.767776   -7345.3731   -6860.1542    -668.1489     102002.7      46.7237      46.7237      46.7237 
   37000    89.504574   -7352.7145   -6889.5565   -707.15326     102002.7      46.7237      46.7237      46.7237 
   38000    90.182192   -7327.6181   -6860.9535   -774.67875     102002.7      46.7237      46.7237      46.7237 
   39000     90.99892   -7342.1473   -6871.2564   -765.61244     102002.7      46.7237      46.7237      46.7237 
   40000    89.225768   -7337.2029   -6875.4876   -614.28899     102002.7      46.7237      46.7237      46.7237 
   41000    89.424758   -7341.7862   -6879.0412   -531.74781     102002.7      46.7237      46.7237      46.7237 
   42000    95.457368   -7330.4214   -6836.4594    -522.1248     102002.7      46.7237      46.7237      46.7237 
   43000    94.306882   -7345.0415    -6857.033   -596.66501     102002.7      46.7237      46.7237      46.7237 
   44000    91.833077   -7346.5547   -6871.3473    -610.1089     102002.7      46.7237      46.7237      46.7237 
   45000    90.481915   -7359.8347   -6891.6192   -542.96467     102002.7      46.7237      46.7237      46.7237 
   46000    89.075526   -7344.0163   -6883.0784   -741.96021     102002.7      46.7237      46.7237      46.7237 
   47000     91.14326   -7321.4332   -6849.7954   -877.56263     102002.7      46.7237      46.7237      46.7237 
   48000    90.071164   -7360.4501   -6894.3601   -559.85404     102002.7      46.7237      46.7237      46.7237 
   49000    93.146893    -7350.307    -6868.301   -805.10479     102002.7      46.7237      46.7237      46.7237 
   50000    93.665637   -7341.9912   -6857.3009   -503.73882     102002.7      46.7237      46.7237      46.7237 
   51000      91.4966   -7351.4069   -6877.9407   -817.63979     102002.7      46.7237      46.7237      46.7237 
   52000    89.177017   -7335.4215   -6873.9584   -739.82007     102002.7      46.7237      46.7237      46.7237 
   53000    87.273371    -7350.696   -6899.0836   -661.71786     102002.7      46.7237      46.7237      46.7237 
   54000    91.247589   -7342.3048   -6870.1271    -709.1642     102002.7      46.7237      46.7237      46.7237 
   55000     91.97796   -7330.3235   -6854.3664   -408.78023     102002.7      46.7237      46.7237      46.7237 
   56000     92.74909   -7363.2605   -6883.3131   -701.99581     102002.7      46.7237      46.7237      46.7237 
   57000    88.506384   -7333.7391   -6875.7464   -523.95024     102002.7      46.7237      46.7237      46.7237 
   58000    88.268993   -7351.0213    -6894.257   -754.36424     102002.7      46.7237      46.7237      46.7237 
   59000    89.182431   -7342.6692   -6881.1781   -618.74949     102002.7      46.7237      46.7237      46.7237 
   60000     88.24665   -7330.1624   -6873.5136   -645.64711     102002.7      46.7237      46.7237      46.7237 
   61000    89.083373   -7336.2494   -6875.2709   -377.52567     102002.7      46.7237      46.7237      46.7237 
   62000    88.646321   -7345.2125   -6886.4956   -630.80392     102002.7      46.7237      46.7237      46.7237 
   63000    92.418168    -7343.944   -6865.7089   -612.42368     102002.7      46.7237      46.7237      46.7237 
   64000    91.660229   -7356.8965   -6882.5835   -908.58791     102002.7      46.7237      46.7237      46.7237 
   65000    90.864876   -7356.9713   -6886.7741   -703.87791     102002.7      46.7237      46.7237      46.7237 
   66000    92.659916   -7349.6685   -6870.1826   -751.39312     102002.7      46.7237      46.7237      46.7237 
   67000    92.510683   -7339.3807    -6860.667    -759.3853     102002.7      46.7237      46.7237      46.7237 
   68000    87.364835   -7351.5325   -6899.4469   -821.84901     102002.7      46.7237      46.7237      46.7237 
   69000    88.963754   -7338.9686   -6878.6091   -827.99143     102002.7      46.7237      46.7237      46.7237 
   70000    90.913467   -7343.4226    -6872.974   -621.31826     102002.7      46.7237      46.7237      46.7237 
   71000    91.735292   -7350.5755   -6875.8741   -1054.5207     102002.7      46.7237      46.7237      46.7237 
   72000    92.042895   -7342.3284   -6866.0352   -913.72886     102002.7      46.7237      46.7237      46.7237 
   73000    92.021619   -7347.6987   -6871.5157   -913.05539     102002.7      46.7237      46.7237      46.7237 
   74000    89.676445    -7347.205   -6883.1575   -824.90133     102002.7      46.7237      46.7237      46.7237 
   75000    92.265775   -7346.8552   -6869.4087   -835.89745     102002.7      46.7237      46.7237      46.7237 
   76000     91.54862   -7355.5533   -6881.8179   -765.44573     102002.7      46.7237      46.7237      46.7237 
   77000     89.31298   -7348.0078   -6885.8411   -650.96174     102002.7      46.7237      46.7237      46.7237 
   78000    89.646917   -7347.7488   -6883.8542   -758.70852     102002.7      46.7237      46.7237      46.7237 
   79000    90.821526   -7344.1556   -6874.1827   -541.31794     102002.7      46.7237      46.7237      46.7237 
   80000    88.567848    -7357.505   -6899.1942   -604.92634     102002.7      46.7237      46.7237      46.7237 
   81000    90.231099   -7342.0676     -6875.15   -530.72395     102002.7      46.7237      46.7237      46.7237 
   82000    94.709684    -7349.057   -6858.9641    -660.5972     102002.7      46.7237      46.7237      46.7237 
   83000    92.830416   -7338.3342    -6857.966   -394.42851     102002.7      46.7237      46.7237      46.7237 
   84000    90.465902   -7343.0045   -6874.8718    -498.6221     102002.7      46.7237      46.7237      46.7237 
   85000    91.020898   -7366.2326    -6895.228   -803.62621     102002.7      46.7237      46.7237      46.7237 
   86000    91.221972   -7338.1726   -6866.1276   -484.99499     102002.7      46.7237      46.7237      46.7237 
   87000    88.682856   -7360.5854   -6901.6795   -661.13546     102002.7      46.7237      46.7237      46.7237 
   88000    91.271367   -7357.2672   -6884.9665   -664.22665     102002.7      46.7237      46.7237      46.7237 
   89000    91.653523   -7354.8294   -6880.5512   -887.74586     102002.7      46.7237      46.7237      46.7237 
   90000    92.076266   -7340.3696   -6863.9038   -749.73461     102002.7      46.7237      46.7237      46.7237 
   91000    90.336999   -7351.8806    -6884.415    -612.3557     102002.7      46.7237      46.7237      46.7237 
   92000    90.367551   -7333.8265   -6866.2027   -837.12325     102002.7      46.7237      46.7237      46.7237 
   93000    92.990403   -7362.3154   -6881.1192   -519.13824     102002.7      46.7237      46.7237      46.7237 
   94000    91.642992   -7330.1413   -6855.9176   -651.70786     102002.7      46.7237      46.7237      46.7237 
   95000    92.324654   -7346.1076   -6868.3564   -778.23901     102002.7      46.7237      46.7237      46.7237 
   96000    92.307942   -7364.5933   -6886.9286   -611.82189     102002.7      46.7237      46.7237      46.7237 
   97000     90.15538   -7351.4344   -6884.9086    -650.5712     102002.7      46.7237      46.7237      46.7237 
   98000    92.292985   -7360.8657   -6883.2785   -532.21932     102002.7      46.7237      46.7237      46.7237 
   99000    90.001348   -7352.1641   -6886.4354   -775.89313     102002.7      46.7237      46.7237      46.7237 
  100000      93.3713   -7343.4649   -6860.2977   -733.55419     102002.7      46.7237      46.7237      46.7237 
  101000    91.394983   -7349.0158   -6876.0754   -498.77596     102002.7      46.7237      46.7237      46.7237 
  102000     92.38097   -7359.6737   -6881.6311   -487.70465     102002.7      46.7237      46.7237      46.7237 
  103000    93.090036   -7345.3316   -6863.6199   -613.46787     102002.7      46.7237      46.7237      46.7237 
  104000    91.511315   -7346.6485   -6873.1062   -613.45118     102002.7      46.7237      46.7237      46.7237 
  105000    89.200818   -7354.1519   -6892.5656   -633.39514     102002.7      46.7237      46.7237      46.7237 
  106000    90.410388   -7347.9409   -6880.0955   -618.88696     102002.7      46.7237      46.7237      46.7237 
  107000    91.018962   -7355.5374   -6884.5428   -703.77648     102002.7      46.7237      46.7237      46.7237 
  108000    91.688033   -7352.6092   -6878.1524   -570.51365     102002.7      46.7237      46.7237      46.7237 
  109000    90.312067   -7339.9034   -6872.5668    -685.2857     102002.7      46.7237      46.7237      46.7237 
  110000     92.75874   -7354.5409   -6874.5435   -677.62182     102002.7      46.7237      46.7237      46.7237 
  111000    89.821257   -7334.9584   -6870.1616   -809.56169     102002.7      46.7237      46.7237      46.7237 
  112000    92.515375   -7331.2004   -6852.4624   -512.14179     102002.7      46.7237      46.7237      46.7237 
  113000    91.921312   -7346.6359    -6870.972   -829.21274     102002.7      46.7237      46.7237      46.7237 
  114000    92.214125   -7372.3798   -6895.2006   -774.08832     102002.7      46.7237      46.7237      46.7237 
  115000    91.302588   -7343.1437   -6870.6814   -540.88787     102002.7      46.7237      46.7237      46.7237 
  116000    90.870273   -7332.7271   -6862.5019   -788.83412     102002.7      46.7237      46.7237      46.7237 
  117000    92.469363    -7359.371    -6880.871   -455.55448     102002.7      46.7237      46.7237      46.7237 
  118000    91.010383   -7340.8884   -6869.9382   -644.75015     102002.7      46.7237      46.7237      46.7237 
  119000    90.496167   -7354.1697   -6885.8805   -531.31559     102002.7      46.7237      46.7237      46.7237 
  120000    91.174554   -7352.8287    -6881.029   -697.71149     102002.7      46.7237      46.7237      46.7237 
  121000      88.5424    -7335.441   -6877.2619   -696.90313     102002.7      46.7237      46.7237      46.7237 
  122000    90.721368    -7366.285   -6896.8304   -776.52738     102002.7      46.7237      46.7237      46.7237 
  123000    91.627647   -7339.4895   -6865.3452   -662.55279     102002.7      46.7237      46.7237      46.7237 
  124000    87.317166   -7357.6783   -6905.8394   -690.03005     102002.7      46.7237      46.7237      46.7237 
  125000    91.990228   -7340.7723   -6864.7518   -869.50338     102002.7      46.7237      46.7237      46.7237 
  126000    90.029514   -7350.9275    -6885.053   -724.88529     102002.7      46.7237      46.7237      46.7237 
  127000    93.610839   -7343.4641   -6859.0573   -827.16487     102002.7      46.7237      46.7237      46.7237 
  128000    86.524875   -7328.1644   -6880.4253   -785.72789     102002.7      46.7237      46.7237      46.7237 
  129000    93.367733   -7341.3126   -6858.1639   -1094.5705     102002.7      46.7237      46.7237      46.7237 
  130000    92.010444   -7340.7233   -6864.5981     -982.525     102002.7      46.7237      46.7237      46.7237 
  131000    89.085342    -7355.286   -6894.2973   -726.94706     102002.7      46.7237      46.7237      46.7237 
  132000     90.28774   -7364.8235   -6897.6128   -885.19706     102002.7      46.7237      46.7237      46.7237 
  133000    92.213717    -7344.948    -6867.771   -1018.6837     102002.7      46.7237      46.7237      46.7237 
  134000    90.777409   -7344.0409   -6874.2963   -872.60778     102002.7      46.7237      46.7237      46.7237 
  135000    93.098053   -7345.6465   -6863.8933   -859.24264     102002.7      46.7237      46.7237      46.7237 
  136000    92.359218   -7342.8995   -6864.9695   -750.03084     102002.7      46.7237      46.7237      46.7237 
  137000    89.771025   -7351.0574   -6886.5205   -1074.8585     102002.7      46.7237      46.7237      46.7237 
  138000      91.4772   -7334.6054   -6861.2396   -801.11165     102002.7      46.7237      46.7237      46.7237 
  139000    92.149717   -7340.2753   -6863.4295   -735.91605     102002.7      46.7237      46.7237      46.7237 
  140000     86.48169   -7349.6956     -6902.18   -927.70131     102002.7      46.7237      46.7237      46.7237 
  141000    90.230164   -7337.3897   -6870.4769   -574.66243     102002.7      46.7237      46.7237      46.7237 
  142000    90.742828   -7355.4816   -6885.9159   -886.43735     102002.7      46.7237      46.7237      46.7237 
  143000    93.828746   -7340.2169   -6854.6826   -661.53329     102002.7      46.7237      46.7237      46.7237 
  144000    94.375885    -7358.608   -6870.2424   -902.39195     102002.7      46.7237      46.7237      46.7237 
  145000    91.122993   -7330.7349    -6859.202   -846.50312     102002.7      46.7237      46.7237      46.7237 
  146000    93.621292   -7358.7338    -6874.273   -849.36579     102002.7      46.7237      46.7237      46.7237 
  147000    92.178735   -7337.3367   -6860.3407   -708.97571     102002.7      46.7237      46.7237      46.7237 
  148000    93.301925   -7339.3234   -6856.5152   -793.64269     102002.7      46.7237      46.7237      46.7237 
  149000    89.375805   -7349.5078   -6887.0161   -557.61138     102002.7      46.7237      46.7237      46.7237 
  150000    94.343134   -7337.6672   -6849.4711   -734.47012     102002.7      46.7237      46.7237      46.7237 
  151000    91.426322   -7352.1693   -6879.0668   -731.71485     102002.7      46.7237      46.7237      46.7237 
  152000    90.996928   -7360.5007   -6889.6202   -812.39565     102002.7      46.7237      46.7237      46.7237 
  153000    91.162921   -7351.9909   -6880.2514   -725.40857     102002.7      46.7237      46.7237      46.7237 
  154000    90.445999   -7343.7988   -6875.7692   -723.74285     102002.7      46.7237      46.7237      46.7237 
  155000    88.868644   -7354.1102   -6894.2429    -706.4155     102002.7      46.7237      46.7237      46.7237 
  156000    89.960024   -7339.2637   -6873.7488   -624.64001     102002.7      46.7237      46.7237      46.7237 
  157000    92.183714   -7331.5505   -6854.5287    -380.8264     102002.7      46.7237      46.7237      46.7237 
  158000    90.187813   -7359.2025   -6892.5088   -610.33002     102002.7      46.7237      46.7237      46.7237 
  159000    90.674988   -7325.9057   -6856.6911   -653.92898     102002.7      46.7237      46.7237      46.7237 
  160000    91.264263    -7361.909   -6889.6451   -465.06589     102002.7      46.7237      46.7237      46.7237 
  161000    91.949474   -7344.6686   -6868.8589   -719.97679     102002.7      46.7237      46.7237      46.7237 
  162000    92.243197   -7356.8598   -6879.5302   -408.90429     102002.7      46.7237      46.7237      46.7237 
  163000    94.624562   -7338.1775   -6848.5251   -656.47042     102002.7      46.7237      46.7237      46.7237 
  164000    87.192753   -7337.1508   -6885.9557   -718.55527     102002.7      46.7237      46.7237      46.7237 
  165000    94.536019   -7337.3749   -6848.1806     -609.815     102002.7      46.7237      46.7237      46.7237 
  166000    92.020252   -7344.0333   -6867.8574   -850.97792     102002.7      46.7237      46.7237      46.7237 
  167000    92.210358   -7354.6244   -6877.4647   -397.95905     102002.7      46.7237      46.7237      46.7237 
  168000    93.026203   -7349.6365   -6868.2551   -826.47904     102002.7      46.7237      46.7237      46.7237 
  169000    92.902048    -7358.824   -6878.0851   -572.88022     102002.7      46.7237      46.7237      46.7237 
  170000    90.872423    -7346.127   -6875.8907   -604.59388     102002.7      46.7237      46.7237      46.7237 
  171000    92.541128   -7365.7787   -6886.9074   -672.77776     102002.7      46.7237      46.7237      46.7237 
  172000    90.531582   -7357.4989   -6889.0264   -826.81772     102002.7      46.7237      46.7237      46.7237 
  173000    90.352393   -7343.8952   -6876.3499   -802.42537     102002.7      46.7237      46.7237      46.7237 
  174000    90.711095   -7344.0467   -6874.6452   -601.70006     102002.7      46.7237      46.7237      46.7237 
  175000    91.446466   -7332.9936   -6859.7868   -881.77101     102002.7      46.7237      46.7237      46.7237 
  176000    91.775841   -7355.6529   -6880.7418   -586.38227     102002.7      46.7237      46.7237      46.7237 
  177000    90.094299   -7356.6876   -6890.4779   -662.91628     102002.7      46.7237      46.7237      46.7237 
  178000     95.20377   -7351.3777    -6858.728   -806.10314     102002.7      46.7237      46.7237      46.7237 
  179000    90.461328   -7372.1085   -6903.9995   -556.28991     102002.7      46.7237      46.7237      46.7237 
  180000    94.432974   -7362.3998   -6873.7388   -914.96131     102002.7      46.7237      46.7237      46.7237 
  181000     88.51273   -7359.8682   -6901.8426   -586.58037     102002.7      46.7237      46.7237      46.7237 
  182000    91.688471   -7352.4416   -6877.9826   -885.49739     102002.7      46.7237      46.7237      46.7237 
  183000    91.874841   -7351.9095    -6876.486   -662.98832     102002.7      46.7237      46.7237      46.7237 
  184000    91.412688   -7346.0627   -6873.0307   -832.81303     102002.7      46.7237      46.7237      46.7237 
  185000    86.300009   -7345.1137   -6898.5383   -906.70948     102002.7      46.7237      46.7237      46.7237 
  186000    92.425335    -7345.932   -6867.6599   -439.45729     102002.7      46.7237      46.7237      46.7237 
  187000    91.454277   -7351.3422    -6878.095   -766.37991     102002.7      46.7237      46.7237      46.7237 
  188000    89.751009   -7341.4489   -6877.0156   -614.38388     102002.7      46.7237      46.7237      46.7237 
  189000    90.301696   -7359.0446   -6891.7616   -698.39563     102002.7      46.7237      46.7237      46.7237 
  190000    92.263207   -7371.7078   -6894.2746   -816.08877     102002.7      46.7237      46.7237      46.7237 
  191000    91.004228   -7339.0184      -6868.1   -747.45913     102002.7      46.7237      46.7237      46.7237 
  192000    90.108551   -7344.3212   -6878.0377   -837.68066     102002.7      46.7237      46.7237      46.7237 
  193000    89.582229   -7352.8078   -6889.2479   -664.05399     102002.7      46.7237      46.7237      46.7237 
  194000    88.464108   -7342.6316   -6884.8576   -781.22279     102002.7      46.7237      46.7237      46.7237 
  195000    90.180669   -7335.9831   -6869.3265    -575.3509     102002.7      46.7237      46.7237      46.7237 
  196000    92.934673   -7336.0045   -6855.0968   -731.38016     102002.7      46.7237      46.7237      46.7237 
  197000    88.861559   -7342.0897    -6882.259   -660.40856     102002.7      46.7237      46.7237      46.7237 
  198000    88.898695    -7345.143   -6885.1201   -638.73326     102002.7      46.7237      46.7237      46.7237 
  199000    91.803154   -7344.2526      -6869.2   -890.56802     102002.7      46.7237      46.7237      46.7237 
  200000    89.542381   -7341.5701   -6878.2163   -568.71162     102002.7      46.7237      46.7237      46.7237 
  201000    87.834681   -7337.1114   -6882.5945    -847.3983     102002.7      46.7237      46.7237      46.7237 
  202000    91.533642   -7327.8531   -6854.1952   -809.82581     102002.7      46.7237      46.7237      46.7237 
  203000    91.541852   -7360.0927   -6886.3924   -807.55912     102002.7      46.7237      46.7237      46.7237 
  204000    90.715889   -7322.0862     -6852.66   -657.34238     102002.7      46.7237      46.7237      46.7237 
  205000     90.16014   -7356.7243   -6890.1739   -779.50101     102002.7      46.7237      46.7237      46.7237 
  206000     91.37993   -7351.5869   -6878.7244   -666.66699     102002.7      46.7237      46.7237      46.7237 
  207000    87.502147    -7359.152   -6906.3558   -927.40191     102002.7      46.7237      46.7237      46.7237 
  208000    92.913929   -7352.6987   -6871.8982   -623.41661     102002.7      46.7237      46.7237      46.7237 
  209000    91.776941   -7326.1413   -6851.2244    -859.3883     102002.7      46.7237      46.7237      46.7237 
  210000    88.472134   -7335.4187   -6877.6032   -952.96636     102002.7      46.7237      46.7237      46.7237 
  211000    90.566514   -7360.4376   -6891.7843   -625.58577     102002.7      46.7237      46.7237      46.7237 
  212000    90.857579   -7342.4172   -6872.2578   -666.41502     102002.7      46.7237      46.7237      46.7237 
  213000    90.621318   -7364.4219    -6895.485   -876.34221     102002.7      46.7237      46.7237      46.7237 
  214000    91.403413    -7346.576    -6873.592   -879.78946     102002.7      46.7237      46.7237      46.7237 
  215000    90.300519   -7345.6317   -6878.3549   -927.46104     102002.7      46.7237      46.7237      46.7237 
  216000    90.032835    -7353.277   -6887.3853   -616.87064     102002.7      46.7237      46.7237      46.7237 
  217000    91.028804   -7344.0861   -6873.0406   -888.79995     102002.7      46.7237      46.7237      46.7237 
  218000    92.212631   -7357.8592   -6880.6877   -1005.6713     102002.7      46.7237      46.7237      46.7237 
  219000    92.484749   -7345.2877   -6866.7081    -532.7992     102002.7      46.7237      46.7237      46.7237 
  220000    93.632294   -7351.9406   -6867.4229   -650.55114     102002.7      46.7237      46.7237      46.7237 
  221000    91.071475   -7361.5263     -6890.26   -746.41638     102002.7      46.7237      46.7237      46.7237 
  222000    93.353914    -7342.168   -6859.0908     -958.022     102002.7      46.7237      46.7237      46.7237 
  223000    92.572554   -7354.5083   -6875.4744   -730.71726     102002.7      46.7237      46.7237      46.7237 
  224000    90.358659   -7345.2018   -6877.6241   -624.76702     102002.7      46.7237      46.7237      46.7237 
  225000    95.792169   -7347.1812   -6851.4868   -697.18912     102002.7      46.7237      46.7237      46.7237 
  226000    88.686781   -7347.8978   -6888.9716   -581.35531     102002.7      46.7237      46.7237      46.7237 
  227000    93.100588   -7337.0379   -6855.2716   -497.01103     102002.7      46.7237      46.7237      46.7237 
  228000    91.535746   -7343.9247    -6870.256   -583.84755     102002.7      46.7237      46.7237      46.7237 
  229000    90.696763   -7348.5601   -6879.2328   -670.04656     102002.7      46.7237      46.7237      46.7237 
  230000    87.065628   -7355.4152   -6904.8779   -551.41039     102002.7      46.7237      46.7237      46.7237 
  231000    92.057071   -7344.7361   -6868.3697    -877.3589     102002.7      46.7237      46.7237      46.7237 
  232000    92.156927   -7362.8905   -6886.0073    -693.1065     102002.7      46.7237      46.7237      46.7237 
  233000    90.586543   -7340.6468   -6871.8898   -754.15614     102002.7      46.7237      46.7237      46.7237 
  234000    91.922234   -7345.0874   -6869.4187   -959.63202     102002.7      46.7237      46.7237      46.7237 
  235000    93.959367   -7345.2507   -6859.0405    -702.7472     102002.7      46.7237      46.7237      46.7237 
  236000    89.905457   -7353.7387   -6888.5061   -918.75085     102002.7      46.7237      46.7237      46.7237 
  237000    88.087667   -7323.5694   -6867.7434   -701.59477     102002.7      46.7237      46.7237      46.7237 
  238000    91.453648   -7358.5981   -6885.3542   -520.68501     102002.7      46.7237      46.7237      46.7237 
  239000    93.531434   -7348.8789    -6864.883   -969.14342     102002.7      46.7237      46.7237      46.7237 
  240000    94.743085   -7356.4908   -6866.2251   -432.69755     102002.7      46.7237      46.7237      46.7237 
  241000    88.329201   -7346.6785   -6889.6026   -646.08822     102002.7      46.7237      46.7237      46.7237 
  242000    93.143509   -7341.6603   -6859.6718   -473.52434     102002.7      46.7237      46.7237      46.7237 
  243000    93.436136   -7349.1648   -6865.6621    -619.0734     102002.7      46.7237      46.7237      46.7237 
  244000    93.763937   -7340.5512   -6855.3523   -769.51538     102002.7      46.7237      46.7237      46.7237 
  245000    89.744709   -7336.9397    -6872.539   -502.53246     102002.7      46.7237      46.7237      46.7237 
  246000    91.488255   -7355.4672   -6882.0442   -730.04398     102002.7      46.7237      46.7237      46.7237 
  247000    90.515367   -7364.3787   -6895.9901   -604.48807     102002.7      46.7237      46.7237      46.7237 
  248000    89.875273   -7338.2651   -6873.1887   -873.70801     102002.7      46.7237      46.7237      46.7237 
  249000     90.16236   -7352.0144   -6885.4525   -838.03418     102002.7      46.7237      46.7237      46.7237 
  250000    90.737843   -7366.6999     -6897.16   -645.76679     102002.7      46.7237      46.7237      46.7237 
  251000    88.382099   -7347.5725   -6890.2229   -787.61532     102002.7      46.7237      46.7237      46.7237 
  252000    90.557877   -7330.5007   -6861.8921   -798.02581     102002.7      46.7237      46.7237      46.7237 
  253000    89.517956   -7345.3323    -6882.105   -741.84609     102002.7      46.7237      46.7237      46.7237 
  254000    94.308779   -7333.1972   -6845.1789   -648.11483     102002.7      46.7237      46.7237      46.7237 
  255000    88.905163   -7340.7998   -6880.7435   -759.18081     102002.7      46.7237      46.7237      46.7237 
  256000    89.166733   -7363.9582   -6902.5483   -705.19582     102002.7      46.7237      46.7237      46.7237 
  257000    88.671737   -7333.4262   -6874.5778   -602.61254     102002.7      46.7237      46.7237      46.7237 
  258000    90.173678   -7367.1438   -6900.5233   -814.21985     102002.7      46.7237      46.7237      46.7237 
  259000    91.707703   -7364.2736    -6889.715   -621.29099     102002.7      46.7237      46.7237      46.7237 
  260000    96.389257   -7359.3649   -6860.5808    -550.8201     102002.7      46.7237      46.7237      46.7237 
  261000    88.645293   -7332.6072   -6873.8957   -783.05367     102002.7      46.7237      46.7237      46.7237 
  262000    92.138322   -7353.2774   -6876.4905   -694.51556     102002.7      46.7237      46.7237      46.7237 
  263000    89.635379   -7353.5214   -6889.6865   -480.82188     102002.7      46.7237      46.7237      46.7237 
  264000    91.719085   -7329.1857   -6854.5682   -567.48496     102002.7      46.7237      46.7237      46.7237 
  265000    87.388378   -7349.8616   -6897.6542   -634.43816     102002.7      46.7237      46.7237      46.7237 
  266000    92.805351   -7341.6261   -6861.3875   -413.27157     102002.7      46.7237      46.7237      46.7237 
  267000    90.443976   -7344.3617   -6876.3425   -588.59078     102002.7      46.7237      46.7237      46.7237 
  268000    91.992442   -7361.2264   -6885.1944   -584.39822     102002.7      46.7237      46.7237      46.7237 
  269000    89.809358   -7348.2314   -6883.4962   -464.96015     102002.7      46.7237      46.7237      46.7237 
  270000    93.184753   -7359.1238    -6876.922   -609.58917     102002.7      46.7237      46.7237      46.7237 
  271000    93.137492    -7343.833   -6861.8757   -366.40127     102002.7      46.7237      46.7237      46.7237 
  272000    90.062917   -7356.6658   -6890.6185   -706.09623     102002.7      46.7237      46.7237      46.7237 
  273000    89.498967   -7331.2587   -6868.1296   -571.69528     102002.7      46.7237      46.7237      46.7237 
  274000    88.348289   -7340.6349   -6883.4602   -700.70425     102002.7      46.7237      46.7237      46.7237 
  275000    88.901108   -7360.5007   -6900.4654    -650.2562     102002.7      46.7237      46.7237      46.7237 
  276000    91.671033   -7347.2099    -6872.841   -402.49879     102002.7      46.7237      46.7237      46.7237 
  277000    91.187313   -7351.8998    -6880.034   -542.62338     102002.7      46.7237      46.7237      46.7237 
  278000    93.143474   -7346.7615   -6864.7732    -362.0688     102002.7      46.7237      46.7237      46.7237 
  279000    91.185462   -7343.5233   -6871.6671   -671.89338     102002.7      46.7237      46.7237      46.7237 
  280000    87.276539   -7362.6754   -6911.0466   -643.20208     102002.7      46.7237      46.7237      46.7237 
  281000    93.401407   -7324.8214   -6841.4984   -1025.7151     102002.7      46.7237      46.7237      46.7237 
  282000    87.647956   -7339.7509   -6886.2002   -833.70265     102002.7      46.7237      46.7237      46.7237 
  283000     92.69885   -7335.9986   -6856.3111   -676.99188     102002.7      46.7237      46.7237      46.7237 
  284000    90.217977    -7347.393   -6880.5433   -686.08584     102002.7      46.7237      46.7237      46.7237 
  285000    94.022389    -7325.918   -6839.3816   -546.68965     102002.7      46.7237      46.7237      46.7237 
  286000    88.236111   -7343.8597   -6887.2655   -637.32908     102002.7      46.7237      46.7237      46.7237 
  287000     91.30421   -7333.5514   -6861.0807   -634.42395     102002.7      46.7237      46.7237      46.7237 
  288000    91.160552   -7360.5931   -6888.8658   -723.32562     102002.7      46.7237      46.7237      46.7237 
  289000    86.799038    -7349.921   -6900.7633   -663.35724     102002.7      46.7237      46.7237      46.7237 
  290000    92.313291   -7356.3459   -6878.6535   -678.95127     102002.7      46.7237      46.7237      46.7237 
  291000    93.124293   -7334.2995   -6852.4105   -823.24598     102002.7      46.7237      46.7237      46.7237 
  292000    90.317402   -7353.9746   -6886.6104   -555.76712     102002.7      46.7237      46.7237      46.7237 
  293000    90.625126   -7360.2149   -6891.2583   -791.83181     102002.7      46.7237      46.7237      46.7237 
  294000    91.418544   -7349.9852   -6876.9229   -558.16002     102002.7      46.7237      46.7237      46.7237 
  295000    89.505278   -7355.5026   -6892.3408   -975.33916     102002.7      46.7237      46.7237      46.7237 
  296000    91.479804   -7348.5057   -6875.1264   -877.00739     102002.7      46.7237      46.7237      46.7237 
  297000    94.638353   -7367.2347    -6877.511    -794.1249     102002.7      46.7237      46.7237      46.7237 
  298000    92.238552   -7332.2564   -6854.9508   -841.61058     102002.7      46.7237      46.7237      46.7237 
  299000    90.960622     -7363.06   -6892.3673   -787.45152     102002.7      46.7237      46.7237      46.7237 
  300000    92.112501    -7346.671   -6870.0177   -687.57651     102002.7      46.7237      46.7237      46.7237 
  301000     89.29467   -7350.3084   -6888.2365   -813.63885     102002.7      46.7237      46.7237      46.7237 
  302000    92.226711   -7352.9977   -6875.7534   -934.83872     102002.7      46.7237      46.7237      46.7237 
  303000     89.63719   -7344.1815   -6880.3372   -912.61027     102002.7      46.7237      46.7237      46.7237 
  304000     91.32227   -7344.9335   -6872.3694    -835.6027     102002.7      46.7237      46.7237      46.7237 
  305000    88.458542   -7351.5232    -6893.778     -823.559     102002.7      46.7237      46.7237      46.7237 
  306000     92.36572   -7343.8808   -6865.9172   -823.75368     102002.7      46.7237      46.7237      46.7237 
  307000    91.072996   -7356.8203   -6885.5461   -501.35908     102002.7      46.7237      46.7237      46.7237 
  308000    93.775064    -7352.552   -6867.2954   -822.30099     102002.7      46.7237      46.7237      46.7237 
  309000    88.437286   -7353.2716   -6895.6364   -635.88532     102002.7      46.7237      46.7237      46.7237 
  310000    94.903761   -7360.7989   -6869.7018   -715.69621     102002.7      46.7237      46.7237      46.7237 
  311000    90.945399   -7341.7588   -6871.1449   -785.92981     102002.7      46.7237      46.7237      46.7237 
  312000    90.998435   -7352.0168   -6881.1284   -726.56345     102002.7      46.7237      46.7237      46.7237 
  313000    91.312969    -7369.118   -6896.6021   -535.38504     102002.7      46.7237      46.7237      46.7237 
  314000    90.123178   -7338.8722    -6872.513      -732.03     102002.7      46.7237      46.7237      46.7237 
  315000    93.780314   -7346.4857    -6861.202   -549.31217     102002.7      46.7237      46.7237      46.7237 
  316000    92.140852   -7363.4627   -6886.6627    -600.8555     102002.7      46.7237      46.7237      46.7237 
  317000    89.088078   -7347.6092   -6886.6064   -869.01522     102002.7      46.7237      46.7237      46.7237 
  318000    92.661592   -7342.4672   -6862.9726   -609.45553     102002.7      46.7237      46.7237      46.7237 
  319000    91.920988   -7343.5072    -6867.845   -1040.4931     102002.7      46.7237      46.7237      46.7237 
  320000     89.04315   -7354.4514    -6893.681   -509.38787     102002.7      46.7237      46.7237      46.7237 
  321000    90.236827   -7350.3934   -6883.4461    -999.9019     102002.7      46.7237      46.7237      46.7237 
  322000    92.708953   -7316.3645   -6836.6248   -974.57807     102002.7      46.7237      46.7237      46.7237 
  323000    89.485361   -7352.9715   -6889.9128    -756.9517     102002.7      46.7237      46.7237      46.7237 
  324000    89.875615    -7346.438   -6881.3599   -977.02804     102002.7      46.7237      46.7237      46.7237 
  325000    92.519338    -7354.179   -6875.4205   -489.97278     102002.7      46.7237      46.7237      46.7237 
  326000    86.975014   -7348.5539   -6898.4855   -780.18931     102002.7      46.7237      46.7237      46.7237 
  327000     90.07124   -7346.3734    -6880.283   -639.80772     102002.7      46.7237      46.7237      46.7237 
  328000    89.786972    -7354.415   -6889.7956   -756.97234     102002.7      46.7237      46.7237      46.7237 
  329000    90.840525   -7344.0186   -6873.9474   -936.49185     102002.7      46.7237      46.7237      46.7237 
  330000    90.686893   -7357.4286   -6888.1523   -921.25839     102002.7      46.7237      46.7237      46.7237 
  331000    88.360249   -7348.2689   -6891.0323   -943.09557     102002.7      46.7237      46.7237      46.7237 
  332000    89.080272   -7338.6331   -6877.6706   -812.15731     102002.7      46.7237      46.7237      46.7237 
  333000    89.332469   -7347.0546   -6884.7871   -952.42626     102002.7      46.7237      46.7237      46.7237 
  334000    91.832701    -7344.179   -6868.9735   -754.70656     102002.7      46.7237      46.7237      46.7237 
  335000    88.689582   -7345.6782   -6886.7374   -944.45105     102002.7      46.7237      46.7237      46.7237 
  336000    91.081502   -7336.2758   -6864.9576   -726.72402     102002.7      46.7237      46.7237      46.7237 
  337000    87.048843   -7347.3964   -6896.9459   -750.22202     102002.7      46.7237      46.7237      46.7237 
  338000    90.292617   -7336.5412   -6869.3053   -781.09058     102002.7      46.7237      46.7237      46.7237 
  339000    92.409045   -7371.3828    -6893.195   -652.07462     102002.7      46.7237      46.7237      46.7237 
  340000    92.223658   -7351.8885     -6874.66   -306.91505     102002.7      46.7237      46.7237      46.7237 
  341000    90.508279   -7346.2112   -6877.8593   -495.21114     102002.7      46.7237      46.7237      46.7237 
  342000    90.430037   -7324.9488   -6857.0017   -587.30039     102002.7      46.7237      46.7237      46.7237 
  343000    91.233909   -7352.0535   -6879.9467   -459.12361     102002.7      46.7237      46.7237      46.7237 
  344000     96.37406    -7354.878   -6856.1725   -472.26262     102002.7      46.7237      46.7237      46.7237 
  345000    90.269362   -7357.4428   -6890.3272   -624.17556     102002.7      46.7237      46.7237      46.7237 
  346000      87.8039   -7342.5537   -6888.1961   -566.95132     102002.7      46.7237      46.7237      46.7237 
  347000    90.387122    -7348.847    -6881.122   -622.85838     102002.7      46.7237      46.7237      46.7237 
  348000    91.358701   -7349.7334   -6876.9807    -624.8187     102002.7      46.7237      46.7237      46.7237 
  349000    90.171263   -7361.3018   -6894.6938   -712.89554     102002.7      46.7237      46.7237      46.7237 
  350000    92.054432   -7331.0021   -6854.6493   -724.49586     102002.7      46.7237      46.7237      46.7237 
  351000    89.179543   -7345.5787   -6884.1025   -742.18904     102002.7      46.7237      46.7237      46.7237 
  352000     92.85368   -7342.7112   -6862.2226   -886.68331     102002.7      46.7237      46.7237      46.7237 
  353000    91.015261   -7338.1366   -6867.1612   -683.14918     102002.7      46.7237      46.7237      46.7237 
  354000    88.985688   -7353.2424   -6892.7694   -922.18983     102002.7      46.7237      46.7237      46.7237 
  355000    90.664987    -7346.191   -6877.0281   -767.02258     102002.7      46.7237      46.7237      46.7237 
  356000    88.701804    -7344.655    -6885.651    -953.8879     102002.7      46.7237      46.7237      46.7237 
  357000    89.436163   -7339.7464   -6876.9423   -1034.8184     102002.7      46.7237      46.7237      46.7237 
  358000     89.86795   -7352.6022   -6887.5637   -888.65009     102002.7      46.7237      46.7237      46.7237 
  359000    92.913331   -7345.9277   -6865.1304   -785.77498     102002.7      46.7237      46.7237      46.7237 
  360000    90.147458   -7351.0324   -6884.5476   -993.10305     102002.7      46.7237      46.7237      46.7237 
  361000    92.115313   -7366.5197   -6889.8518   -810.33737     102002.7      46.7237      46.7237      46.7237 
  362000    94.330981   -7344.2689   -6856.1357   -770.90595     102002.7      46.7237      46.7237      46.7237 
  363000    92.272543   -7359.1117   -6881.6302   -922.46891     102002.7      46.7237      46.7237      46.7237 
  364000    90.834648   -7345.4028    -6875.362   -636.16721     102002.7      46.7237      46.7237      46.7237 
  365000    89.459294    -7354.815   -6891.8912   -732.99221     102002.7      46.7237      46.7237      46.7237 
  366000    92.931802   -7345.9245   -6865.0316   -494.64774     102002.7      46.7237      46.7237      46.7237 
  367000    87.344599   -7359.0408   -6907.0599   -310.32935     102002.7      46.7237      46.7237      46.7237 
  368000    92.513314   -7349.3532   -6870.6258   -941.87278     102002.7      46.7237      46.7237      46.7237 
  369000    89.839703   -7338.3442   -6873.4519   -732.62283     102002.7      46.7237      46.7237      46.7237 
  370000    91.660425   -7349.1252   -6874.8112   -645.70045     102002.7      46.7237      46.7237      46.7237 
  371000    90.513689   -7357.3593   -6888.9794   -804.42104     102002.7      46.7237      46.7237      46.7237 
  372000    94.315701   -7331.5267   -6843.4725   -934.20566     102002.7      46.7237      46.7237      46.7237 
  373000    92.171737   -7339.4642   -6862.5043    -733.0206     102002.7      46.7237      46.7237      46.7237 
  374000    90.269913   -7344.8883   -6877.7698   -342.18173     102002.7      46.7237      46.7237      46.7237 
  375000     91.32633   -7363.2833   -6890.6982   -705.98824     102002.7      46.7237      46.7237      46.7237 
  376000    89.436768   -7332.6623   -6869.8551   -607.23053     102002.7      46.7237      46.7237      46.7237 
  377000    89.714082   -7348.3171   -6884.0749   -556.00658     102002.7      46.7237      46.7237      46.7237 
  378000    94.501596   -7342.0395   -6853.0234   -831.08083     102002.7      46.7237      46.7237      46.7237 
  379000    92.790739   -7346.8977   -6866.7347    -654.1673     102002.7      46.7237      46.7237      46.7237 
  380000    90.697991   -7339.1727    -6869.839   -770.57802     102002.7      46.7237      46.7237      46.7237 
  381000    87.176621    -7352.149   -6901.0373   -734.42448     102002.7      46.7237      46.7237      46.7237 
  382000     90.16234   -7350.5416   -6883.9797    -741.9681     102002.7      46.7237      46.7237      46.7237 
  383000    92.750092   -7337.0205   -6857.0679   -795.60534     102002.7      46.7237      46.7237      46.7237 
  384000    89.901389   -7351.9701   -6886.7586   -989.14307     102002.7      46.7237      46.7237      46.7237 
  385000     91.78275   -7340.3952   -6865.4483   -695.46061     102002.7      46.7237      46.7237      46.7237 
  386000    90.283242   -7366.5781   -6899.3907   -873.83231     102002.7      46.7237      46.7237      46.7237 
  387000    91.420125   -7345.5649   -6872.4945   -854.04188     102002.7      46.7237      46.7237      46.7237 
  388000    89.502932   -7358.2967   -6895.1471   -504.43314     102002.7      46.7237      46.7237      46.7237 
  389000    92.975286   -7360.8208   -6879.7029   -814.15765     102002.7      46.7237      46.7237      46.7237 
  390000    96.644191   -7364.9991   -6864.8957   -780.49043     102002.7      46.7237      46.7237      46.7237 
  391000    90.355884   -7346.2811   -6878.7177   -617.88168     102002.7      46.7237      46.7237      46.7237 
  392000     90.75544    -7339.141     -6869.51   -737.59302     102002.7      46.7237      46.7237      46.7237 
  393000    91.248196   -7364.6304   -6892.4496    -684.6463     102002.7      46.7237      46.7237      46.7237 
  394000    90.276125   -7338.7719   -6871.6213   -644.02992     102002.7      46.7237      46.7237      46.7237 
  395000    91.879938   -7344.3859   -6868.9361   -526.94555     102002.7      46.7237      46.7237      46.7237 
  396000    92.190318   -7355.9916   -6878.9356   -714.18411     102002.7      46.7237      46.7237      46.7237 
  397000    87.147613    -7351.068   -6900.1064   -598.20014     102002.7      46.7237      46.7237      46.7237 
  398000    92.122776   -7345.0113   -6868.3049   -713.50024     102002.7      46.7237      46.7237      46.7237 
  399000    90.754624   -7358.2806   -6888.6539   -619.86249     102002.7      46.7237      46.7237      46.7237 
  400000    89.867821    -7365.043   -6900.0052   -772.84295     102002.7      46.7237      46.7237      46.7237 
  401000     90.35109   -7345.2252   -6877.6866    -748.9004     102002.7      46.7237      46.7237      46.7237 
  402000    90.668458   -7359.2679    -6890.087   -659.58018     102002.7      46.7237      46.7237      46.7237 
  403000    88.291942   -7340.7448   -6883.8617   -855.65409     102002.7      46.7237      46.7237      46.7237 
  404000    91.807808   -7351.3007   -6876.2241   -796.08076     102002.7      46.7237      46.7237      46.7237 
  405000    91.841378   -7366.6935   -6891.4432   -798.05792     102002.7      46.7237      46.7237      46.7237 
  406000    91.065138   -7343.4678   -6872.2342   -972.06058     102002.7      46.7237      46.7237      46.7237 
  407000    87.063634   -7353.6138   -6903.0868   -882.09291     102002.7      46.7237      46.7237      46.7237 
  408000    89.668054   -7339.1089   -6875.1048   -792.65248     102002.7      46.7237      46.7237      46.7237 
  409000    89.900053   -7358.7347   -6893.5302   -747.62979     102002.7      46.7237      46.7237      46.7237 
  410000    91.943268   -7347.0186    -6871.241   -740.77813     102002.7      46.7237      46.7237      46.7237 
  411000    90.838169   -7359.1985   -6889.1394   -771.88726     102002.7      46.7237      46.7237      46.7237 
  412000    88.123951   -7357.1943   -6901.1805   -809.32848     102002.7      46.7237      46.7237      46.7237 
  413000    91.746784   -7345.5368    -6870.776   -642.08878     102002.7      46.7237      46.7237      46.7237 
  414000    89.426781   -7363.6529   -6900.8974   -940.57856     102002.7      46.7237      46.7237      46.7237 
  415000    91.483444   -7347.2461    -6873.848   -871.40664     102002.7      46.7237      46.7237      46.7237 
  416000    91.624892   -7358.0428   -6883.9127   -749.60434     102002.7      46.7237      46.7237      46.7237 
  417000    89.677612   -7341.7331   -6877.6796   -703.94711     102002.7      46.7237      46.7237      46.7237 
  418000    91.443797   -7334.6845   -6861.4915   -799.82009     102002.7      46.7237      46.7237      46.7237 
  419000    88.480917   -7355.8252   -6897.9642   -706.92331     102002.7      46.7237      46.7237      46.7237 
  420000    91.042368   -7338.1942   -6867.0785   -566.07724     102002.7      46.7237      46.7237      46.7237 
  421000    92.401229   -7330.9392   -6852.7918   -722.10507     102002.7      46.7237      46.7237      46.7237 
  422000    91.372351   -7358.3153    -6885.492   -464.91788     102002.7      46.7237      46.7237      46.7237 
  423000     91.35311   -7345.8209   -6873.0973   -874.23637     102002.7      46.7237      46.7237      46.7237 
  424000     90.52753   -7348.7306    -6880.279   -550.72066     102002.7      46.7237      46.7237      46.7237 
  425000    91.524812    -7334.775   -6861.1628   -787.49122     102002.7      46.7237      46.7237      46.7237 
  426000     89.82471   -7343.2671   -6878.4524   -519.76082     102002.7      46.7237      46.7237      46.7237 
  427000    90.429142   -7341.1907   -6873.2482   -595.30837     102002.7      46.7237      46.7237      46.7237 
  428000    88.861312   -7362.1538   -6902.3244   -511.80697     102002.7      46.7237      46.7237      46.7237 
  429000    90.813373    -7333.199   -6863.2683   -842.28483     102002.7      46.7237      46.7237      46.7237 
  430000    88.767024    -7349.364   -6890.0225   -740.68444     102002.7      46.7237      46.7237      46.7237 
  431000    88.218709   -7351.6583   -6895.1542   -764.43423     102002.7      46.7237      46.7237      46.7237 
  432000     88.77852    -7331.565    -6872.164   -755.01557     102002.7      46.7237      46.7237      46.7237 
  433000    90.577733   -7351.1359   -6882.4246   -686.05187     102002.7      46.7237      46.7237      46.7237 
  434000    91.060359   -7344.9705   -6873.7617   -725.48522     102002.7      46.7237      46.7237      46.7237 
  435000    93.574985   -7371.5078   -6887.2866   -588.93435     102002.7      46.7237      46.7237      46.7237 
  436000    89.270596   -7342.1452   -6880.1979   -802.08325     102002.7      46.7237      46.7237      46.7237 
  437000    91.935168   -7358.2722   -6882.5365   -596.37501     102002.7      46.7237      46.7237      46.7237 
  438000    90.890273   -7336.4173   -6866.0887   -618.34502     102002.7      46.7237      46.7237      46.7237 
  439000    93.223328    -7356.091   -6873.6895   -570.43449     102002.7      46.7237      46.7237      46.7237 
  440000    92.709437   -7342.7627   -6863.0204   -563.39171     102002.7      46.7237      46.7237      46.7237 
  441000     91.11026   -7344.7327   -6873.2657   -766.32679     102002.7      46.7237      46.7237      46.7237 
  442000    87.933344   -7349.6166   -6894.5891   -538.34497     102002.7      46.7237      46.7237      46.7237 
  443000    92.634024   -7349.2184   -6869.8663   -655.92592     102002.7      46.7237      46.7237      46.7237 
  444000    90.809633   -7356.5072   -6886.5958   -730.53925     102002.7      46.7237      46.7237      46.7237 
  445000    93.481924   -7350.8459   -6867.1062     -515.826     102002.7      46.7237      46.7237      46.7237 
  446000    94.243796   -7345.1675   -6857.4855    -632.8446     102002.7      46.7237      46.7237      46.7237 
  447000    90.335348   -7360.1486   -6892.6915   -563.11769     102002.7      46.7237      46.7237      46.7237 
  448000    91.408622   -7355.4898   -6882.4789   -858.46252     102002.7      46.7237      46.7237      46.7237 
  449000    86.963948   -7341.3825   -6891.3713    -650.6341     102002.7      46.7237      46.7237      46.7237 
  450000    90.496621   -7348.1571   -6879.8655   -505.40915     102002.7      46.7237      46.7237      46.7237 
  451000     91.40905   -7345.1128   -6872.0997   -529.63155     102002.7      46.7237      46.7237      46.7237 
  452000    90.639554   -7344.7506   -6875.7193   -596.10662     102002.7      46.7237      46.7237      46.7237 
  453000    92.424861   -7345.9261   -6867.6564   -439.13116     102002.7      46.7237      46.7237      46.7237 
  454000    89.537566   -7361.5695   -6898.2407   -836.97392     102002.7      46.7237      46.7237      46.7237 
  455000    91.584575    -7344.698   -6870.7765   -939.54781     102002.7      46.7237      46.7237      46.7237 
  456000    92.033812   -7373.1366   -6896.8905   -589.14676     102002.7      46.7237      46.7237      46.7237 
  457000    93.353513   -7344.0034   -6860.9283   -866.10875     102002.7      46.7237      46.7237      46.7237 
  458000    91.151767   -7337.4053   -6865.7235   -844.25487     102002.7      46.7237      46.7237      46.7237 
  459000    93.760591   -7340.8709   -6855.6893    -778.6819     102002.7      46.7237      46.7237      46.7237 
  460000    91.430803   -7352.5399   -6879.4142   -586.29417     102002.7      46.7237      46.7237      46.7237 
  461000    91.206051   -7358.6461   -6886.6834    -771.2245     102002.7      46.7237      46.7237      46.7237 
  462000    92.805724   -7334.1639   -6853.9234   -604.89869     102002.7      46.7237      46.7237      46.7237 
  463000    88.606122    -7346.704   -6888.1951   -746.96746     102002.7      46.7237      46.7237      46.7237 
  464000    91.531019   -7354.8667   -6881.2224   -780.99863     102002.7      46.7237      46.7237      46.7237 
  465000    92.366314   -7348.5392   -6870.5725   -763.07376     102002.7      46.7237      46.7237      46.7237 
  466000     94.62456   -7352.7809   -6863.1285   -980.16912     102002.7      46.7237      46.7237      46.7237 
  467000    89.925609    -7349.507   -6884.1702   -828.53509     102002.7      46.7237      46.7237      46.7237 
  468000     92.47355   -7354.1113   -6875.5897   -868.10984     102002.7      46.7237      46.7237      46.7237 
  469000    86.473364   -7336.5711   -6889.0986   -947.49443     102002.7      46.7237      46.7237      46.7237 
  470000    91.827446   -7344.1667   -6868.9885   -1135.4349     102002.7      46.7237      46.7237      46.7237 
  471000    90.733731   -7342.0853   -6872.5667   -605.46404     102002.7      46.7237      46.7237      46.7237 
  472000    92.245093   -7357.8686   -6880.5292   -760.24729     102002.7      46.7237      46.7237      46.7237 
  473000    91.667901   -7350.4375   -6876.0849   -866.39464     102002.7      46.7237      46.7237      46.7237 
  474000    88.419688    -7350.026   -6892.4818   -690.55389     102002.7      46.7237      46.7237      46.7237 
  475000    93.612657   -7351.2662   -6866.8501    -752.9856     102002.7      46.7237      46.7237      46.7237 
  476000    91.291067   -7358.7416    -6886.339   -768.79338     102002.7      46.7237      46.7237      46.7237 
  477000     90.51843   -7365.4638   -6897.0594   -886.75804     102002.7      46.7237      46.7237      46.7237 
  478000    88.260359   -7333.4076   -6876.6879   -419.78766     102002.7      46.7237      46.7237      46.7237 
  479000    91.659839   -7353.9742   -6879.6633   -470.48778     102002.7      46.7237      46.7237      46.7237 
  480000    93.654619   -7345.5689   -6860.9357   -694.86229     102002.7      46.7237      46.7237      46.7237 
  481000    90.928025   -7356.0246   -6885.5006   -578.36043     102002.7      46.7237      46.7237      46.7237 
  482000    95.136971   -7367.3346   -6875.0306   -797.09495     102002.7      46.7237      46.7237      46.7237 
  483000    91.598356   -7340.0944   -6866.1017   -561.20242     102002.7      46.7237      46.7237      46.7237 
  484000     91.91211   -7356.3546   -6880.7382   -629.92388     102002.7      46.7237      46.7237      46.7237 
  485000    93.031819   -7343.9165    -6862.506   -821.27456     102002.7      46.7237      46.7237      46.7237 
  486000    89.563269   -7354.9701   -6891.5083   -466.80499     102002.7      46.7237      46.7237      46.7237 
  487000    90.711533   -7338.8478   -6869.4441   -680.92164     102002.7      46.7237      46.7237      46.7237 
  488000    89.797695    -7347.529   -6882.8541   -727.89184     102002.7      46.7237      46.7237      46.7237 
  489000    92.943602   -7329.9592   -6849.0052   -611.63014     102002.7      46.7237      46.7237      46.7237 
  490000    90.777142   -7354.8794   -6885.1362   -656.88066     102002.7      46.7237      46.7237      46.7237 
  491000    92.164828   -7333.7974   -6856.8733   -806.19594     102002.7      46.7237      46.7237      46.7237 
  492000    89.689568   -7349.8126   -6885.6972   -605.81893     102002.7      46.7237      46.7237      46.7237 
  493000    93.233009   -7356.7885    -6874.337    -416.1195     102002.7      46.7237      46.7237      46.7237 
  494000    92.391099   -7345.0237   -6866.9288   -687.50054     102002.7      46.7237      46.7237      46.7237 
  495000    89.374636   -7340.6511   -6878.1654   -627.26271     102002.7      46.7237      46.7237      46.7237 
  496000    92.766045   -7349.5039   -6869.4688   -543.63938     102002.7      46.7237      46.7237      46.7237 
  497000    90.113631   -7362.6946   -6896.3848   -586.89378     102002.7      46.7237      46.7237      46.7237 
  498000    89.087904   -7335.3453   -6874.3434   -578.89343     102002.7      46.7237      46.7237      46.7237 
  499000    91.566264   -7335.3157    -6861.489   -632.50866     102002.7      46.7237      46.7237      46.7237 
  500000    90.089402   -7351.8627   -6885.6783   -619.11253     102002.7      46.7237      46.7237      46.7237 
  500505    91.267952   -7346.4553   -6874.1723   -908.89041     102002.7      46.7237      46.7237      46.7237 
Loop time of 1271.44 on 16 procs for 500000 steps with 1737 atoms

Performance: 33.977 ns/day, 0.706 hours/ns, 393.256 timesteps/s
99.8% CPU use with 16 MPI tasks x no OpenMP threads

MPI task timing breakdown:
Section |  min time  |  avg time  |  max time  |%varavg| %total
---------------------------------------------------------------
Pair    | 486.65     | 684.49     | 875.82     | 489.1 | 53.84
Bond    | 167.29     | 173.9      | 181.8      |  34.1 | 13.68
Neigh   | 3.0389     | 3.0604     | 3.0729     |   0.7 |  0.24
Comm    | 201.99     | 396.62     | 601.3      | 655.3 | 31.19
Output  | 0.02031    | 0.020708   | 0.02368    |   0.5 |  0.00
Modify  | 7.0306     | 8.0411     | 9.0866     |  25.2 |  0.63
Other   |            | 5.3        |            |       |  0.42

Nlocal:    108.562 ave 135 max 95 min
Histogram: 3 3 1 4 1 1 1 1 0 1
Nghost:    2206.06 ave 2221 max 2183 min
Histogram: 1 1 0 2 1 3 0 3 4 1
Neighs:    11455.3 ave 16871 max 7554 min
Histogram: 3 0 3 1 3 2 2 1 0 1

Total # of neighbors = 183285
Ave neighs/atom = 105.518
Ave special neighs/atom = 6.63212
Neighbor list builds = 2679
Dangerous builds = 0
Neighbor list info ...
  update every 1 steps, delay 10 steps, check yes
  max neighbors/atom: 2000, page size: 100000
  master list distance cutoff = 16
  ghost atom cutoff = 16
  binsize = 8, bins = 6 6 6
  3 neighbor lists, perpetual/occasional/extra = 3 0 0
  (1) pair buck6d/coul/gauss/dsf, perpetual, skip from (3)
      attributes: half, newton on
      pair build: skip
      stencil: none
      bin: none
  (2) pair lj/cut, perpetual, skip from (3)
      attributes: half, newton on
      pair build: skip
      stencil: none
      bin: none
  (3) neighbor class addition, perpetual
      attributes: half, newton on
      pair build: half/bin/newton
      stencil: half/bin/3d/newton
      bin: standard
Setting up Verlet run ...
  Unit style    : real
  Current step  : 500505
  Time step     : 1
WARNING: Inconsistent image flags (../domain.cpp:786)
Per MPI rank memory allocation (min/avg/max) = 22.87 | 23.26 | 23.33 Mbytes
Step Time TotEng KinEng PotEng E_mol E_pair Temp Pxx Pyy Pzz Pxy Pxz Pyz Cella Cellb Cellc CellAlpha CellBeta CellGamma Volume Press 
  500505       500000   -6874.1723    472.28302   -7346.4553    4234.4012   -11580.856    91.267952   -1134.0779   -659.44891   -933.14445   -48.841449    50.314321    39.667027      46.7237      46.7237      46.7237           90           90           90     102002.7   -908.89041 
  501000       500495   -6873.3788    475.60985   -7348.9886    4208.0187   -11557.007    91.910858   -854.09643   -774.85399   -786.66199   -32.929195    197.88722   -192.40404      46.7237      46.7237      46.7237           90           90           90     102002.7   -805.20414 
  502000       501495   -6859.1489    473.31503    -7332.464    4228.9693   -11561.433    91.467386   -719.79207   -800.94048   -1000.4578     70.22091   -92.828326   -117.44909      46.7237      46.7237      46.7237           90           90           90     102002.7   -840.39677 
  503000       502495   -6881.7957    466.25529    -7348.051    4224.2945   -11572.346    90.103103   -809.57425   -325.16476   -877.89301    259.86596   -81.007156    140.76551      46.7237      46.7237      46.7237           90           90           90     102002.7   -670.87734 
  504000       503495   -6878.4512    472.73041   -7351.1816    4216.8945   -11568.076     91.35441      -832.71    -597.1994   -785.14388     273.0629   -269.02284     116.6249      46.7237      46.7237      46.7237           90           90           90     102002.7   -738.35109 
  505000       504495   -6877.8032    471.12894   -7348.9322    4198.6767   -11547.609    91.044929   -180.42846   -550.06407   -765.49141    42.553551   -89.482115   -122.08365      46.7237      46.7237      46.7237           90           90           90     102002.7   -498.66131 
  506000       505495   -6876.9193    473.27476   -7350.1941    4225.9583   -11576.152    91.459605   -753.89799   -623.27038    -660.6401   -42.893203   -110.86494    121.33797      46.7237      46.7237      46.7237           90           90           90     102002.7   -679.26949 
  507000       506495   -6884.2754    470.95209   -7355.2275    4212.4108   -11567.638    91.010752   -789.63893   -1022.2221   -321.85944    128.88822   -14.844508    20.885033      46.7237      46.7237      46.7237           90           90           90     102002.7   -711.24015 
  508000       507495   -6861.9474    478.50266   -7340.4501    4221.4965   -11561.947    92.469889   -618.65076   -811.32478   -606.70021   -84.192752    113.87378   -41.461717      46.7237      46.7237      46.7237           90           90           90     102002.7   -678.89192 
  509000       508495   -6870.2808    471.55142   -7341.8322    4213.5298   -11555.362    91.126572   -1052.4584   -691.16292   -1060.7707    95.664763   -17.732667    172.90331      46.7237      46.7237      46.7237           90           90           90     102002.7   -934.79731 
  510000       509495   -6899.9657    453.22887   -7353.1945    4217.8523   -11571.047    87.585767   -1090.9593   -736.27824   -445.56085    37.715023   -59.728858    99.252653      46.7237      46.7237      46.7237           90           90           90     102002.7   -757.59946 
  511000       510495   -6878.2893    473.74556   -7352.0348    4198.1642   -11550.199    91.550587   -882.86172   -484.35743   -663.50763    2.8830911   -10.292598   -178.25273      46.7237      46.7237      46.7237           90           90           90     102002.7   -676.90893 
  512000       511495   -6860.3682    465.85694   -7326.2251     4247.841   -11574.066    90.026123   -1005.5277   -786.75683   -950.00057    57.234434   -220.78844   -131.66661      46.7237      46.7237      46.7237           90           90           90     102002.7   -914.09503 
  513000       512495   -6884.3613    466.88318   -7351.2444    4233.3686   -11584.613    90.224443   -938.64457   -968.81905   -737.85009    63.473839   -103.13396   -62.595556      46.7237      46.7237      46.7237           90           90           90     102002.7   -881.77124 
  514000       513495   -6879.2106    473.22046    -7352.431    4199.2293    -11551.66    91.449112   -679.33916   -1127.2164   -745.55044   -37.401904   -89.728728    139.39485      46.7237      46.7237      46.7237           90           90           90     102002.7     -850.702 
  515000       514495   -6885.4969     453.7578   -7339.2547    4229.2933   -11568.548    87.687983   -979.99318   -810.86372   -1045.9648    138.25304   -288.64169   -153.10862      46.7237      46.7237      46.7237           90           90           90     102002.7   -945.60722 
  516000       515495   -6870.6268    482.24983   -7352.8766    4217.5102   -11570.387    93.194023   -670.29897   -862.40111   -973.95995    69.990431    68.187743    94.480596      46.7237      46.7237      46.7237           90           90           90     102002.7   -835.55334 
  517000       516495   -6897.7344    477.42307   -7375.1574     4177.709   -11552.866    92.261259   -719.43833   -963.38468   -246.29189   -93.263423   -138.20366    244.56214      46.7237      46.7237      46.7237           90           90           90     102002.7    -643.0383 
  518000       517495   -6873.3807    463.26696   -7336.6476    4227.8994   -11564.547    89.525613   -995.71994   -918.37225   -507.56655    122.57597    138.48565   -121.54856      46.7237      46.7237      46.7237           90           90           90     102002.7   -807.21958 
  519000       518495    -6892.531    457.22378   -7349.7548    4205.8508   -11555.606    88.357779   -930.06903   -329.42215   -687.70675    168.11615    131.71583    40.732606      46.7237      46.7237      46.7237           90           90           90     102002.7   -649.06598 
  520000       519495   -6877.1644    464.18991   -7341.3543    4222.6265   -11563.981    89.703972   -418.25227   -535.77841   -692.05294    65.365352    87.379398   -121.34809      46.7237      46.7237      46.7237           90           90           90     102002.7   -548.69454 
  521000       520495   -6901.2564    454.72151   -7355.9779    4200.9238   -11556.902    87.874219   -1299.5528    -251.5306   -365.49162   -5.1804445    174.19415   -32.857072      46.7237      46.7237      46.7237           90           90           90     102002.7   -638.85833 
  522000       521495   -6885.7217    457.99619   -7343.7179    4212.2587   -11555.977    88.507046   -514.18124   -921.05421   -886.99506    -2.808221   -22.028283   -350.85214      46.7237      46.7237      46.7237           90           90           90     102002.7   -774.07684 
  523000       522495   -6894.9089    462.47718   -7357.3861    4210.3318   -11567.718    89.372989   -335.78432   -683.90796   -566.52095    -54.06894    71.649239   -215.85899      46.7237      46.7237      46.7237           90           90           90     102002.7   -528.73775 
  524000       523495   -6866.9603    487.86858   -7354.8289    4208.0259   -11562.855    94.279837   -585.16756   -689.88707   -936.90679    96.130545    2.5773554   -29.213473      46.7237      46.7237      46.7237           90           90           90     102002.7   -737.32047 
  525000       524495   -6888.2862    455.44098   -7343.7272    4208.6663   -11552.393    88.013256   -816.33984   -1207.6789   -395.57858   -324.08746     147.7558    191.48226      46.7237      46.7237      46.7237           90           90           90     102002.7   -806.53245 
  526000       525495    -6881.544    468.45807   -7350.0021    4210.1318   -11560.134    90.528786   -684.46625   -986.73154    -727.1997   -174.15104    102.71209   -58.656041      46.7237      46.7237      46.7237           90           90           90     102002.7   -799.46583 
  527000       526495   -6878.1282    469.01382    -7347.142    4228.8386   -11575.981    90.636186   -743.58596    -738.3964   -648.33993   -8.2482648     163.9591    6.9761838      46.7237      46.7237      46.7237           90           90           90     102002.7   -710.10743 
  528000       527495   -6875.0586    468.05697   -7343.1156     4204.247   -11547.363    90.451276   -505.78375   -734.00981   -563.64589   -94.177813    12.140197   -25.029185      46.7237      46.7237      46.7237           90           90           90     102002.7   -601.14648 
  529000       528495   -6920.7666    454.58582   -7375.3524    4195.1587   -11570.511    87.847996    -494.1515   -777.61046   -853.06274   -87.028692    62.640344    31.619869      46.7237      46.7237      46.7237           90           90           90     102002.7    -708.2749 
  530000       529495   -6876.7896    481.72954   -7358.5191    4215.0671   -11573.586    93.093477    -700.7581   -839.75129   -596.82054    -51.87007   -46.201103   -181.85694      46.7237      46.7237      46.7237           90           90           90     102002.7   -712.44331 
  531000       530495   -6885.4191    470.96387    -7356.383    4213.4532   -11569.836    91.013029   -704.55465   -775.27164   -758.13298   -140.18139    9.2927026   -123.57826      46.7237      46.7237      46.7237           90           90           90     102002.7   -745.98642 
  532000       531495   -6901.0411    472.61694    -7373.658    4203.7391   -11577.397    91.332482   -968.79393   -636.23726   -802.02078    29.977854     188.0713   -248.52032      46.7237      46.7237      46.7237           90           90           90     102002.7   -802.35065 
  533000       532495   -6874.7594    487.41793   -7362.1773     4199.657   -11561.834    94.192751   -724.69206   -592.39557    -714.5826   -141.15873    171.67617    65.054361      46.7237      46.7237      46.7237           90           90           90     102002.7   -677.22341 
  534000       533495   -6870.7569    479.58239   -7350.3393    4227.1935   -11577.533    92.678544   -862.58035   -663.57521   -908.61444    -83.64936   -54.015866    129.86159      46.7237      46.7237      46.7237           90           90           90     102002.7      -811.59 
  535000       534495    -6882.206    473.78466   -7355.9907    4213.9162   -11569.907    91.558143   -827.27406    -375.8843   -696.34193    -123.3748    51.569189   -314.18331      46.7237      46.7237      46.7237           90           90           90     102002.7   -633.16676 
  536000       535495   -6889.9113    465.91332   -7355.8247    4204.7775   -11560.602    90.037019   -715.85498    -954.1827   -667.80615   -32.489266   -87.187941   -105.86289      46.7237      46.7237      46.7237           90           90           90     102002.7   -779.28128 
  537000       536495   -6862.5429    490.34775   -7352.8906    4213.9772   -11566.868    94.758934   -631.45661   -612.19534    -586.8724    181.66995    95.740811   -130.51293      46.7237      46.7237      46.7237           90           90           90     102002.7   -610.17478 
  538000       537495   -6891.0547    467.50004   -7358.5548     4201.717   -11560.272    90.343649   -522.32639   -717.18192   -387.88917    48.897699     71.37041   -27.536919      46.7237      46.7237      46.7237           90           90           90     102002.7   -542.46583 
  539000       538495   -6874.4438    492.32022    -7366.764    4201.5304   -11568.294    95.140109   -525.38618   -602.05284   -387.49948    180.41375   -227.78539   -7.0649746      46.7237      46.7237      46.7237           90           90           90     102002.7    -504.9795 
  540000       539495   -6870.8974    474.10295   -7345.0004    4215.6606   -11560.661    91.619651   -411.84419   -672.47248    -333.0098    80.129184    -38.50586   -54.307524      46.7237      46.7237      46.7237           90           90           90     102002.7   -472.44216 
  541000       540495   -6882.3627     468.3829   -7350.7456     4222.905   -11573.651    90.514262   -617.14816   -671.71667   -466.53769    176.23189    228.05416    67.704936      46.7237      46.7237      46.7237           90           90           90     102002.7   -585.13417 
  542000       541495   -6859.6381    474.75909   -7334.3972    4225.1182   -11559.515     91.74645   -510.20244   -903.12831   -557.99207    -118.0719   -128.14094   -161.68566      46.7237      46.7237      46.7237           90           90           90     102002.7   -657.10761 
  543000       542495   -6893.4185     454.8993   -7348.3178    4221.7945   -11570.112    87.908576   -612.47459   -779.10902   -485.92503   -67.770792    24.983074   -91.845342      46.7237      46.7237      46.7237           90           90           90     102002.7   -625.83621 
  544000       543495   -6881.2543     464.9784   -7346.2327    4223.4698   -11569.703    89.856346   -808.40918   -255.09854   -637.01798   -104.94813    282.17447    73.007307      46.7237      46.7237      46.7237           90           90           90     102002.7    -566.8419 
  545000       544495   -6874.1616    460.98868   -7335.1503    4236.5742   -11571.725    89.085339   -561.76474   -871.93955   -553.50758   -223.22728    94.798733    142.86339      46.7237      46.7237      46.7237           90           90           90     102002.7   -662.40396 
  546000       545495    -6885.424    461.92418   -7347.3482    4228.8425   -11576.191    89.266123   -474.20907   -766.84303   -782.86638    133.41461   -206.01031    39.654994      46.7237      46.7237      46.7237           90           90           90     102002.7   -674.63949 
  547000       546495   -6876.7802    473.14005   -7349.9202     4211.096   -11561.016    91.433573   -500.86474   -669.78404   -613.69944   -56.172919    -51.22554    62.080951      46.7237      46.7237      46.7237           90           90           90     102002.7   -594.78274 
  548000       547495   -6856.8278    491.42913   -7348.2569    4220.0551   -11568.312    94.967909   -741.96143   -539.80496   -474.54285     161.4472   -354.84873    257.95372      46.7237      46.7237      46.7237           90           90           90     102002.7   -585.43641 
  549000       548495   -6868.0796    487.73831   -7355.8179     4215.447   -11571.265    94.254664   -853.68804   -721.95812   -780.47414    78.588517   -33.940486     96.38455      46.7237      46.7237      46.7237           90           90           90     102002.7   -785.37344 
  550000       549495   -6893.4781    458.83883   -7352.3169    4204.2892   -11556.606    88.669883   -1020.8804   -617.51031   -682.27408    46.672606   -67.348307    71.028407      46.7237      46.7237      46.7237           90           90           90     102002.7   -773.55494 
  551000       550495   -6868.4312    482.47562   -7350.9068    4221.8132    -11572.72    93.237657     -775.695   -774.53298   -1238.3524   -200.27476    90.597708   -143.25753      46.7237      46.7237      46.7237           90           90           90     102002.7   -929.52679 
  552000       551495   -6860.6679    484.32043   -7344.9884    4216.8028   -11561.791    93.594163   -688.47298   -617.30252   -1351.9498    131.33774   -214.24526    18.553919      46.7237      46.7237      46.7237           90           90           90     102002.7   -885.90843 
  553000       552495   -6885.9431    477.43034   -7363.3734    4194.3406   -11557.714    92.262664   -512.59262   -964.05376   -345.98174   -3.6321416   -102.41623    198.57735      46.7237      46.7237      46.7237           90           90           90     102002.7   -607.54271 
  554000       553495   -6876.5772    455.20401   -7331.7812    4233.0699   -11564.851    87.967461   -681.06142   -866.19754   -994.60355   -101.21449    226.07406   -28.049151      46.7237      46.7237      46.7237           90           90           90     102002.7    -847.2875 
  555000       554495   -6861.9215    480.67476   -7342.5963    4223.4223   -11566.019    92.889643    -739.8213   -620.84664   -775.48175   -130.57492   -12.742474     23.01191      46.7237      46.7237      46.7237           90           90           90     102002.7    -712.0499 
[...]
  936000       935495   -6888.5712    459.40228   -7347.9734    4213.5737   -11561.547    88.778771   -710.71082   -1003.5518   -543.57789   -237.83544   -56.075243   -17.597552      46.7237      46.7237      46.7237           90           90           90     102002.7   -752.61349 
  937000       936495   -6870.4629    477.24878   -7347.7117    4224.1457   -11571.857    92.227579   -742.43759   -843.81959   -1090.7089    54.254418   -131.65149    200.77334      46.7237      46.7237      46.7237           90           90           90     102002.7   -892.32204 
  938000       937495   -6881.4933    476.02798   -7357.5212    4205.3892    -11562.91    91.991661   -706.07932   -551.49134   -821.37925    58.153219   -155.11691    7.0561126      46.7237      46.7237      46.7237           90           90           90     102002.7   -692.98331 
  939000       938495   -6876.1326    467.36257   -7343.4952    4210.5886   -11554.084    90.317084   -807.23963    -1001.287   -760.54852   -25.121398   -164.98389    111.04702      46.7237      46.7237      46.7237           90           90           90     102002.7   -856.35839 
  940000       939495   -6903.0832     462.4514   -7365.5346    4197.1161   -11562.651    89.368008   -1052.6597   -1133.4525   -479.72864   -21.510817  -0.59824054   -109.94491      46.7237      46.7237      46.7237           90           90           90     102002.7   -888.61361 
  941000       940495   -6875.2012     471.6832   -7346.8844    4219.0903   -11565.975    91.152039   -785.21736   -820.60151   -797.60632    8.6095159    148.91751    52.834025      46.7237      46.7237      46.7237           90           90           90     102002.7   -801.14173 
  942000       941495    -6883.476    478.32635   -7361.8024     4211.508    -11573.31    92.435816   -862.88298   -1110.7827   -744.24906   -123.45283    108.93945    137.76109      46.7237      46.7237      46.7237           90           90           90     102002.7   -905.97159 
  943000       942495   -6855.9786    483.80415   -7339.7828    4219.5483   -11559.331    93.494392   -653.54261   -993.34456   -491.36932    -28.37954    -57.32684   -249.83327      46.7237      46.7237      46.7237           90           90           90     102002.7   -712.75216 
  944000       943495   -6879.1584    470.43592   -7349.5943    4222.5794   -11572.174    90.911004   -709.32599   -859.87572   -516.27727    118.47655   -59.400336    -163.7209      46.7237      46.7237      46.7237           90           90           90     102002.7   -695.15966 
  945000       944495   -6896.7518    466.27571   -7363.0275    4179.3842   -11542.412     90.10705   -1170.1817   -860.11571   -957.29986    147.58419   -89.169384   -29.049756      46.7237      46.7237      46.7237           90           90           90     102002.7   -995.86574 
  946000       945495   -6871.6918    481.23972   -7352.9316    4213.2552   -11566.187     92.99882   -566.07672   -572.02574   -437.74311   -126.77678   -159.04459    202.85761      46.7237      46.7237      46.7237           90           90           90     102002.7   -525.28186 
  947000       946495    -6860.539    486.39822   -7346.9372    4216.1879   -11563.125    93.995693   -1059.2314   -611.69549   -427.28086   -49.314948   0.75290915   -37.267459      46.7237      46.7237      46.7237           90           90           90     102002.7   -699.40259 
  948000       947495   -6851.9869    485.09121   -7337.0781    4230.3288   -11567.407    93.743115    -682.0889   -824.31171   -1183.7805    140.05097    21.194266   -60.818323      46.7237      46.7237      46.7237           90           90           90     102002.7   -896.72702 
  949000       948495    -6885.814    456.74228   -7342.5563    4232.3321   -11574.888     88.26473   -703.71001   -258.01063   -902.86155   -152.39656    191.27512   -39.351111      46.7237      46.7237      46.7237           90           90           90     102002.7    -621.5274 
  950000       949495   -6887.6853    461.75673    -7349.442    4215.8158   -11565.258    89.233764   -799.45088   -800.85248   -662.93036    122.93319   -13.432904   -129.20939      46.7237      46.7237      46.7237           90           90           90     102002.7   -754.41124 
  951000       950495    -6877.254     482.7277   -7359.9817    4206.0179       -11566     93.28637   -612.63777   -709.93291   -654.76443    46.715266   -7.2120355    20.294165      46.7237      46.7237      46.7237           90           90           90     102002.7    -659.1117 
  952000       951495   -6874.0588    478.36503   -7352.4239    4205.6134   -11558.037    92.443291   -623.51515   -905.26817   -714.65381    232.96249   -35.407659    36.427214      46.7237      46.7237      46.7237           90           90           90     102002.7   -747.81238 
  953000       952495   -6886.3615    463.51561   -7349.8771    4220.7238   -11570.601    89.573664   -441.25572   -685.03224   -1013.9499   -14.063022   0.77435845    7.5634583      46.7237      46.7237      46.7237           90           90           90     102002.7    -713.4126 
  954000       953495   -6888.7799    456.98124   -7345.7611    4220.5331   -11566.294    88.310907   -966.97692   -400.56024   -426.81554    195.64876    88.268997    122.40456      46.7237      46.7237      46.7237           90           90           90     102002.7   -598.11757 
  955000       954495   -6895.9152    473.61102   -7369.5262    4204.6081   -11574.134    91.524587   -709.01954   -826.06575   -861.01315   -173.74975   -3.5788666    153.60259      46.7237      46.7237      46.7237           90           90           90     102002.7   -798.69948 
  956000       955495   -6880.6923    466.40434   -7347.0966    4217.2756   -11564.372    90.131907   -895.17918   -631.27983   -963.81874   -52.054145    -47.95104    27.112525      46.7237      46.7237      46.7237           90           90           90     102002.7   -830.09259 
  957000       956495   -6878.0203    472.21229   -7350.2326    4218.2905   -11568.523    91.254284   -951.82244   -512.56015   -714.94678    159.55997    219.41209    38.806726      46.7237      46.7237      46.7237           90           90           90     102002.7   -726.44312 
  958000       957495   -6887.9757    470.61907   -7358.5947    4207.9874   -11566.582    90.946397   -243.99141   -659.53072   -391.78031   -144.44845   -48.078631    101.67657      46.7237      46.7237      46.7237           90           90           90     102002.7   -431.76748 
  959000       958495   -6829.3474    485.93769   -7315.2851    4245.1039   -11560.389    93.906695   -1165.5763   -656.87454   -909.64461   -142.32819    38.909324   -206.12185      46.7237      46.7237      46.7237           90           90           90     102002.7   -910.69847 
  960000       959495   -6883.9134    474.22928   -7358.1427    4213.0505   -11571.193    91.644065   -550.86251   -502.13678   -560.80172   -163.30693   -92.355908   -224.63378      46.7237      46.7237      46.7237           90           90           90     102002.7   -537.93367 
  961000       960495   -6871.4381     479.5056   -7350.9437    4219.0883   -11570.032    92.663704   -554.25677   -761.77227    -682.8332    108.68061   -48.509561    18.609452      46.7237      46.7237      46.7237           90           90           90     102002.7   -666.28742 
  962000       961495   -6862.3006    466.23066   -7328.5313    4239.2261   -11567.757    90.098343   -668.13657   -867.90907    -594.9404   -192.36671   -156.88805   -114.94557      46.7237      46.7237      46.7237           90           90           90     102002.7   -710.32868 
  963000       962495   -6882.4851    464.59357   -7347.0787    4222.6327   -11569.711    89.781978   -926.03598   -509.07535    -425.2766    29.392545    27.108952   -102.64178      46.7237      46.7237      46.7237           90           90           90     102002.7   -620.12931 
  964000       963495    -6849.306    480.03944   -7329.3454    4229.6409   -11558.986    92.766869   -552.00685   -931.73609   -493.99857    -76.03472   -239.62952    35.251853      46.7237      46.7237      46.7237           90           90           90     102002.7   -659.24717 
  965000       964495    -6877.855    472.04548   -7349.9005    4222.1687   -11572.069    91.222049   -446.22007   -826.16833    -970.3755    243.61102   -84.984255    19.647766      46.7237      46.7237      46.7237           90           90           90     102002.7   -747.58797 
  966000       965495   -6877.7836    469.07341   -7346.8571    4211.9723   -11558.829      90.6477   -740.00779   -781.78394   -917.86309    84.953021     187.5964    -41.10091      46.7237      46.7237      46.7237           90           90           90     102002.7   -813.21828 
  967000       966495   -6884.1905    461.21758   -7345.4081    4215.7402   -11561.148    89.129574   -1135.0182   -876.51049   -328.16815   -111.27279     73.93516   -5.6826479      46.7237      46.7237      46.7237           90           90           90     102002.7   -779.89896 
  968000       967495   -6872.2404    471.28533   -7343.5258    4232.4654   -11575.991    91.075151   -899.64099   -871.70908   -1087.8708   -58.893753    23.245537   -26.206688      46.7237      46.7237      46.7237           90           90           90     102002.7   -953.07361 
  969000       968495   -6898.1051    447.42241   -7345.5275    4221.4493   -11566.977    86.463678    -511.6599   -586.28653   -1206.4004   -230.76271     123.8491    192.36913      46.7237      46.7237      46.7237           90           90           90     102002.7   -768.11562 
  970000       969495   -6874.7132    482.37163   -7357.0848    4219.1673   -11576.252    93.217561   -988.38075   -683.57873   -679.63307    15.623584     28.08136    231.25669      46.7237      46.7237      46.7237           90           90           90     102002.7   -783.86418 
  971000       970495   -6886.8274    478.92918   -7365.7566    4194.6393   -11560.396    92.552313    -616.7089   -699.86645   -648.54142    96.537187    112.34495   -111.32451      46.7237      46.7237      46.7237           90           90           90     102002.7   -655.03892 
  972000       971495   -6885.2381    469.18847   -7354.4266    4198.6942   -11553.121    90.669936   -699.04875   -673.03054   -594.81529   -33.199749   -115.45171   -60.328468      46.7237      46.7237      46.7237           90           90           90     102002.7   -655.63153 
  973000       972495   -6894.8331    465.24905   -7360.0822    4218.8996   -11578.982     89.90865   -666.40023   -439.29582   -603.00429    36.010259    78.739157    163.18536      46.7237      46.7237      46.7237           90           90           90     102002.7   -569.56678 
  974000       973495   -6874.2727    477.20785   -7351.4805    4204.8646   -11556.345    92.219668   -528.56568   -339.83936    -51.44555    233.07707    98.907314   -24.590612      46.7237      46.7237      46.7237           90           90           90     102002.7   -306.61686 
  975000       974495   -6897.3965    460.12886   -7357.5253    4218.4162   -11575.942    88.919181   -923.72278   -644.34564   -1115.9094   -65.624162   -92.586353    177.72195      46.7237      46.7237      46.7237           90           90           90     102002.7   -894.65928 
  976000       975495   -6876.8179    473.36399   -7350.1819    4220.9876    -11571.17    91.476848   -424.93613   -575.68308    -649.6646    2.5688988   -120.56817   -197.65658      46.7237      46.7237      46.7237           90           90           90     102002.7    -550.0946 
  977000       976495   -6881.2237    464.51244   -7345.7361     4217.087   -11562.823      89.7663    -635.1207   -710.29771   -653.99429   -31.833097    7.9410427    157.24922      46.7237      46.7237      46.7237           90           90           90     102002.7    -666.4709 
  978000       977495    -6898.314    466.58567   -7364.8997    4196.2042   -11561.104     90.16695   -383.60795   -615.02863   -960.96976    57.602126   -151.01304    93.609314      46.7237      46.7237      46.7237           90           90           90     102002.7   -653.20211 
  979000       978495   -6871.9124    474.66685   -7346.5793    4209.3402   -11555.919    91.728625    -553.2014   -728.18528   -228.69815    290.09834   -79.163931   -13.834619      46.7237      46.7237      46.7237           90           90           90     102002.7   -503.36161 
  980000       979495   -6899.5758    464.64884   -7364.2246    4206.5092   -11570.734    89.792659   -426.54264   -735.37957   -240.49941    5.9668176   -279.18513    192.10773      46.7237      46.7237      46.7237           90           90           90     102002.7   -467.47388 
  981000       980495    -6877.601     463.0452   -7340.6462    4228.2858   -11568.932    89.482759   -548.67783    -671.9889   -827.01668    34.208327   -6.8512062    112.51247      46.7237      46.7237      46.7237           90           90           90     102002.7   -682.56113 
  982000       981495   -6882.4165    474.57558   -7356.9921    4211.3793   -11568.371    91.710986   -440.23328   -830.66298   -825.10243    69.369383    303.25708   -26.549065      46.7237      46.7237      46.7237           90           90           90     102002.7   -698.66623 
  983000       982495   -6871.5243    465.09998   -7336.6243     4220.533   -11557.157    89.879842   -619.00019   -949.31352   -511.21531    51.562494    44.184085    121.58958      46.7237      46.7237      46.7237           90           90           90     102002.7   -693.17634 
  984000       983495    -6888.609     468.0896   -7356.6986    4203.7163   -11560.415     90.45758   -161.76672   -747.92917   -466.27132    53.365456    348.35595   -214.95333      46.7237      46.7237      46.7237           90           90           90     102002.7   -458.65574 
  985000       984495    -6882.125    463.46745   -7345.5924     4213.727   -11559.319    89.564359    -484.6132   -559.31178   -775.99513    -187.9001    43.808219    95.460601      46.7237      46.7237      46.7237           90           90           90     102002.7   -606.64004 
  986000       985495   -6881.9876    476.96999   -7358.9576    4215.5212   -11574.479    92.173702   -713.18296   -248.01534   -830.50495   -40.101434     165.7562    10.690696      46.7237      46.7237      46.7237           90           90           90     102002.7   -597.23441 
  987000       986495   -6871.9021    480.52147   -7352.4236    4218.0065    -11570.43     92.86002   -418.35299   -873.11817   -200.08381   -103.66669   -15.214565   -59.209663      46.7237      46.7237      46.7237           90           90           90     102002.7   -497.18499 
  988000       987495   -6875.4228    472.94199   -7348.3648    4214.2034   -11562.568    91.395298   -463.23162    -341.9269   -82.006284   -194.91222   -55.934753    162.71964      46.7237      46.7237      46.7237           90           90           90     102002.7    -295.7216 
  989000       988495   -6883.3721    471.28558   -7354.6577    4200.8353   -11555.493    91.075199   -605.24287   -566.49203    -218.8421    247.06608   -101.54272   -48.082351      46.7237      46.7237      46.7237           90           90           90     102002.7   -463.52567 
  990000       989495   -6875.1634    478.89715   -7354.0606    4222.0241   -11576.085    92.546122   -260.49297   -500.54434   -277.33621   -169.50635   -4.3128018    133.42819      46.7237      46.7237      46.7237           90           90           90     102002.7   -346.12451 
  991000       990495   -6902.1588     456.6807   -7358.8395    4221.8285   -11580.668    88.252829   -692.14592   -549.72905    -475.8533    -67.54316    236.29945   -51.537467      46.7237      46.7237      46.7237           90           90           90     102002.7   -572.57609 
  992000       991495    -6862.775    476.52894    -7339.304    4213.4935   -11552.797    92.088471   -133.41836   -440.58552   -1017.6666   -69.278722    78.359337   -41.249995      46.7237      46.7237      46.7237           90           90           90     102002.7   -530.55684 
  993000       992495   -6905.4822    453.32671   -7358.8089    4217.1664   -11575.975    87.604676   -416.31605   -560.28074   -362.37686   -100.43609    104.07244   -55.706575      46.7237      46.7237      46.7237           90           90           90     102002.7   -446.32455 
  994000       993495   -6874.6917    483.81357   -7358.5052    4218.1723   -11576.678    93.496213   -1109.1484   -719.80821   -687.37759   -104.31135    21.482528    82.269559      46.7237      46.7237      46.7237           90           90           90     102002.7   -838.77808 
  995000       994495   -6877.0712    468.69173    -7345.763    4205.9695   -11551.732    90.573942   -1114.3126   -558.77863   -1019.3813   -21.514405     369.8163    86.444555      46.7237      46.7237      46.7237           90           90           90     102002.7   -897.49086 
  996000       995495   -6883.3903    456.51781   -7339.9081    4219.2961   -11559.204    88.221351   -810.27396   -695.36742   -707.17306    191.89284    87.716911    35.165984      46.7237      46.7237      46.7237           90           90           90     102002.7   -737.60481 
  997000       996495   -6879.7411     464.4068   -7344.1479    4225.6782   -11569.826    89.745886   -816.83127   -838.77991   -1183.7552    91.397991    11.985125    -42.37545      46.7237      46.7237      46.7237           90           90           90     102002.7   -946.45545 
  998000       997495   -6866.3037    480.98501   -7347.2887    4229.8137   -11577.102    92.949599   -556.28025    -1048.263   -715.70018    59.585986   -65.846985    33.324469      46.7237      46.7237      46.7237           90           90           90     102002.7   -773.41449 
  999000       998495   -6880.9314    473.47299   -7354.4044    4209.8698   -11564.274    91.497913    -418.0312   -773.91975   -627.22073   -8.7301833   -120.21956    119.15729      46.7237      46.7237      46.7237           90           90           90     102002.7   -606.39056 
 1000000       999495   -6875.4046    470.83351   -7346.2381    4232.1241   -11578.362    90.987837    -1184.075   -744.05436   -1158.5779    228.49577    9.6286612   -122.81372      46.7237      46.7237      46.7237           90           90           90     102002.7   -1028.9024 
 1000505      1000000   -6868.5111     466.1112   -7334.6223    4213.2727   -11547.895    90.075259   -358.54009    -919.3146   -884.07486   -82.075027    113.45589    93.351112      46.7237      46.7237      46.7237           90           90           90     102002.7   -720.64318 
Loop time of 1404.54 on 16 procs for 500000 steps with 1737 atoms

Performance: 30.757 ns/day, 0.780 hours/ns, 355.987 timesteps/s
99.9% CPU use with 16 MPI tasks x no OpenMP threads

MPI task timing breakdown:
Section |  min time  |  avg time  |  max time  |%varavg| %total
---------------------------------------------------------------
Pair    | 557.14     | 768.55     | 957.42     | 480.2 | 54.72
Bond    | 172.37     | 183.22     | 191.98     |  37.2 | 13.04
Neigh   | 3.1695     | 3.1881     | 3.2023     |   0.6 |  0.23
Comm    | 236.51     | 422.14     | 637.21     | 646.7 | 30.05
Output  | 0.095498   | 0.10063    | 0.10109    |   0.4 |  0.01
Modify  | 20.982     | 22.083     | 23.225     |  16.6 |  1.57
Other   |            | 5.27       |            |       |  0.38

Nlocal:    108.562 ave 123 max 90 min
Histogram: 2 1 0 0 1 4 2 4 1 1
Nghost:    2201.56 ave 2220 max 2187 min
Histogram: 1 2 2 5 0 3 0 0 0 3
Neighs:    11449.1 ave 15117 max 7800 min
Histogram: 1 2 2 3 0 1 1 2 3 1

Total # of neighbors = 183185
Ave neighs/atom = 105.461
Ave special neighs/atom = 6.63212
Neighbor list builds = 2785
Dangerous builds = 0
Total wall time: 0:44:38
