LAMMPS (30 Mar 2018)
Reading data file ...
  orthogonal box = (0 0 0) to (46.7237 46.7237 46.7237)
  2 by 3 by 4 MPI processor grid
  reading atoms ...
  2034 atoms
  scanning bonds ...
  5 = max bonds/atom
  scanning angles ...
  10 = max angles/atom
  scanning dihedrals ...
  32 = max dihedrals/atom
  scanning impropers ...
  3 = max impropers/atom
  reading bonds ...
  2064 bonds
  reading angles ...
  3696 angles
  reading dihedrals ...
  6240 dihedrals
  reading impropers ...
  1008 impropers
Finding 1-2 1-3 1-4 neighbors ...
  special bond factors lj:   0          0          0         
  special bond factors coul: 0          0          0         
  5 = max # of 1-2 neighbors
  8 = max # of 1-3 neighbors
  20 = max # of 1-4 neighbors
  19 = max # of special neighbors
Finding 1-2 1-3 1-4 neighbors ...
  special bond factors lj:   0          0          1         
  special bond factors coul: 1          1          1         
  5 = max # of 1-2 neighbors
  8 = max # of 1-3 neighbors
  19 = max # of special neighbors
WARNING: Using 'neigh_modify every 1 delay 0 check yes' setting during minimization (../min.cpp:168)
Neighbor list info ...
  update every 1 steps, delay 0 steps, check yes
  max neighbors/atom: 2000, page size: 100000
  master list distance cutoff = 16
  ghost atom cutoff = 16
  binsize = 8, bins = 6 6 6
  3 neighbor lists, perpetual/occasional/extra = 3 0 0
  (1) pair buck6d/coul/gauss/dsf, perpetual, skip from (3)
      attributes: half, newton on
      pair build: skip
      stencil: none
      bin: none
  (2) pair lj/cut, perpetual, skip from (3)
      attributes: half, newton on
      pair build: skip
      stencil: none
      bin: none
  (3) neighbor class addition, perpetual
      attributes: half, newton on
      pair build: half/bin/newton
      stencil: half/bin/3d/newton
      bin: standard
Setting up cg style minimization ...
  Unit style    : real
  Current step  : 0
WARNING: Inconsistent image flags (../domain.cpp:786)
Per MPI rank memory allocation (min/avg/max) = 22.89 | 23.3 | 24.44 Mbytes
Step Temp E_pair E_mol TotEng Press 
       0            0   -12445.432    6482.8914   -5962.5406    6115.1889 
     501            0   -12578.782     3733.591   -8845.1909   -675.27602 
Loop time of 1.2984 on 24 procs for 501 steps with 2034 atoms

99.6% CPU use with 24 MPI tasks x no OpenMP threads

Minimization stats:
  Stopping criterion = max force evaluations
  Energy initial, next-to-last, final = 
        -5962.54058484     -8845.13339438     -8845.19087555
  Force two-norm initial, final = 2575.15 11.6754
  Force max component initial, final = 152.139 1.92246
  Final line search alpha, max atom move = 0.00352216 0.00677121
  Iterations, force evaluations = 501 1000

MPI task timing breakdown:
Section |  min time  |  avg time  |  max time  |%varavg| %total
---------------------------------------------------------------
Pair    | 0.45919    | 0.69491    | 0.85947    |  13.1 | 53.52
Bond    | 0.12541    | 0.1576     | 0.22523    |   5.7 | 12.14
Neigh   | 0.011745   | 0.013597   | 0.015307   |   1.1 |  1.05
Comm    | 0.24724    | 0.40915    | 0.64397    |  17.3 | 31.51
Output  | 0          | 0          | 0          |   0.0 |  0.00
Modify  | 0          | 0          | 0          |   0.0 |  0.00
Other   |            | 0.02314    |            |       |  1.78

Nlocal:    84.75 ave 107 max 66 min
Histogram: 1 2 3 4 3 7 1 1 0 2
Nghost:    2266.58 ave 2441 max 2160 min
Histogram: 10 6 0 0 0 0 0 0 1 7
Neighs:    7639.83 ave 11140 max 4221 min
Histogram: 1 2 6 2 2 2 4 1 1 3

Total # of neighbors = 183356
Ave neighs/atom = 90.1455
Ave special neighs/atom = 5.66372
Neighbor list builds = 16
Dangerous builds = 0
Neighbor list info ...
  update every 1 steps, delay 10 steps, check yes
  max neighbors/atom: 2000, page size: 100000
  master list distance cutoff = 16
  ghost atom cutoff = 16
  binsize = 8, bins = 6 6 6
  3 neighbor lists, perpetual/occasional/extra = 3 0 0
  (1) pair buck6d/coul/gauss/dsf, perpetual, skip from (3)
      attributes: half, newton on
      pair build: skip
      stencil: none
      bin: none
  (2) pair lj/cut, perpetual, skip from (3)
      attributes: half, newton on
      pair build: skip
      stencil: none
      bin: none
  (3) neighbor class addition, perpetual
      attributes: half, newton on
      pair build: half/bin/newton
      stencil: half/bin/3d/newton
      bin: standard
Setting up Verlet run ...
  Unit style    : real
  Current step  : 501
  Time step     : 1
WARNING: Inconsistent image flags (../domain.cpp:786)
Per MPI rank memory allocation (min/avg/max) = 22.54 | 22.73 | 23.31 Mbytes
Step Temp PotEng TotEng Press Volume Lx Ly Lz 
     501          110   -8845.1909   -8178.5923   -376.54141     102002.7      46.7237      46.7237      46.7237 
    1000    92.428793   -8238.6046   -7678.4873   -547.27265     102002.7      46.7237      46.7237      46.7237 
    2000    116.28097   -8162.5581   -7457.8969   -848.01669     102002.7      46.7237      46.7237      46.7237 
    3000    107.00255   -8128.3079   -7479.8739   -924.37523     102002.7      46.7237      46.7237      46.7237 
    4000    107.84192   -8119.4603   -7465.9397   -733.64508     102002.7      46.7237      46.7237      46.7237 
    5000    111.85173   -8141.0258   -7463.2058   -714.77295     102002.7      46.7237      46.7237      46.7237 
    6000    108.35088   -8164.7794   -7508.1745   -666.69153     102002.7      46.7237      46.7237      46.7237 
    7000    108.58517   -8129.7157   -7471.6909   -696.90546     102002.7      46.7237      46.7237      46.7237 
    8000     108.6095   -8130.7563   -7472.5841   -762.65049     102002.7      46.7237      46.7237      46.7237 
    9000    108.22597    -8148.426   -7492.5781   -902.26945     102002.7      46.7237      46.7237      46.7237 
   10000    112.94128   -8162.0586   -7477.6359   -763.82203     102002.7      46.7237      46.7237      46.7237 
   11000    109.73596   -8163.5922   -7498.5937   -654.47055     102002.7      46.7237      46.7237      46.7237 
   12000    110.42189   -8136.8131   -7467.6579    -594.8778     102002.7      46.7237      46.7237      46.7237 
   13000    108.55556   -8138.1551   -7480.3098   -703.15247     102002.7      46.7237      46.7237      46.7237 
   14000    111.92125   -8140.6811   -7462.4399   -937.28324     102002.7      46.7237      46.7237      46.7237 
   15000    108.18945   -8138.0326    -7482.406   -783.82987     102002.7      46.7237      46.7237      46.7237 
   16000    110.82696   -8136.8415   -7465.2315   -814.31382     102002.7      46.7237      46.7237      46.7237 
   17000    112.97716   -8163.8005   -7479.1604    -572.4432     102002.7      46.7237      46.7237      46.7237 
   18000    114.73348   -8140.4135   -7445.1301   -660.40785     102002.7      46.7237      46.7237      46.7237 
   19000    109.32739   -8138.4234   -7475.9009   -563.01092     102002.7      46.7237      46.7237      46.7237 
   20000    111.04887   -8136.1393   -7463.1846   -793.34173     102002.7      46.7237      46.7237      46.7237 
   21000    110.73462   -8123.3965   -7452.3462   -852.44739     102002.7      46.7237      46.7237      46.7237 
   22000    112.51911   -8159.9403    -7478.076   -635.48641     102002.7      46.7237      46.7237      46.7237 
   23000    108.53177   -8137.3432   -7479.6421   -775.01306     102002.7      46.7237      46.7237      46.7237 
   24000    111.22125   -8129.9869   -7455.9876   -569.91371     102002.7      46.7237      46.7237      46.7237 
   25000    112.38093   -8133.0673   -7452.0404   -677.71608     102002.7      46.7237      46.7237      46.7237 
   26000    110.20713   -8138.3663   -7470.5125   -728.82312     102002.7      46.7237      46.7237      46.7237 
   27000    113.43917   -8156.7855   -7469.3456   -234.18315     102002.7      46.7237      46.7237      46.7237 
   28000    109.28452   -8137.5926   -7475.3298   -453.97732     102002.7      46.7237      46.7237      46.7237 
   29000    109.62405   -8123.5906   -7459.2703   -343.28872     102002.7      46.7237      46.7237      46.7237 
   30000    109.52694   -8135.6479   -7471.9161   -767.68985     102002.7      46.7237      46.7237      46.7237 
   31000    109.04536   -8122.3778   -7461.5644   -467.88831     102002.7      46.7237      46.7237      46.7237 
   32000    109.74357   -8120.4627   -7455.4181   -727.38542     102002.7      46.7237      46.7237      46.7237 
   33000    108.40555   -8149.1965   -7492.2603   -540.82357     102002.7      46.7237      46.7237      46.7237 
   34000    113.61501   -8134.0818   -7445.5763   -606.65201     102002.7      46.7237      46.7237      46.7237 
   35000    108.50641    -8130.589   -7473.0416    -870.2732     102002.7      46.7237      46.7237      46.7237 
   36000    106.97763   -8121.2486   -7472.9655   -794.13936     102002.7      46.7237      46.7237      46.7237 
   37000    112.14991   -8123.7195   -7444.0926   -802.17643     102002.7      46.7237      46.7237      46.7237 
   38000    110.96534   -8131.5393   -7459.0909   -663.96122     102002.7      46.7237      46.7237      46.7237 
   39000     113.4075   -8145.0302   -7457.7822   -763.61464     102002.7      46.7237      46.7237      46.7237 
   40000    108.79393   -8129.6528    -7470.363    -664.2594     102002.7      46.7237      46.7237      46.7237 
   41000    109.36249   -8148.4859   -7485.7507   -543.37994     102002.7      46.7237      46.7237      46.7237 
   42000    112.76096   -8137.3005   -7453.9706   -755.35857     102002.7      46.7237      46.7237      46.7237 
   43000    109.27578   -8148.1258    -7485.916   -629.04364     102002.7      46.7237      46.7237      46.7237 
   44000    109.40954   -8142.5277   -7479.5073   -857.99773     102002.7      46.7237      46.7237      46.7237 
   45000    109.17725   -8135.7238    -7474.111    -898.0712     102002.7      46.7237      46.7237      46.7237 
   46000    110.46003   -8156.4123    -7487.026   -957.19793     102002.7      46.7237      46.7237      46.7237 
   47000     108.8852   -8115.2033   -7455.3604   -767.23928     102002.7      46.7237      46.7237      46.7237 
   48000     111.7461   -8140.8017   -7463.6218   -722.82116     102002.7      46.7237      46.7237      46.7237 
   49000    108.80377   -8160.4063   -7501.0569   -1065.2905     102002.7      46.7237      46.7237      46.7237 
   50000    111.25774   -8142.3846   -7468.1641   -892.90303     102002.7      46.7237      46.7237      46.7237 
   51000    109.80895   -8152.5848    -7487.144   -759.46623     102002.7      46.7237      46.7237      46.7237 
   52000    110.75551    -8123.267   -7452.0901   -896.51162     102002.7      46.7237      46.7237      46.7237 
   53000    111.52203   -8144.7808   -7468.9588   -582.73269     102002.7      46.7237      46.7237      46.7237 
   54000    110.00878   -8134.8379   -7468.1861   -959.57646     102002.7      46.7237      46.7237      46.7237 
   55000    109.93155      -8123.6   -7457.4162   -786.88382     102002.7      46.7237      46.7237      46.7237 
   56000    110.42392   -8129.0153   -7459.8478    -779.4264     102002.7      46.7237      46.7237      46.7237 
   57000    109.09891   -8137.4384   -7476.3004   -721.26781     102002.7      46.7237      46.7237      46.7237 
   58000    108.91088   -8142.6153   -7482.6168   -825.37761     102002.7      46.7237      46.7237      46.7237 
   59000    113.37029   -8157.6666   -7470.6441   -859.82543     102002.7      46.7237      46.7237      46.7237 
   60000    110.66722   -8132.5056   -7461.8636      -645.19     102002.7      46.7237      46.7237      46.7237 
   61000     111.7712   -8116.8126   -7439.4806   -792.81079     102002.7      46.7237      46.7237      46.7237 
   62000    108.63312   -8112.7081   -7454.3929   -707.60105     102002.7      46.7237      46.7237      46.7237 
   63000     112.4163   -8118.9373   -7437.6959   -735.56338     102002.7      46.7237      46.7237      46.7237 
   64000     112.3402   -8127.0978   -7446.3177   -612.82117     102002.7      46.7237      46.7237      46.7237 
   65000    109.75711   -8109.0793   -7443.9527   -630.07893     102002.7      46.7237      46.7237      46.7237 
   66000    108.57987   -8138.3893   -7480.3968   -656.70995     102002.7      46.7237      46.7237      46.7237 
   67000    112.63746   -8134.2165   -7451.6349   -795.15619     102002.7      46.7237      46.7237      46.7237 
   68000    109.87892   -8111.1092   -7445.2444   -711.13825     102002.7      46.7237      46.7237      46.7237 
   69000    113.82413   -8153.1231   -7463.3504   -827.57071     102002.7      46.7237      46.7237      46.7237 
   70000    112.41907   -8132.7454   -7451.4873   -781.37756     102002.7      46.7237      46.7237      46.7237 
   71000    109.53144   -8126.0607   -7462.3016   -762.53899     102002.7      46.7237      46.7237      46.7237 
   72000    111.01621   -8121.5927   -7448.8359   -1285.3476     102002.7      46.7237      46.7237      46.7237 
   73000    107.12522   -8135.2799   -7486.1025    -782.1351     102002.7      46.7237      46.7237      46.7237 
   74000    111.35577    -8140.208   -7465.3935   -1056.0216     102002.7      46.7237      46.7237      46.7237 
   75000    113.98627   -8135.1479   -7444.3926   -826.56625     102002.7      46.7237      46.7237      46.7237 
   76000    108.09109   -8125.1454   -7470.1148   -880.75026     102002.7      46.7237      46.7237      46.7237 
   77000     111.5717   -8133.1776   -7457.0546   -901.54013     102002.7      46.7237      46.7237      46.7237 
   78000    110.91716   -8135.5654   -7463.4089   -578.95054     102002.7      46.7237      46.7237      46.7237 
   79000    112.04283   -8137.5215   -7458.5435   -941.02738     102002.7      46.7237      46.7237      46.7237 
   80000    112.10875   -8155.5276     -7476.15   -830.57639     102002.7      46.7237      46.7237      46.7237 
   81000    106.78904   -8123.1959   -7476.0557   -897.53081     102002.7      46.7237      46.7237      46.7237 
   82000     106.4296   -8140.4547   -7495.4928   -717.85849     102002.7      46.7237      46.7237      46.7237 
   83000    108.81652   -8121.1547    -7461.728   -616.20524     102002.7      46.7237      46.7237      46.7237 
   84000    112.82603   -8120.6784   -7436.9542   -700.07995     102002.7      46.7237      46.7237      46.7237 
   85000    110.37697    -8155.774    -7486.891    -776.9942     102002.7      46.7237      46.7237      46.7237 
   86000    109.67555    -8126.489   -7461.8567    -710.8352     102002.7      46.7237      46.7237      46.7237 
   87000    109.84186   -8119.3752    -7453.735   -853.83749     102002.7      46.7237      46.7237      46.7237 
   88000    111.63476   -8140.6474   -7464.1422   -771.57408     102002.7      46.7237      46.7237      46.7237 
   89000    106.86172   -8136.1914   -7488.6108   -766.58727     102002.7      46.7237      46.7237      46.7237 
   90000    110.48139    -8135.037   -7465.5212   -683.87035     102002.7      46.7237      46.7237      46.7237 
   91000    114.53142   -8133.4211   -7439.3622   -634.91354     102002.7      46.7237      46.7237      46.7237 
   92000    105.54358   -8122.6946   -7483.1019   -814.06417     102002.7      46.7237      46.7237      46.7237 
   93000    109.27555   -8116.7144    -7454.506   -746.52742     102002.7      46.7237      46.7237      46.7237 
   94000    111.52854   -8130.5855    -7454.724   -578.21413     102002.7      46.7237      46.7237      46.7237 
   95000    107.81054   -8127.5107   -7474.1803   -788.67832     102002.7      46.7237      46.7237      46.7237 
   96000    108.63692   -8105.6463    -7447.308   -894.24784     102002.7      46.7237      46.7237      46.7237 
   97000    109.27724   -8117.9716    -7455.753   -975.05248     102002.7      46.7237      46.7237      46.7237 
   98000    109.10866   -8142.1188   -7480.9217   -870.39183     102002.7      46.7237      46.7237      46.7237 
   99000    113.84161   -8141.9442   -7452.0656   -748.82198     102002.7      46.7237      46.7237      46.7237 
  100000    107.91861   -8155.8805   -7501.8952   -686.28284     102002.7      46.7237      46.7237      46.7237 
  101000    112.30682   -8162.3949    -7481.817   -1012.7063     102002.7      46.7237      46.7237      46.7237 
  102000    109.71954   -8117.7018   -7452.8028    -504.7045     102002.7      46.7237      46.7237      46.7237 
  103000    108.49589    -8118.763   -7461.2793   -1016.1976     102002.7      46.7237      46.7237      46.7237 
  104000     109.4024   -8117.9466   -7454.9695   -807.80931     102002.7      46.7237      46.7237      46.7237 
  105000    109.30494   -8130.9106   -7468.5241   -725.54744     102002.7      46.7237      46.7237      46.7237 
  106000     111.5784   -8119.8665   -7443.7028   -787.74753     102002.7      46.7237      46.7237      46.7237 
  107000    109.69484   -8139.9444   -7475.1951   -405.23131     102002.7      46.7237      46.7237      46.7237 
  108000    115.47439   -8109.6576   -7409.8843   -587.38052     102002.7      46.7237      46.7237      46.7237 
  109000    111.13746   -8138.5345    -7465.043   -851.96524     102002.7      46.7237      46.7237      46.7237 
  110000    112.41779   -8132.5398   -7451.2895    -662.3177     102002.7      46.7237      46.7237      46.7237 
  111000    110.85633   -8130.3907   -7458.6028   -1124.4841     102002.7      46.7237      46.7237      46.7237 
  112000    111.12526   -8133.1715   -7459.7539    -810.9418     102002.7      46.7237      46.7237      46.7237 
  113000    109.75784   -8132.7248   -7467.5938    -876.3683     102002.7      46.7237      46.7237      46.7237 
  114000    110.95016   -8137.2413   -7464.8848    -463.9847     102002.7      46.7237      46.7237      46.7237 
  115000    107.14379   -8124.7517   -7475.4617   -850.32771     102002.7      46.7237      46.7237      46.7237 
  116000    112.06445    -8119.236    -7440.127   -857.26471     102002.7      46.7237      46.7237      46.7237 
  117000    113.52306   -8145.8815   -7457.9333   -641.99315     102002.7      46.7237      46.7237      46.7237 
  118000    109.12909   -8134.6353   -7473.3145   -888.83362     102002.7      46.7237      46.7237      46.7237 
  119000    107.90789     -8169.38   -7515.4596   -803.02843     102002.7      46.7237      46.7237      46.7237 
  120000    112.66366   -8150.5304   -7467.7901   -742.59523     102002.7      46.7237      46.7237      46.7237 
  121000    111.42498   -8137.2994   -7462.0655   -543.39343     102002.7      46.7237      46.7237      46.7237 
  122000    110.97288   -8140.7792    -7468.285    -1010.099     102002.7      46.7237      46.7237      46.7237 
  123000    107.80425   -8143.6073    -7490.315   -733.10003     102002.7      46.7237      46.7237      46.7237 
  124000    112.34267   -8153.6831    -7472.888   -623.40518     102002.7      46.7237      46.7237      46.7237 
  125000    110.57654   -8130.8685   -7460.7761   -605.17446     102002.7      46.7237      46.7237      46.7237 
  126000    109.86637    -8128.328   -7462.5392   -541.94074     102002.7      46.7237      46.7237      46.7237 
  127000    108.95697   -8159.8079   -7499.5301   -808.61592     102002.7      46.7237      46.7237      46.7237 
  128000    109.95159   -8141.6552     -7475.35   -855.52801     102002.7      46.7237      46.7237      46.7237 
  129000    112.68448   -8144.2683   -7461.4018    -458.9186     102002.7      46.7237      46.7237      46.7237 
  130000    108.35888   -8147.2805   -7490.6271   -863.61889     102002.7      46.7237      46.7237      46.7237 
  131000    108.48756   -8116.7859   -7459.3527   -866.68236     102002.7      46.7237      46.7237      46.7237 
  132000    107.86472   -8146.3974   -7492.7386    -649.7275     102002.7      46.7237      46.7237      46.7237 
  133000    109.95029   -8128.1743    -7461.877   -880.66523     102002.7      46.7237      46.7237      46.7237 
  134000    109.28205   -8166.8126   -7504.5648   -714.76509     102002.7      46.7237      46.7237      46.7237 
  135000     107.7529   -8134.9905   -7482.0093    -930.0073     102002.7      46.7237      46.7237      46.7237 
  136000    111.69766   -8159.0959   -7482.2095   -846.65919     102002.7      46.7237      46.7237      46.7237 
  137000    109.26041    -8121.499   -7459.3824   -1048.7047     102002.7      46.7237      46.7237      46.7237 
  138000    110.31385   -8124.5322   -7456.0317   -614.47857     102002.7      46.7237      46.7237      46.7237 
  139000    110.50536   -8129.9532   -7460.2921   -545.97218     102002.7      46.7237      46.7237      46.7237 
  140000    112.23494   -8113.1083   -7432.9661    -635.9769     102002.7      46.7237      46.7237      46.7237 
  141000    108.91488     -8157.33   -7497.3072    -547.7161     102002.7      46.7237      46.7237      46.7237 
  142000    113.46579   -8163.1047   -7475.5036   -955.07872     102002.7      46.7237      46.7237      46.7237 
  143000    112.23241   -8115.2815   -7435.1546   -786.43735     102002.7      46.7237      46.7237      46.7237 
  144000    109.18968   -8135.0252   -7473.3372    -1012.005     102002.7      46.7237      46.7237      46.7237 
  145000    108.22352   -8138.4374   -7482.6043   -843.36214     102002.7      46.7237      46.7237      46.7237 
  146000    111.93764   -8125.2455   -7446.9048   -570.91249     102002.7      46.7237      46.7237      46.7237 
  147000      109.487   -8122.5858    -7459.096   -870.82655     102002.7      46.7237      46.7237      46.7237 
  148000    112.58676   -8154.4932   -7472.2189   -769.07783     102002.7      46.7237      46.7237      46.7237 
  149000    108.29848   -8133.5256   -7477.2382   -816.61557     102002.7      46.7237      46.7237      46.7237 
  150000    106.68372   -8155.2166   -7508.7147   -849.02094     102002.7      46.7237      46.7237      46.7237 
  151000    109.74798   -8136.7001   -7471.6288   -559.71533     102002.7      46.7237      46.7237      46.7237 
  152000    110.31447   -8156.8298   -7488.3255   -856.02088     102002.7      46.7237      46.7237      46.7237 
  153000    106.88196   -8128.5924   -7480.8892   -830.44559     102002.7      46.7237      46.7237      46.7237 
  154000    110.33517   -8142.2872   -7473.6575   -883.24605     102002.7      46.7237      46.7237      46.7237 
  155000    112.71378    -8137.707   -7454.6629   -648.15521     102002.7      46.7237      46.7237      46.7237 
  156000    112.89218   -8167.7966   -7483.6714   -827.06362     102002.7      46.7237      46.7237      46.7237 
  157000    110.75054   -8142.7441   -7471.5973   -860.51136     102002.7      46.7237      46.7237      46.7237 
  158000    107.39655    -8122.264   -7471.4423   -731.53194     102002.7      46.7237      46.7237      46.7237 
  159000    110.15445   -8131.6314   -7464.0969   -1013.8561     102002.7      46.7237      46.7237      46.7237 
  160000    107.24993   -8146.8553   -7496.9221   -651.85546     102002.7      46.7237      46.7237      46.7237 
  161000    109.86309   -8130.8059    -7465.037   -842.05951     102002.7      46.7237      46.7237      46.7237 
  162000    111.35964   -8149.7568   -7474.9188    -791.7581     102002.7      46.7237      46.7237      46.7237 
  163000    109.60631   -8137.3004   -7473.0876   -652.17289     102002.7      46.7237      46.7237      46.7237 
  164000    110.02698   -8139.0334   -7472.2714   -723.80274     102002.7      46.7237      46.7237      46.7237 
  165000    111.86094    -8156.278   -7478.4022   -697.45533     102002.7      46.7237      46.7237      46.7237 
  166000    109.48921   -8141.5934   -7478.0902   -963.42855     102002.7      46.7237      46.7237      46.7237 
  167000    107.71863   -8135.5434   -7482.7699   -786.42395     102002.7      46.7237      46.7237      46.7237 
  168000    109.60433   -8141.6775   -7477.4768   -295.38484     102002.7      46.7237      46.7237      46.7237 
  169000    113.45657   -8128.1232   -7440.5779   -981.90575     102002.7      46.7237      46.7237      46.7237 
  170000    109.86209   -8142.9162   -7477.1534   -784.29523     102002.7      46.7237      46.7237      46.7237 
  171000     110.8661   -8109.5127   -7437.6657   -669.69354     102002.7      46.7237      46.7237      46.7237 
  172000     111.1186   -8136.0697   -7462.6924   -823.42757     102002.7      46.7237      46.7237      46.7237 
  173000    109.07047   -8147.7759   -7486.8103    -686.3701     102002.7      46.7237      46.7237      46.7237 
  174000    110.21521   -8157.2889   -7489.3861   -933.99712     102002.7      46.7237      46.7237      46.7237 
  175000    113.31093   -8133.6136   -7446.9509    -532.0353     102002.7      46.7237      46.7237      46.7237 
  176000    109.15303   -8128.6274   -7467.1615    -939.5648     102002.7      46.7237      46.7237      46.7237 
  177000    109.55638   -8132.5707   -7468.6605   -821.13742     102002.7      46.7237      46.7237      46.7237 
  178000    109.53674   -8142.4293   -7478.6381   -700.19655     102002.7      46.7237      46.7237      46.7237 
  179000    108.27943   -8150.4216   -7494.2497   -725.57776     102002.7      46.7237      46.7237      46.7237 
  180000    109.61281   -8133.4985   -7469.2463   -800.61111     102002.7      46.7237      46.7237      46.7237 
  181000    108.29735   -8126.9852   -7470.7047   -531.94976     102002.7      46.7237      46.7237      46.7237 
  182000    108.04275   -8136.2745   -7481.5368   -859.76699     102002.7      46.7237      46.7237      46.7237 
  183000     108.5585   -8131.1954   -7473.3323    -761.0658     102002.7      46.7237      46.7237      46.7237 
  184000    108.76781   -8124.2267   -7465.0952   -685.95111     102002.7      46.7237      46.7237      46.7237 
  185000      110.466   -8115.2525     -7445.83   -749.81544     102002.7      46.7237      46.7237      46.7237 
  186000     110.3155   -8140.4418   -7471.9313   -730.79016     102002.7      46.7237      46.7237      46.7237 
  187000    110.40235   -8111.1868     -7442.15   -681.73209     102002.7      46.7237      46.7237      46.7237 
  188000    110.67878   -8131.0576   -7460.3457   -687.27791     102002.7      46.7237      46.7237      46.7237 
  189000    108.57878   -8143.5468   -7485.5608    -839.7953     102002.7      46.7237      46.7237      46.7237 
  190000    112.96179   -8123.6968   -7439.1499   -852.59423     102002.7      46.7237      46.7237      46.7237 
  191000    111.17753   -8101.7927   -7428.0583   -560.55273     102002.7      46.7237      46.7237      46.7237 
  192000    109.04826   -8144.6175   -7483.7865   -843.86898     102002.7      46.7237      46.7237      46.7237 
  193000    110.26337   -8125.4748   -7457.2802   -593.34162     102002.7      46.7237      46.7237      46.7237 
  194000    111.97836   -8115.5704    -7436.983   -637.42069     102002.7      46.7237      46.7237      46.7237 
  195000    108.46286   -8130.8101   -7473.5266   -463.13093     102002.7      46.7237      46.7237      46.7237 
  196000    109.91077   -8118.9649   -7452.9071   -628.17851     102002.7      46.7237      46.7237      46.7237 
  197000    108.71332   -8123.0102   -7464.2089   -671.76675     102002.7      46.7237      46.7237      46.7237 
  198000    110.63204   -8135.7316   -7465.3029   -774.94453     102002.7      46.7237      46.7237      46.7237 
  199000    111.31247   -8118.3697   -7443.8176   -935.07087     102002.7      46.7237      46.7237      46.7237 
  200000    105.62015   -8096.8836   -7456.8269   -677.19596     102002.7      46.7237      46.7237      46.7237 
  201000    107.35392   -8133.2159   -7482.6525   -702.76874     102002.7      46.7237      46.7237      46.7237 
  202000    106.26361   -8103.2617   -7459.3056   -760.09665     102002.7      46.7237      46.7237      46.7237 
  203000    109.46053   -8136.2743   -7472.9449   -714.06161     102002.7      46.7237      46.7237      46.7237 
  204000    113.12837    -8109.463   -7423.9065   -909.36041     102002.7      46.7237      46.7237      46.7237 
  205000    109.46116   -8130.1234   -7466.7902   -649.59508     102002.7      46.7237      46.7237      46.7237 
  206000    108.41042   -8132.2904   -7475.3247   -1076.3252     102002.7      46.7237      46.7237      46.7237 
  207000    109.52564   -8143.1408   -7479.4168    -929.9654     102002.7      46.7237      46.7237      46.7237 
  208000     112.1116   -8107.9657   -7428.5708   -751.63606     102002.7      46.7237      46.7237      46.7237 
  209000     110.2069   -8116.2011   -7448.3487   -924.59347     102002.7      46.7237      46.7237      46.7237 
  210000    110.19295   -8145.4694   -7477.7016   -588.64665     102002.7      46.7237      46.7237      46.7237 
  211000    107.38067   -8147.2723   -7496.5469   -853.02221     102002.7      46.7237      46.7237      46.7237 
  212000    110.32713   -8143.9787   -7475.3978   -638.69385     102002.7      46.7237      46.7237      46.7237 
  213000    109.96934   -8117.7776   -7451.3648   -988.70505     102002.7      46.7237      46.7237      46.7237 
  214000    109.18449   -8157.2055    -7495.549   -878.47562     102002.7      46.7237      46.7237      46.7237 
  215000    113.38649   -8148.8244   -7461.7038   -924.43248     102002.7      46.7237      46.7237      46.7237 
  216000    111.05519   -8139.2552   -7466.2622   -755.27657     102002.7      46.7237      46.7237      46.7237 
  217000    105.40117   -8120.2124   -7481.4827   -893.69933     102002.7      46.7237      46.7237      46.7237 
  218000    105.50801   -8106.7304   -7467.3532   -887.39115     102002.7      46.7237      46.7237      46.7237 
  219000    108.02161   -8103.6428   -7449.0333   -833.96805     102002.7      46.7237      46.7237      46.7237 
  220000    110.04281   -8120.0556   -7453.1976   -675.01222     102002.7      46.7237      46.7237      46.7237 
  221000     109.9153   -8174.9903    -7508.905   -945.56129     102002.7      46.7237      46.7237      46.7237 
  222000    109.38931    -8142.141   -7479.2432   -1063.0843     102002.7      46.7237      46.7237      46.7237 
  223000    109.25161    -8108.048   -7445.9847   -1168.9431     102002.7      46.7237      46.7237      46.7237 
  224000     110.7929   -8133.7265    -7462.323   -998.85505     102002.7      46.7237      46.7237      46.7237 
  225000    109.91856   -8143.7795   -7477.6745   -683.20155     102002.7      46.7237      46.7237      46.7237 
  226000    113.70756   -8138.6595   -7449.5932   -780.05188     102002.7      46.7237      46.7237      46.7237 
  227000    112.32478   -8110.1735   -7429.4869   -664.21035     102002.7      46.7237      46.7237      46.7237 
  228000    111.31225   -8131.9939   -7457.4432   -991.39202     102002.7      46.7237      46.7237      46.7237 
  229000    108.10937   -8157.1218   -7501.9804   -933.53321     102002.7      46.7237      46.7237      46.7237 
  230000    112.65849   -8122.7633   -7440.0543   -929.18391     102002.7      46.7237      46.7237      46.7237 
  231000    108.60405   -8114.3698   -7456.2307   -508.68143     102002.7      46.7237      46.7237      46.7237 
  232000     109.3025   -8107.2816     -7444.91   -667.05772     102002.7      46.7237      46.7237      46.7237 
  233000    110.72414   -8136.8517   -7465.8648   -592.69741     102002.7      46.7237      46.7237      46.7237 
  234000    110.76134   -8131.5837   -7460.3714   -557.02382     102002.7      46.7237      46.7237      46.7237 
  235000    110.11994   -8128.3074    -7460.982   -563.69209     102002.7      46.7237      46.7237      46.7237 
  236000    110.49674   -8136.0788     -7466.47   -665.78513     102002.7      46.7237      46.7237      46.7237 
  237000    111.48541   -8123.1034   -7447.5033    -781.7414     102002.7      46.7237      46.7237      46.7237 
  238000    114.88027   -8103.2706   -7407.0977   -857.94628     102002.7      46.7237      46.7237      46.7237 
  239000    107.47786   -8127.2908   -7475.9764   -737.61758     102002.7      46.7237      46.7237      46.7237 
  240000    114.30582   -8121.5139   -7428.8222    -971.3952     102002.7      46.7237      46.7237      46.7237 
  241000    107.51967   -8145.1531   -7493.5853   -882.42899     102002.7      46.7237      46.7237      46.7237 
  242000    109.24005   -8127.7781   -7465.7848   -890.47387     102002.7      46.7237      46.7237      46.7237 
  243000    112.05788   -8156.4892   -7477.4199   -629.73904     102002.7      46.7237      46.7237      46.7237 
  244000    113.88006   -8136.0508   -7445.9391   -624.33832     102002.7      46.7237      46.7237      46.7237 
  245000    106.15918   -8119.7187   -7476.3955   -926.80561     102002.7      46.7237      46.7237      46.7237 
  246000    111.96268   -8105.0138   -7426.5214    -882.2777     102002.7      46.7237      46.7237      46.7237 
  247000    108.14561   -8133.2956   -7477.9347   -536.06998     102002.7      46.7237      46.7237      46.7237 
  248000      107.125   -8147.8327   -7498.6566    -801.2399     102002.7      46.7237      46.7237      46.7237 
  249000    107.94269   -8122.9695   -7468.8382   -779.95278     102002.7      46.7237      46.7237      46.7237 
  250000    112.74417   -8145.8206   -7462.5924   -754.14859     102002.7      46.7237      46.7237      46.7237 
  251000    111.07655   -8150.7927   -7477.6703   -845.60569     102002.7      46.7237      46.7237      46.7237 
  252000    111.13058   -8114.3576   -7440.9077   -818.65385     102002.7      46.7237      46.7237      46.7237 
  253000    108.68025   -8131.4467   -7472.8459   -699.50371     102002.7      46.7237      46.7237      46.7237 
  254000    110.62625   -8128.3685   -7457.9749     -960.397     102002.7      46.7237      46.7237      46.7237 
  255000    114.16659   -8100.8531   -7409.0051   -602.38145     102002.7      46.7237      46.7237      46.7237 
  256000    107.20168   -8125.3215   -7475.6807   -871.46755     102002.7      46.7237      46.7237      46.7237 
  257000    109.70708   -8124.8868   -7460.0633   -846.88175     102002.7      46.7237      46.7237      46.7237 
  258000    111.78073   -8137.6242   -7460.2345   -500.92358     102002.7      46.7237      46.7237      46.7237 
  259000    113.76327   -8116.6361   -7427.2322   -916.31419     102002.7      46.7237      46.7237      46.7237 
  260000    112.22093   -8122.0453    -7441.988   -686.13199     102002.7      46.7237      46.7237      46.7237 
  261000    109.19936   -8128.3603   -7466.6136   -948.35926     102002.7      46.7237      46.7237      46.7237 
  262000    110.63513   -8122.3194    -7451.872   -958.13491     102002.7      46.7237      46.7237      46.7237 
  263000    108.33252   -8118.3383   -7461.8447   -943.64217     102002.7      46.7237      46.7237      46.7237 
  264000    110.80077   -8119.9245   -7448.4733    -879.6535     102002.7      46.7237      46.7237      46.7237 
  265000    110.33238    -8111.615   -7443.0023   -784.95676     102002.7      46.7237      46.7237      46.7237 
  266000     108.6024   -8152.4915   -7494.3624   -878.20072     102002.7      46.7237      46.7237      46.7237 
  267000    107.24745   -8132.7558   -7482.8376     -693.122     102002.7      46.7237      46.7237      46.7237 
  268000    109.57043    -8110.453   -7446.4576   -762.02492     102002.7      46.7237      46.7237      46.7237 
  269000    111.43886    -8143.912   -7468.5939   -659.57677     102002.7      46.7237      46.7237      46.7237 
  270000    110.44306   -8129.8128   -7460.5293   -1047.8386     102002.7      46.7237      46.7237      46.7237 
  271000     109.4623   -8122.8751    -7459.535   -954.69429     102002.7      46.7237      46.7237      46.7237 
  272000      107.588   -8121.5272   -7469.5453   -980.80792     102002.7      46.7237      46.7237      46.7237 
  273000    110.43952   -8140.0012   -7470.7391   -975.59535     102002.7      46.7237      46.7237      46.7237 
  274000    109.87868   -8127.2814   -7461.4181   -694.68393     102002.7      46.7237      46.7237      46.7237 
  275000    110.27191    -8110.892   -7442.6457   -742.23647     102002.7      46.7237      46.7237      46.7237 
  276000    110.00514   -8143.5837    -7476.954   -977.91544     102002.7      46.7237      46.7237      46.7237 
  277000    110.73291   -8148.8077   -7477.7677   -641.36365     102002.7      46.7237      46.7237      46.7237 
  278000    111.60244   -8139.7367   -7463.4274    -880.2616     102002.7      46.7237      46.7237      46.7237 
  279000    110.74809   -8150.6784   -7479.5465   -879.50532     102002.7      46.7237      46.7237      46.7237 
  280000      110.233   -8131.6153   -7463.6048    -835.0816     102002.7      46.7237      46.7237      46.7237 
  281000    107.61141   -8149.7986   -7497.6749   -570.36011     102002.7      46.7237      46.7237      46.7237 
  282000    113.75942   -8143.3871   -7454.0066   -489.57052     102002.7      46.7237      46.7237      46.7237 
  283000    111.27642   -8116.8915   -7442.5578   -754.93794     102002.7      46.7237      46.7237      46.7237 
  284000     106.7252   -8131.5741   -7484.8208   -871.26351     102002.7      46.7237      46.7237      46.7237 
  285000    111.09939   -8126.0767   -7452.8158   -762.23226     102002.7      46.7237      46.7237      46.7237 
  286000    108.29386   -8135.2119   -7478.9526   -742.79052     102002.7      46.7237      46.7237      46.7237 
  287000    109.10428   -8117.8084   -7456.6379   -685.33882     102002.7      46.7237      46.7237      46.7237 
  288000    108.04547   -8130.0864   -7475.3323   -854.95072     102002.7      46.7237      46.7237      46.7237 
  289000    113.86389   -8125.7138   -7435.7001   -994.31729     102002.7      46.7237      46.7237      46.7237 
  290000    113.50539   -8124.6859   -7436.8447   -445.62889     102002.7      46.7237      46.7237      46.7237 
  291000    111.42117   -8116.0651   -7440.8543   -757.10611     102002.7      46.7237      46.7237      46.7237 
  292000    109.63268   -8132.9746    -7468.602   -708.99674     102002.7      46.7237      46.7237      46.7237 
  293000    110.93608   -8150.7429   -7478.4717   -526.45743     102002.7      46.7237      46.7237      46.7237 
  294000    107.32588   -8126.8192   -7476.4258   -884.78897     102002.7      46.7237      46.7237      46.7237 
  295000    113.74677   -8176.9814   -7487.6774   -746.47378     102002.7      46.7237      46.7237      46.7237 
  296000    109.91145   -8142.4562   -7476.3943   -664.15083     102002.7      46.7237      46.7237      46.7237 
  297000    114.33835    -8131.433   -7438.5441   -894.91673     102002.7      46.7237      46.7237      46.7237 
  298000    111.18616   -8134.7397    -7460.953   -863.52262     102002.7      46.7237      46.7237      46.7237 
  299000    108.38285   -8145.2082   -7488.4095   -666.92133     102002.7      46.7237      46.7237      46.7237 
  300000    108.76921   -8132.8932   -7473.7532   -871.78211     102002.7      46.7237      46.7237      46.7237 
  301000    108.18293   -8128.6071     -7473.02   -551.94545     102002.7      46.7237      46.7237      46.7237 
  302000    108.82185   -8131.2477   -7471.7888    -554.4503     102002.7      46.7237      46.7237      46.7237 
  303000    109.81048   -8121.0803   -7455.6303   -446.15858     102002.7      46.7237      46.7237      46.7237 
  304000    109.93157   -8121.0719    -7454.888   -570.25793     102002.7      46.7237      46.7237      46.7237 
  305000    110.39706   -8134.1643   -7465.1596   -629.78622     102002.7      46.7237      46.7237      46.7237 
  306000     111.1065   -8134.5631   -7461.2592   -636.92456     102002.7      46.7237      46.7237      46.7237 
  307000    112.42997   -8129.8736   -7448.5494   -813.70484     102002.7      46.7237      46.7237      46.7237 
  308000    110.45096   -8118.0006   -7448.6692   -1137.5602     102002.7      46.7237      46.7237      46.7237 
  309000    110.98361   -8144.6597   -7472.1004   -480.49285     102002.7      46.7237      46.7237      46.7237 
  310000    112.00084   -8117.8576    -7439.134   -732.22499     102002.7      46.7237      46.7237      46.7237 
  311000    109.98758   -8125.3692   -7458.8459      -803.79     102002.7      46.7237      46.7237      46.7237 
  312000     108.8593   -8130.2495   -7470.5636   -597.10659     102002.7      46.7237      46.7237      46.7237 
  313000    108.26764   -8139.0527   -7482.9522   -601.27081     102002.7      46.7237      46.7237      46.7237 
  314000    112.64656   -8125.2812   -7442.6445   -1014.0638     102002.7      46.7237      46.7237      46.7237 
  315000    108.88028   -8147.7616   -7487.9485   -959.52735     102002.7      46.7237      46.7237      46.7237 
  316000    109.36969   -8151.9731   -7489.1942   -588.50436     102002.7      46.7237      46.7237      46.7237 
  317000    111.89347    -8138.043   -7459.9701   -840.84883     102002.7      46.7237      46.7237      46.7237 
  318000    110.70154   -8151.8523   -7481.0024   -796.45967     102002.7      46.7237      46.7237      46.7237 
  319000    109.23651   -8122.2646   -7460.2927   -518.13077     102002.7      46.7237      46.7237      46.7237 
  320000    109.51818   -8134.2984   -7470.6197   -1020.7306     102002.7      46.7237      46.7237      46.7237 
  321000     116.8355   -8128.9426    -7420.921   -886.60049     102002.7      46.7237      46.7237      46.7237 
  322000    110.45363   -8131.6851   -7462.3375   -885.65384     102002.7      46.7237      46.7237      46.7237 
  323000    109.72479   -8141.3463   -7476.4155   -800.77384     102002.7      46.7237      46.7237      46.7237 
  324000    113.16193   -8131.2978   -7445.5381   -686.74597     102002.7      46.7237      46.7237      46.7237 
  325000    111.28744   -8122.3068   -7447.9064   -775.11418     102002.7      46.7237      46.7237      46.7237 
  326000    108.85163   -8137.8819   -7478.2424   -690.22247     102002.7      46.7237      46.7237      46.7237 
  327000    108.68129   -8113.0933   -7454.4861   -1088.1803     102002.7      46.7237      46.7237      46.7237 
  328000    111.88164   -8121.7979   -7443.7966   -861.50507     102002.7      46.7237      46.7237      46.7237 
  329000    113.03295   -8142.1379   -7457.1597   -619.76645     102002.7      46.7237      46.7237      46.7237 
  330000    106.59089   -8132.6435   -7486.7041   -822.70179     102002.7      46.7237      46.7237      46.7237 
  331000    110.59025   -8132.4806   -7462.3051     -843.729     102002.7      46.7237      46.7237      46.7237 
  332000    110.86383   -8148.4775   -7476.6441   -765.90266     102002.7      46.7237      46.7237      46.7237 
  333000    107.58551   -8116.8219   -7464.8551   -560.12322     102002.7      46.7237      46.7237      46.7237 
  334000    112.88916   -8128.8355   -7444.7287   -795.81358     102002.7      46.7237      46.7237      46.7237 
  335000    110.18437   -8135.4929   -7467.7771   -941.83392     102002.7      46.7237      46.7237      46.7237 
  336000    113.15207   -8135.8366   -7450.1366   -796.60676     102002.7      46.7237      46.7237      46.7237 
  337000    114.67811   -8125.2717   -7430.3239   -846.78397     102002.7      46.7237      46.7237      46.7237 
  338000    111.53486    -8129.285   -7453.3852   -1046.6459     102002.7      46.7237      46.7237      46.7237 
  339000    107.82754   -8122.2751   -7468.8416   -918.31495     102002.7      46.7237      46.7237      46.7237 
  340000    110.02992   -8134.6446   -7467.8647   -960.59288     102002.7      46.7237      46.7237      46.7237 
  341000    110.58927   -8105.5004   -7435.3309   -810.47674     102002.7      46.7237      46.7237      46.7237 
  342000    106.83749   -8133.0763   -7485.6426   -974.35222     102002.7      46.7237      46.7237      46.7237 
  343000    109.62581   -8124.5415   -7460.2106   -786.20382     102002.7      46.7237      46.7237      46.7237 
  344000    110.63227   -8111.1795   -7440.7494   -839.66944     102002.7      46.7237      46.7237      46.7237 
  345000    109.24519   -8121.8876   -7459.8632   -1021.6293     102002.7      46.7237      46.7237      46.7237 
  346000    108.13189   -8111.9578     -7456.68   -685.01173     102002.7      46.7237      46.7237      46.7237 
  347000    109.56583    -8121.593   -7457.6255   -686.60185     102002.7      46.7237      46.7237      46.7237 
  348000    108.47374   -8120.1224   -7462.7729   -900.12144     102002.7      46.7237      46.7237      46.7237 
  349000    110.95383   -8113.1665   -7440.7878   -980.51042     102002.7      46.7237      46.7237      46.7237 
  350000    110.11608   -8127.7031   -7460.4011    -692.0783     102002.7      46.7237      46.7237      46.7237 
  351000    110.21799   -8096.9899   -7429.0703    -553.7055     102002.7      46.7237      46.7237      46.7237 
  352000    110.08053   -8123.7224   -7456.6358   -736.79255     102002.7      46.7237      46.7237      46.7237 
  353000    111.50381    -8150.622   -7474.9104   -587.67096     102002.7      46.7237      46.7237      46.7237 
  354000    111.92742      -8123.5   -7445.2213   -923.41978     102002.7      46.7237      46.7237      46.7237 
  355000    108.32853   -8131.2802   -7474.8108   -529.32673     102002.7      46.7237      46.7237      46.7237 
  356000    107.82584   -8119.7963   -7466.3731    -891.9632     102002.7      46.7237      46.7237      46.7237 
  357000    110.32133   -8136.6432   -7468.0974   -817.69731     102002.7      46.7237      46.7237      46.7237 
  358000    107.61881   -8144.6226    -7492.454   -708.54641     102002.7      46.7237      46.7237      46.7237 
  359000    109.07609   -8108.0387   -7447.0391   -1015.0163     102002.7      46.7237      46.7237      46.7237 
  360000    111.14667   -8119.2664    -7445.719   -792.55282     102002.7      46.7237      46.7237      46.7237 
  361000    108.95121    -8133.158   -7472.9151   -869.84064     102002.7      46.7237      46.7237      46.7237 
  362000    110.25475   -8139.2504   -7471.1081   -1017.2468     102002.7      46.7237      46.7237      46.7237 
  363000    109.83012    -8118.269   -7452.6999   -874.99932     102002.7      46.7237      46.7237      46.7237 
  364000    108.47445   -8166.2736   -7508.9199   -864.93197     102002.7      46.7237      46.7237      46.7237 
  365000    111.78568   -8133.4253   -7456.0055   -1066.5551     102002.7      46.7237      46.7237      46.7237 
  366000    110.19488   -8150.2449   -7482.4653   -1066.4861     102002.7      46.7237      46.7237      46.7237 
  367000    110.05221   -8122.4162   -7455.5013   -809.09514     102002.7      46.7237      46.7237      46.7237 
  368000    112.34997   -8128.2862   -7447.4469   -850.57003     102002.7      46.7237      46.7237      46.7237 
  369000    107.83435   -8144.9196   -7491.4449   -624.72044     102002.7      46.7237      46.7237      46.7237 
  370000    109.68279   -8127.5996   -7462.9233   -962.78233     102002.7      46.7237      46.7237      46.7237 
  371000    110.75614   -8140.4474   -7469.2667   -818.06787     102002.7      46.7237      46.7237      46.7237 
  372000     108.3357    -8139.304   -7482.7911   -554.38115     102002.7      46.7237      46.7237      46.7237 
  373000    109.91505   -8117.3188    -7451.235   -924.46552     102002.7      46.7237      46.7237      46.7237 
  374000    109.22142   -8113.5603   -7451.6799    -837.5697     102002.7      46.7237      46.7237      46.7237 
  375000    108.11566   -8122.1624   -7466.9829   -1082.6378     102002.7      46.7237      46.7237      46.7237 
  376000    112.10266    -8118.702   -7439.3613    -826.2364     102002.7      46.7237      46.7237      46.7237 
  377000    110.16877   -8110.0416   -7442.4203    -1000.199     102002.7      46.7237      46.7237      46.7237 
  378000    111.10664   -8135.9793   -7462.6745   -1026.8862     102002.7      46.7237      46.7237      46.7237 
  379000    112.13475   -8119.4563   -7439.9213   -692.33812     102002.7      46.7237      46.7237      46.7237 
  380000    111.47069   -8127.8262   -7452.3152   -881.37754     102002.7      46.7237      46.7237      46.7237 
  381000    113.65137   -8152.9307   -7464.2049   -1055.1912     102002.7      46.7237      46.7237      46.7237 
  382000    110.39486   -8132.6776   -7463.6862   -1034.0781     102002.7      46.7237      46.7237      46.7237 
  383000    110.22122   -8135.5341   -7467.5949   -729.42776     102002.7      46.7237      46.7237      46.7237 
  384000     110.7124   -8117.4372   -7446.5216   -1017.9831     102002.7      46.7237      46.7237      46.7237 
  385000     111.5476   -8123.0001   -7447.0232    -723.1086     102002.7      46.7237      46.7237      46.7237 
  386000    109.17835   -8124.4791   -7462.8597   -941.45366     102002.7      46.7237      46.7237      46.7237 
  387000     113.0381   -8140.8607   -7455.8513   -567.12101     102002.7      46.7237      46.7237      46.7237 
  388000    107.70365   -8126.3337    -7473.651   -841.07604     102002.7      46.7237      46.7237      46.7237 
  389000    111.17439   -8143.9538   -7470.2384   -747.14935     102002.7      46.7237      46.7237      46.7237 
  390000    110.93102   -8122.3803   -7450.1398   -792.27134     102002.7      46.7237      46.7237      46.7237 
  391000    111.85488   -8154.8505   -7477.0114    -906.0466     102002.7      46.7237      46.7237      46.7237 
  392000    111.08785   -8132.3225   -7459.1316   -662.49673     102002.7      46.7237      46.7237      46.7237 
  393000    112.66683   -8118.8271   -7436.0676   -816.57573     102002.7      46.7237      46.7237      46.7237 
  394000    110.25671    -8114.542   -7446.3878   -821.18619     102002.7      46.7237      46.7237      46.7237 
  395000    106.86775   -8140.6965   -7493.0793   -679.54409     102002.7      46.7237      46.7237      46.7237 
  396000    108.52643   -8115.9227    -7458.254    -705.1369     102002.7      46.7237      46.7237      46.7237 
  397000    111.78128   -8129.5831     -7452.19   -757.69892     102002.7      46.7237      46.7237      46.7237 
  398000    107.77935    -8129.444   -7476.3025   -932.65236     102002.7      46.7237      46.7237      46.7237 
  399000    110.22707   -8136.3788   -7468.4042   -734.17758     102002.7      46.7237      46.7237      46.7237 
  400000    109.48333   -8137.1566    -7473.689   -951.44411     102002.7      46.7237      46.7237      46.7237 
  401000    113.86211    -8140.567   -7450.5641   -867.71849     102002.7      46.7237      46.7237      46.7237 
  402000     109.1027   -8141.2046   -7480.0437   -743.64566     102002.7      46.7237      46.7237      46.7237 
  403000    110.96182   -8114.5552    -7442.128   -751.72755     102002.7      46.7237      46.7237      46.7237 
  404000    111.52842    -8119.097   -7443.2362   -965.14485     102002.7      46.7237      46.7237      46.7237 
  405000    110.17038   -8137.6825   -7470.0515   -860.86076     102002.7      46.7237      46.7237      46.7237 
  406000    108.42549   -8128.9755   -7471.9184   -699.08525     102002.7      46.7237      46.7237      46.7237 
  407000    108.59493   -8112.5863   -7454.5024   -692.31764     102002.7      46.7237      46.7237      46.7237 
  408000      108.246   -8133.9003    -7477.931   -681.25931     102002.7      46.7237      46.7237      46.7237 
  409000    105.72859   -8113.0158   -7472.3019   -978.94757     102002.7      46.7237      46.7237      46.7237 
  410000    112.18552   -8122.8919   -7443.0491   -771.63214     102002.7      46.7237      46.7237      46.7237 
  411000    110.03652   -8141.4578   -7474.6379   -577.97763     102002.7      46.7237      46.7237      46.7237 
  412000    108.78949   -8130.7118   -7471.4489   -945.16582     102002.7      46.7237      46.7237      46.7237 
  413000    111.17741   -8093.0363   -7419.3027   -527.88939     102002.7      46.7237      46.7237      46.7237 
  414000    111.52832   -8142.7554   -7466.8952   -738.40513     102002.7      46.7237      46.7237      46.7237 
  415000    108.78886   -8106.2871    -7447.028   -565.44944     102002.7      46.7237      46.7237      46.7237 
  416000      109.775   -8130.5612   -7465.3262   -811.52501     102002.7      46.7237      46.7237      46.7237 
  417000    111.86851   -8119.2705   -7441.3488   -640.76912     102002.7      46.7237      46.7237      46.7237 
  418000    111.06807   -8127.7788   -7454.7077   -784.92335     102002.7      46.7237      46.7237      46.7237 
  419000    109.97442   -8119.4015    -7452.958   -894.23485     102002.7      46.7237      46.7237      46.7237 
  420000    113.02023   -8122.1413   -7437.2402   -811.74003     102002.7      46.7237      46.7237      46.7237 
  421000    110.44779   -8122.2166   -7452.9044   -1122.3315     102002.7      46.7237      46.7237      46.7237 
  422000    112.07908     -8140.06   -7460.8622    -1114.923     102002.7      46.7237      46.7237      46.7237 
  423000    108.09984   -8135.8803   -7480.7967   -969.94347     102002.7      46.7237      46.7237      46.7237 
  424000    110.68087   -8140.9014   -7470.1768   -621.80155     102002.7      46.7237      46.7237      46.7237 
  425000     111.5729   -8125.1367   -7449.0064   -788.78092     102002.7      46.7237      46.7237      46.7237 
  426000    108.62069   -8122.3724   -7464.1324   -591.23261     102002.7      46.7237      46.7237      46.7237 
  427000    110.85137   -8119.6209   -7447.8631    -950.4569     102002.7      46.7237      46.7237      46.7237 
  428000    106.84127   -8134.7537    -7487.297   -770.13242     102002.7      46.7237      46.7237      46.7237 
  429000    108.13637   -8109.3793   -7454.0744   -863.74556     102002.7      46.7237      46.7237      46.7237 
  430000    111.33126   -8120.5399   -7445.8739   -821.78985     102002.7      46.7237      46.7237      46.7237 
  431000    109.37882   -8115.1566   -7452.3224   -769.58876     102002.7      46.7237      46.7237      46.7237 
  432000    107.52488   -8107.3924   -7455.7931   -726.34611     102002.7      46.7237      46.7237      46.7237 
  433000     111.3495   -8085.4148   -7410.6382   -967.85391     102002.7      46.7237      46.7237      46.7237 
  434000    106.52883   -8108.9839   -7463.4206   -973.87892     102002.7      46.7237      46.7237      46.7237 
  435000    110.14913    -8111.982   -7444.4797   -692.88545     102002.7      46.7237      46.7237      46.7237 
  436000    111.57522   -8144.5592   -7468.4148   -695.69672     102002.7      46.7237      46.7237      46.7237 
  437000    111.14338    -8120.447   -7446.9196   -839.97237     102002.7      46.7237      46.7237      46.7237 
  438000    110.36889   -8101.2576   -7432.4236   -669.22261     102002.7      46.7237      46.7237      46.7237 
  439000     108.5777   -8099.0687   -7441.0893    -725.9749     102002.7      46.7237      46.7237      46.7237 
  440000    109.80857   -8156.4426   -7491.0041   -794.02356     102002.7      46.7237      46.7237      46.7237 
  441000    111.43673   -8120.3437   -7445.0386    -867.6366     102002.7      46.7237      46.7237      46.7237 
  442000    112.24906   -8115.2762   -7435.0484   -941.16702     102002.7      46.7237      46.7237      46.7237 
  443000    110.18475    -8127.909   -7460.1909   -724.57753     102002.7      46.7237      46.7237      46.7237 
  444000    110.73652   -8135.6693   -7464.6075   -775.81538     102002.7      46.7237      46.7237      46.7237 
  445000    112.55249   -8116.6196    -7434.553   -615.37227     102002.7      46.7237      46.7237      46.7237 
  446000    109.92916   -8141.6003   -7475.4311   -924.87631     102002.7      46.7237      46.7237      46.7237 
  447000    113.07459     -8106.81   -7421.5794   -598.82061     102002.7      46.7237      46.7237      46.7237 
  448000    109.45557   -8138.8931   -7475.5938   -481.91277     102002.7      46.7237      46.7237      46.7237 
  449000    109.21906   -8107.3125   -7445.4464   -761.71826     102002.7      46.7237      46.7237      46.7237 
  450000    111.07309   -8119.3564    -7446.255   -686.00538     102002.7      46.7237      46.7237      46.7237 
  451000    108.09427   -8146.3336   -7491.2837   -365.19194     102002.7      46.7237      46.7237      46.7237 
  452000    109.31601   -8136.7481   -7474.2945   -766.77524     102002.7      46.7237      46.7237      46.7237 
  453000     108.9866   -8150.0376   -7489.5802   -482.44469     102002.7      46.7237      46.7237      46.7237 
  454000    110.30369   -8139.7462   -7471.3073   -859.64268     102002.7      46.7237      46.7237      46.7237 
  455000    109.25872   -8115.6594    -7453.553    -894.8041     102002.7      46.7237      46.7237      46.7237 
  456000    107.47659   -8122.9075   -7471.6007   -827.35047     102002.7      46.7237      46.7237      46.7237 
  457000     108.5752   -8110.4274   -7452.4632   -858.96145     102002.7      46.7237      46.7237      46.7237 
  458000    109.66874   -8121.5174   -7456.9263   -1109.7584     102002.7      46.7237      46.7237      46.7237 
  459000    106.32433   -8130.7932   -7486.4691   -905.70433     102002.7      46.7237      46.7237      46.7237 
  460000    112.17287   -8136.5615   -7456.7954   -584.78465     102002.7      46.7237      46.7237      46.7237 
  461000    109.90017   -8146.0103   -7480.0167   -909.15624     102002.7      46.7237      46.7237      46.7237 
  462000    112.65341   -8107.5685   -7424.8903   -904.38523     102002.7      46.7237      46.7237      46.7237 
  463000    110.84423    -8144.471   -7472.7564   -1039.6653     102002.7      46.7237      46.7237      46.7237 
  464000     112.4371   -8131.6724   -7450.3051   -628.28154     102002.7      46.7237      46.7237      46.7237 
  465000     109.0544   -8150.5317   -7489.6634   -758.65869     102002.7      46.7237      46.7237      46.7237 
  466000    110.92482   -8144.0447   -7471.8418   -833.95951     102002.7      46.7237      46.7237      46.7237 
  467000    112.92708   -8124.0722   -7439.7356    -681.6977     102002.7      46.7237      46.7237      46.7237 
  468000    112.65936   -8117.2407   -7434.5265   -942.60554     102002.7      46.7237      46.7237      46.7237 
  469000    110.66058   -8129.0429   -7458.4412   -609.62432     102002.7      46.7237      46.7237      46.7237 
  470000    105.87195   -8128.8092   -7487.2265    -705.1206     102002.7      46.7237      46.7237      46.7237 
  471000    112.28758     -8130.63   -7450.1687   -730.72877     102002.7      46.7237      46.7237      46.7237 
  472000    112.00731   -8118.6747   -7439.9118   -612.94343     102002.7      46.7237      46.7237      46.7237 
  473000    108.68088   -8124.0253   -7465.4206   -831.24729     102002.7      46.7237      46.7237      46.7237 
  474000    109.86134    -8116.159   -7450.4008   -715.46443     102002.7      46.7237      46.7237      46.7237 
  475000    109.05071   -8130.1982   -7469.3524   -804.62498     102002.7      46.7237      46.7237      46.7237 
  476000    111.41699   -8133.9847   -7458.7992   -750.48076     102002.7      46.7237      46.7237      46.7237 
  477000    111.69778   -8117.2709   -7440.3839   -656.14001     102002.7      46.7237      46.7237      46.7237 
  478000    111.57625   -8147.7755   -7471.6249    -858.4913     102002.7      46.7237      46.7237      46.7237 
  479000    110.19054   -8148.1924   -7480.4392   -776.75948     102002.7      46.7237      46.7237      46.7237 
  480000    113.51737   -8094.0833   -7406.1695   -895.17375     102002.7      46.7237      46.7237      46.7237 
  481000    110.25669    -8136.274   -7468.1199   -756.84848     102002.7      46.7237      46.7237      46.7237 
  482000    111.66422   -8136.6325   -7459.9488   -945.66203     102002.7      46.7237      46.7237      46.7237 
  483000    112.24903   -8123.4829   -7443.2552   -729.33427     102002.7      46.7237      46.7237      46.7237 
  484000    111.40115   -8131.5958   -7456.5064   -854.90157     102002.7      46.7237      46.7237      46.7237 
  485000    109.34674    -8142.753   -7480.1131     -881.822     102002.7      46.7237      46.7237      46.7237 
  486000    111.07294   -8134.2302   -7461.1297   -973.19055     102002.7      46.7237      46.7237      46.7237 
  487000    107.91827   -8140.0363   -7486.0529   -748.20807     102002.7      46.7237      46.7237      46.7237 
  488000    112.12237   -8119.7919   -7440.3318   -807.40049     102002.7      46.7237      46.7237      46.7237 
  489000    109.95894   -8141.6879   -7475.3381   -743.14398     102002.7      46.7237      46.7237      46.7237 
  490000    109.71548   -8125.1159   -7460.2416   -992.48312     102002.7      46.7237      46.7237      46.7237 
  491000    110.99967   -8134.2345   -7461.5779   -1065.6018     102002.7      46.7237      46.7237      46.7237 
  492000     109.4166    -8131.972   -7468.9088   -878.19425     102002.7      46.7237      46.7237      46.7237 
  493000    109.46646   -8145.2983    -7481.933   -937.02484     102002.7      46.7237      46.7237      46.7237 
  494000    114.35259   -8150.3017   -7457.3265   -632.63288     102002.7      46.7237      46.7237      46.7237 
  495000    107.87375    -8128.161   -7474.4474   -861.74841     102002.7      46.7237      46.7237      46.7237 
  496000    110.21967   -8150.5508   -7482.6211   -707.79187     102002.7      46.7237      46.7237      46.7237 
  497000    109.20758   -8125.2533   -7463.4568   -423.85041     102002.7      46.7237      46.7237      46.7237 
  498000    109.51585   -8109.5259   -7445.8613   -871.03643     102002.7      46.7237      46.7237      46.7237 
  499000    107.81047   -8128.0459   -7474.7159   -402.17543     102002.7      46.7237      46.7237      46.7237 
  500000    108.64984   -8129.9783   -7471.5617    -756.3892     102002.7      46.7237      46.7237      46.7237 
  500501     108.9031   -8112.0612   -7452.1098   -931.28727     102002.7      46.7237      46.7237      46.7237 
Loop time of 650.634 on 24 procs for 500000 steps with 2034 atoms

Performance: 66.397 ns/day, 0.361 hours/ns, 768.482 timesteps/s
99.5% CPU use with 24 MPI tasks x no OpenMP threads

MPI task timing breakdown:
Section |  min time  |  avg time  |  max time  |%varavg| %total
---------------------------------------------------------------
Pair    | 199.32     | 307.64     | 423.26     | 455.6 | 47.28
Bond    | 60.495     | 78.492     | 101.9      | 149.6 | 12.06
Neigh   | 3.3863     | 3.414      | 3.436      |   0.9 |  0.52
Comm    | 119.32     | 252.82     | 373.38     | 564.6 | 38.86
Output  | 0.39078    | 0.39112    | 0.39587    |   0.2 |  0.06
Modify  | 3.7551     | 4.1845     | 4.6518     |  14.6 |  0.64
Other   |            | 3.693      |            |       |  0.57

Nlocal:    84.75 ave 116 max 54 min
Histogram: 3 1 3 1 3 3 5 0 4 1
Nghost:    2295.29 ave 2460 max 2202 min
Histogram: 7 7 2 0 0 0 0 1 6 1
Neighs:    7636.79 ave 11988 max 3454 min
Histogram: 4 2 3 4 0 0 1 4 3 3

Total # of neighbors = 183283
Ave neighs/atom = 90.1096
Ave special neighs/atom = 5.66372
Neighbor list builds = 4329
Dangerous builds = 0
Neighbor list info ...
  update every 1 steps, delay 10 steps, check yes
  max neighbors/atom: 2000, page size: 100000
  master list distance cutoff = 16
  ghost atom cutoff = 16
  binsize = 8, bins = 6 6 6
  3 neighbor lists, perpetual/occasional/extra = 3 0 0
  (1) pair buck6d/coul/gauss/dsf, perpetual, skip from (3)
      attributes: half, newton on
      pair build: skip
      stencil: none
      bin: none
  (2) pair lj/cut, perpetual, skip from (3)
      attributes: half, newton on
      pair build: skip
      stencil: none
      bin: none
  (3) neighbor class addition, perpetual
      attributes: half, newton on
      pair build: half/bin/newton
      stencil: half/bin/3d/newton
      bin: standard
Setting up Verlet run ...
  Unit style    : real
  Current step  : 500501
  Time step     : 1
WARNING: Inconsistent image flags (../domain.cpp:786)
Per MPI rank memory allocation (min/avg/max) = 23.96 | 24.47 | 24.59 Mbytes
Step Time TotEng KinEng PotEng E_mol E_pair Temp Pxx Pyy Pzz Pxy Pxz Pyz Cella Cellb Cellc CellAlpha CellBeta CellGamma Volume Press 
  500501       500000   -7452.1098    659.95136   -8112.0612    4325.1911   -12437.252     108.9031   -622.32854   -724.30165   -1447.2316   -14.738204    92.887327    67.583961      46.7237      46.7237      46.7237           90           90           90     102002.7   -931.28727 
  501000       500499   -7481.4482     668.1334   -8149.5816    4282.3983    -12431.98    110.25328     -671.544   -328.19718   -518.51855    62.256478    36.161584   -215.36821      46.7237      46.7237      46.7237           90           90           90     102002.7   -506.08658 
  502000       501499    -7478.332    665.39076   -8143.7228    4270.5255   -12414.248    109.80069   -937.36519   -676.63435   -729.05494    87.129068    133.63098   -237.01744      46.7237      46.7237      46.7237           90           90           90     102002.7   -781.01816 
  503000       502499   -7465.3161    675.97807   -8141.2941    4306.8846   -12448.179    111.54778   -810.55289   -933.10444    -1264.871   -114.90867    155.93444    207.81202      46.7237      46.7237      46.7237           90           90           90     102002.7   -1002.8428 
  504000       503499   -7443.7783    680.75289   -8124.5312    4309.0242   -12433.555     112.3357   -11.345288   -917.51328    -789.2519    136.15493   -165.96245   -41.337605      46.7237      46.7237      46.7237           90           90           90     102002.7   -572.70349 
  505000       504499   -7434.7197    674.74421   -8109.4639    4319.6941   -12429.158    111.34417   -584.68291   -637.05118   -358.83701    8.1515655    79.979708    319.34867      46.7237      46.7237      46.7237           90           90           90     102002.7   -526.85703 
  506000       505499   -7470.5262    662.14058   -8132.6668    4277.0466   -12409.713    109.26436   -313.72949   -726.86286   -577.68122   -117.60997    69.052912   -142.18267      46.7237      46.7237      46.7237           90           90           90     102002.7   -539.42453 
  507000       506499   -7483.2354    670.96426   -8154.1997    4273.4203    -12427.62    110.72042    -758.9298   -462.61235   -1017.8139   -14.216891   -190.84403   -58.985166      46.7237      46.7237      46.7237           90           90           90     102002.7     -746.452 
  508000       507499   -7473.5749    674.07461   -8147.6495    4291.4946   -12439.144    111.23368   -273.41068   -863.81643   -1191.9678    4.1158448   -301.56427   -44.270004      46.7237      46.7237      46.7237           90           90           90     102002.7    -776.3983 
  509000       508499   -7486.1053    667.67853   -8153.7838     4254.426    -12408.21    110.17821   -902.78838   -800.15682   -983.80218    263.98272    163.85421    4.5185198      46.7237      46.7237      46.7237           90           90           90     102002.7   -895.58246 
  510000       509499   -7503.6674    654.75213   -8158.4196    4281.8862   -12440.306    108.04514   -972.29457   -853.52858   -932.85044    -25.57955    73.649551     80.18954      46.7237      46.7237      46.7237           90           90           90     102002.7   -919.55786 
  511000       510499   -7464.2512    655.08368   -8119.3349    4322.6561   -12441.991    108.09985   -845.04529   -670.35637   -752.68601    43.676384   -132.85258   -36.195493      46.7237      46.7237      46.7237           90           90           90     102002.7   -756.02923 
  512000       511499   -7471.4867    671.48006   -8142.9667    4289.8436    -12432.81    110.80553    -689.0856   -804.44004   -1127.6408    187.18375    2.1948105     93.82597      46.7237      46.7237      46.7237           90           90           90     102002.7   -873.72213 
  513000       512499   -7462.8637    663.44152   -8126.3052    4297.6081   -12423.913    109.47904   -242.78611   -751.24685   -810.05668   -90.990214    265.91378    76.882213      46.7237      46.7237      46.7237           90           90           90     102002.7   -601.36321 
  514000       513499   -7469.9712    657.58926   -8127.5605     4305.873   -12433.433    108.51331   -1112.6332   -1285.2954   -1000.5966    47.511643   -74.516758    113.22816      46.7237      46.7237      46.7237           90           90           90     102002.7   -1132.8417 
  515000       514499   -7445.7555    673.11552   -8118.8711    4328.2707   -12447.142    111.07541   -1084.7489   -952.31897   -993.19832    166.29442   -103.86302    63.465894      46.7237      46.7237      46.7237           90           90           90     102002.7   -1010.0887 
  516000       515499     -7446.31    665.48583   -8111.7959     4310.419   -12422.215    109.81638   -1055.7874   -947.04578   -1243.0414    140.79336   -1.6671152   -8.0669056      46.7237      46.7237      46.7237           90           90           90     102002.7   -1081.9582 
  517000       516499   -7476.8229    663.55757   -8140.3805    4282.3112   -12422.692    109.49819   -349.53707   -808.96874   -1250.1642   -13.396252    215.84905    148.99485      46.7237      46.7237      46.7237           90           90           90     102002.7      -802.89 
  518000       517499   -7458.5086    670.28605   -8128.7947     4300.684   -12429.479     110.6085   -522.36568   -597.50949   -630.73751    135.22424    85.154391   -55.265237      46.7237      46.7237      46.7237           90           90           90     102002.7   -583.53756 
  519000       518499   -7467.6114    665.22954   -8132.8409     4302.814   -12435.655    109.77409   -1237.4573   -1050.6096   -769.65556   -183.94521    135.45583   -254.19489      46.7237      46.7237      46.7237           90           90           90     102002.7   -1019.2408 
  520000       519499    -7501.231    653.02697   -8154.2579    4298.0645   -12452.322    107.76046   -729.00979   -635.71217   -604.70592   -28.162831    210.04665   -116.26564      46.7237      46.7237      46.7237           90           90           90     102002.7   -656.47596 
  521000       520499    -7475.118    649.84023   -8124.9583    4287.6644   -12412.623    107.23459    23.626703   -758.90891    -1010.283    119.76478    2.3772658   -75.713944      46.7237      46.7237      46.7237           90           90           90     102002.7   -581.85508 
  522000       521499   -7416.3449    691.01606    -8107.361    4324.6991    -12432.06     114.0293   -415.96077   -490.16613   -485.38857   -2.3201438    18.646659   -69.296662      46.7237      46.7237      46.7237           90           90           90     102002.7   -463.83849 
  523000       522499   -7482.4472    653.52385    -8135.971    4287.8283   -12423.799    107.84245   -826.33865   -1160.9551   -444.55516    274.73859    13.464377    140.29084      46.7237      46.7237      46.7237           90           90           90     102002.7   -810.61631 
  524000       523499   -7449.9929    680.87388   -8130.8668    4290.4684   -12421.335    112.35567   -265.38846   -654.08748   -469.10289   -62.602588    80.084411    96.064678      46.7237      46.7237      46.7237           90           90           90     102002.7   -462.85961 
  525000       524499   -7486.7634    657.31118   -8144.0746    4283.7962   -12427.871    108.46743   -585.46512   -790.94559   -836.15029    69.094213    126.19549   -118.33896      46.7237      46.7237      46.7237           90           90           90     102002.7   -737.52033 
  526000       525499   -7477.4634    660.00864    -8137.472    4297.1774   -12434.649    108.91255   -832.73425   -1020.4332   -1226.1355    148.89196   -104.27084   -62.918999      46.7237      46.7237      46.7237           90           90           90     102002.7   -1026.4343 
  527000       526499   -7437.4678    677.56925   -8115.0371    4319.1703   -12434.207    111.81035   -858.16324    -623.9887   -799.68396    159.36572    53.913166   -147.34672      46.7237      46.7237      46.7237           90           90           90     102002.7   -760.61197 
  528000       527499   -7481.1935     659.0035    -8140.197    4293.4359   -12433.633    108.74669   -618.02956   -1402.4282   -989.27072   -119.43348    12.617755    101.71881      46.7237      46.7237      46.7237           90           90           90     102002.7   -1003.2428 
  529000       528499   -7463.8239    675.41757   -8139.2415    4294.5131   -12433.755    111.45529   -598.68178   -610.34146   -633.78373   -260.49638    104.60666   -121.65659      46.7237      46.7237      46.7237           90           90           90     102002.7   -614.26899 
  530000       529499   -7502.2663    639.04126   -8141.3076    4311.8883   -12453.196    105.45258   -776.25126   -516.13667   -1004.0939   -211.25078   -183.93444    205.20188      46.7237      46.7237      46.7237           90           90           90     102002.7   -765.49396 
  531000       530499   -7474.7291    654.37575   -8129.1049    4299.5484   -12428.653    107.98303   -975.86138   -423.04151   -879.37569   -271.86265    301.74102     57.04977      46.7237      46.7237      46.7237           90           90           90     102002.7   -759.42619 
  532000       531499   -7453.7188    661.33803   -8115.0569    4329.0251   -12444.082    109.13193   -767.55872   -488.96158   -1319.5929    55.640193    37.779262    1.5293027      46.7237      46.7237      46.7237           90           90           90     102002.7   -858.70438 
  533000       532499   -7467.9156    665.13005   -8133.0457     4282.175   -12415.221    109.75767   -200.73444   -972.04482   -1128.5231   -19.029091   -90.721203   -276.38392      46.7237      46.7237      46.7237           90           90           90     102002.7   -767.10078 
  534000       533499   -7453.6118    684.54441   -8138.1562    4289.8727   -12428.029    112.96137   -534.19313   -354.30794   -788.85717   -119.26471    85.779724   -50.709873      46.7237      46.7237      46.7237           90           90           90     102002.7   -559.11941 
  535000       534499    -7463.675    684.88866   -8148.5637    4287.9778   -12436.541    113.01818   -736.48497   -641.56358   -1067.9543     51.86661    -110.8967    354.71725      46.7237      46.7237      46.7237           90           90           90     102002.7   -815.33429 
  536000       535499   -7485.5089    648.63541   -8134.1443    4308.6181   -12442.762    107.03578   -753.73448   -876.76127   -924.57812    71.744191    155.47184   -51.643384      46.7237      46.7237      46.7237           90           90           90     102002.7   -851.69129 
  537000       536499   -7450.6582    658.58812   -8109.2463    4318.9149   -12428.161    108.67814   -827.74839   -1095.6658    -1509.685      132.299     93.88871    86.192073      46.7237      46.7237      46.7237           90           90           90     102002.7   -1144.3664 
  538000       537499   -7476.3389    660.73161   -8137.0705    4292.0051   -12429.076    109.03186   -866.01398   -744.57712   -630.20734    115.68384    147.40166    -118.5036      46.7237      46.7237      46.7237           90           90           90     102002.7   -746.93281 
  539000       538499   -7480.8766     664.8579   -8145.7345    4271.4883   -12417.223    109.71276   -587.45557   -206.63455   -762.78403   -199.67118   -124.21153   -64.745157      46.7237      46.7237      46.7237           90           90           90     102002.7   -518.95805 
  540000       539499   -7451.7732    679.35177    -8131.125    4310.9717   -12442.097     112.1045   -979.15301   -933.56683   -1060.1372    85.884345   -182.48437    68.686394      46.7237      46.7237      46.7237           90           90           90     102002.7   -990.95236 
  541000       540499   -7467.2655    663.93819   -8131.2037    4310.5608   -12441.765      109.561    -545.0189   -497.12664   -652.56315    22.136622    -16.04961   -230.18766      46.7237      46.7237      46.7237           90           90           90     102002.7    -564.9029 
  542000       541499   -7456.4914    668.57994   -8125.0714    4296.1192   -12421.191    110.32696   -1042.6675   -387.82823   -631.99206   -7.9873167    97.974803    6.5954648      46.7237      46.7237      46.7237           90           90           90     102002.7   -687.49593 
  543000       542499   -7444.6444    678.17186   -8122.8163    4302.6989   -12425.515    111.90979   -1180.7868   -650.29046   -1315.5104   -336.34336    -95.35888      146.261      46.7237      46.7237      46.7237           90           90           90     102002.7   -1048.8626 
  544000       543499   -7450.9274    674.95553   -8125.8829    4299.2698   -12425.153    111.37904   -1006.3891   -663.40458   -1097.7465    190.82167    109.39318   -36.226254      46.7237      46.7237      46.7237           90           90           90     102002.7   -922.51342 
  545000       544499   -7483.0942    657.41357   -8140.5077    4288.4338   -12428.942    108.48432   -1225.4044   -988.18666   -916.45743    34.266724   -164.96391    191.66338      46.7237      46.7237      46.7237           90           90           90     102002.7   -1043.3495 
  546000       545499   -7451.2013    672.05039   -8123.2517    4315.1049   -12438.357    110.89965   -228.38248   -552.30613   -1030.6386    174.24127    20.024284    -189.9191      46.7237      46.7237      46.7237           90           90           90     102002.7   -603.77574 
  547000       546499   -7447.8478    664.33217     -8112.18    4302.2257   -12414.406    109.62601   -386.39024   -665.38282   -755.08429   -19.408735    6.5255118    233.64355      46.7237      46.7237      46.7237           90           90           90     102002.7   -602.28578 
  548000       547499   -7460.3224    674.27965   -8134.6021    4281.9169   -12416.519    111.26751   -483.93302    -751.2565   -682.47768    147.79791   -267.62477   -21.816771      46.7237      46.7237      46.7237           90           90           90     102002.7    -639.2224 
  549000       548499   -7465.4056    656.99669   -8122.4023    4305.8264   -12428.229    108.41553   -860.81568   -257.11202   -593.02173    148.00888    155.56226   -50.875934      46.7237      46.7237      46.7237           90           90           90     102002.7   -570.31647 
  550000       549499   -7455.0642     660.9305   -8115.9947    4309.2558   -12425.251    109.06468   -474.37667   -473.06375   -684.41368   -79.632132    185.73518   -33.218923      46.7237      46.7237      46.7237           90           90           90     102002.7   -543.95137 
  551000       550499   -7456.1987    660.78312   -8116.9818    4307.5141   -12424.496    109.04036   -901.57478   -438.47953   -747.30871  -0.94824896    227.30871   -12.461405      46.7237      46.7237      46.7237           90           90           90     102002.7   -695.78767 
  552000       551499   -7484.8867    657.63347   -8142.5202    4282.5953   -12425.115    108.52061   -1006.8924   -347.95134   -583.75032    97.344843   -56.378825    139.09701      46.7237      46.7237      46.7237           90           90           90     102002.7   -646.19802 
  553000       552499   -7452.4107    674.28551   -8126.6963    4301.9967   -12428.693    111.26848    -501.9528   -810.30754   -371.22565   -99.659562   -39.683938     9.716027      46.7237      46.7237      46.7237           90           90           90     102002.7     -561.162 
  554000       553499   -7451.8818    672.25202   -8124.1338    4307.0492   -12431.183    110.93292    -582.6873   -1113.2424   -333.00753    36.260015   -281.42287   -89.580403      46.7237      46.7237      46.7237           90           90           90     102002.7   -676.31241 
  555000       554499   -7469.8491    650.39106   -8120.2402    4321.1653   -12441.406    107.32549   -834.95773   -777.88296   -336.02697    195.01113    3.0821344   -143.65218      46.7237      46.7237      46.7237           90           90           90     102002.7   -649.62256 
[...]
  936000       935499   -7441.3957    667.12102   -8108.5167    4289.3862   -12397.903    110.08622   -547.16093   -1015.7749   -832.78862    330.56683    140.44129   -20.246224      46.7237      46.7237      46.7237           90           90           90     102002.7   -798.57483 
  937000       936499   -7444.3239    670.29071   -8114.6146     4289.202   -12403.817    110.60927   -567.15255   -733.37767   -679.27055    103.60086   -18.265366   -119.61336      46.7237      46.7237      46.7237           90           90           90     102002.7   -659.93359 
  938000       937499   -7484.6495    650.32818   -8134.9777    4295.0493   -12430.027    107.31512   -688.60555   -855.52388   -482.57839    203.79351    25.689558   -74.731349      46.7237      46.7237      46.7237           90           90           90     102002.7   -675.56927 
  939000       938499   -7472.4446    666.88449   -8139.3291    4287.3958   -12426.725    110.04718   -630.49398   -800.48842   -1240.8156    12.566302   -36.305907   -5.2257038      46.7237      46.7237      46.7237           90           90           90     102002.7   -890.59933 
  940000       939499   -7471.5625    673.03898   -8144.6015    4260.7331   -12405.335    111.06278   -1078.2623   -832.00927   -350.57701  -0.97323756    166.75924    212.11095      46.7237      46.7237      46.7237           90           90           90     102002.7    -753.6162 
  941000       940499   -7466.2285    668.69049    -8134.919    4296.3316   -12431.251     110.3452   -1299.9294   -532.65893   -1252.7099   -214.78581    139.00053    167.73199      46.7237      46.7237      46.7237           90           90           90     102002.7   -1028.4328 
  942000       941499   -7439.3791    663.61107   -8102.9902    4323.9604   -12426.951    109.50702   -706.41847   -1130.3195   -1449.6141   -80.586799    237.75089    363.30962      46.7237      46.7237      46.7237           90           90           90     102002.7   -1095.4507 
  943000       942499   -7461.7724    667.61431   -8129.3867    4296.8817   -12426.268    110.16762    -928.2769   -810.83826   -1141.4479    206.43194    140.43091   -21.604651      46.7237      46.7237      46.7237           90           90           90     102002.7    -960.1877 
  944000       943499   -7510.8563    653.41788   -8164.2742    4284.9766   -12449.251    107.82497   -976.80289   -314.97556   -787.65291   -172.39655    192.85291    24.486054      46.7237      46.7237      46.7237           90           90           90     102002.7   -693.14379 
  945000       944499   -7485.9079    643.70369   -8129.6115    4301.8213   -12431.433    106.22196   -1203.0161   -762.90131   -707.66903    137.32049   -49.906082   -108.97867      46.7237      46.7237      46.7237           90           90           90     102002.7   -891.19546 
  946000       945499   -7444.6288    676.04234   -8120.6711    4306.8433   -12427.514    111.55838   -633.94701   -659.13302   -925.06369    272.76534     38.27927    -172.1742      46.7237      46.7237      46.7237           90           90           90     102002.7   -739.38124 
  947000       946499   -7462.3277    665.47628    -8127.804    4286.3237   -12414.128    109.81481   -913.30392   -889.83538   -716.26693      151.114    26.325678     12.60473      46.7237      46.7237      46.7237           90           90           90     102002.7   -839.80208 
  948000       947499   -7467.4878    659.09395   -8126.5818    4299.0047   -12425.586    108.76161   -1226.7402     -1071.99   -1253.9086    146.27203   -279.47151    74.600373      46.7237      46.7237      46.7237           90           90           90     102002.7   -1184.2129 
  949000       948499   -7483.9872    658.67593   -8142.6631     4279.968   -12422.631    108.69263   -762.01231   -562.67445   -675.68525    4.7099069    17.864713     2.253161      46.7237      46.7237      46.7237           90           90           90     102002.7   -666.79067 
  950000       949499   -7453.6715    666.72397   -8120.3955    4313.8814   -12434.277     110.0207    -638.6859   -1135.3749   -890.87021    11.868549     258.1823    39.303648      46.7237      46.7237      46.7237           90           90           90     102002.7   -888.31033 
  951000       950499   -7433.3228    663.43182   -8096.7546    4318.2356    -12414.99    109.47744   -688.39627   -836.50855   -648.18467    90.405185   -251.40146    342.58188      46.7237      46.7237      46.7237           90           90           90     102002.7   -724.36317 
  952000       951499   -7452.1418    683.11237   -8135.2542    4276.7997   -12412.054    112.72506   -921.79156   -775.38057   -959.81221   -142.18015    45.717953    59.078538      46.7237      46.7237      46.7237           90           90           90     102002.7   -885.66145 
  953000       952499   -7457.3698    677.27752   -8134.6473    4299.5627    -12434.21    111.76221   -961.49413   -956.60272   -823.14275    98.846014    141.57747    60.966283      46.7237      46.7237      46.7237           90           90           90     102002.7   -913.74654 
  954000       953499    -7467.731    672.89493   -8140.6259    4287.7155   -12428.341    111.03901   -584.83954   -487.89243   -370.26274    232.64918   -46.753875    66.155274      46.7237      46.7237      46.7237           90           90           90     102002.7   -480.99824 
  955000       954499   -7444.0135    669.09555    -8113.109    4302.2356   -12415.345    110.41205   -732.72286   -760.15316   -805.85307   -14.804613    241.54429   -37.893418      46.7237      46.7237      46.7237           90           90           90     102002.7   -766.24303 
  956000       955499    -7457.709    664.42072   -8122.1297     4297.555   -12419.685    109.64062   -283.76304   -394.69863   -1127.2457   -84.807558   -40.435731   -14.518691      46.7237      46.7237      46.7237           90           90           90     102002.7   -601.90246 
  957000       956499   -7459.0196    673.44723   -8132.4669    4269.7836    -12402.25    111.13015   -1184.5987   -926.14937   -1040.9813    17.037694    142.99082   -88.029638      46.7237      46.7237      46.7237           90           90           90     102002.7   -1050.5765 
  958000       957499   -7467.6963    660.73147   -8128.4278     4281.411   -12409.839    109.03183   -910.55246   -627.48717    -567.1091  -0.80993986    -69.72748    259.25831      46.7237      46.7237      46.7237           90           90           90     102002.7   -701.71625 
  959000       958499   -7439.8755    681.91124   -8121.7867    4297.0015   -12418.788    112.52685   -566.65662   -524.60432   -453.41299   -63.854496    156.85667   -44.757815      46.7237      46.7237      46.7237           90           90           90     102002.7   -514.89131 
  960000       959499   -7469.6383    675.40974   -8145.0481    4279.4229   -12424.471    111.45399   -1239.4457   -590.05114    -753.5454   -61.581496    218.49264    240.91048      46.7237      46.7237      46.7237           90           90           90     102002.7   -861.01409 
  961000       960499   -7472.8622    670.50935   -8143.3715     4275.775   -12419.147    110.64535   -766.17412   -853.07428   -704.64969     17.85001   -152.19526    127.62682      46.7237      46.7237      46.7237           90           90           90     102002.7    -774.6327 
  962000       961499   -7450.8439    679.94671   -8130.7906    4275.6389   -12406.429    112.20267   -1076.5192   -723.39083   -846.14564   -164.36958   -52.442201     139.4361      46.7237      46.7237      46.7237           90           90           90     102002.7   -882.01854 
  963000       962499    -7463.458    664.50108   -8127.9591    4293.2923   -12421.251    109.65388   -225.11684   -245.44293   -552.93547   -159.00111   -33.118742    -215.7097      46.7237      46.7237      46.7237           90           90           90     102002.7   -341.16508 
  964000       963499   -7485.4379    656.96165   -8142.3995    4277.2093   -12419.609    108.40975   -577.83774   -395.19587   -814.82858    98.842097   -280.86891    130.84051      46.7237      46.7237      46.7237           90           90           90     102002.7   -595.95406 
  965000       964499    -7470.807    675.10723   -8145.9143    4298.0148   -12443.929    111.40408   -605.58068   -753.43697   -877.21024    24.148789   -46.487881     107.8288      46.7237      46.7237      46.7237           90           90           90     102002.7    -745.4093 
  966000       965499   -7469.3396    676.81188   -8146.1515     4275.244   -12421.396    111.68537    -90.32542   -734.72562   -443.06764   -349.60054    31.395466   -286.17916      46.7237      46.7237      46.7237           90           90           90     102002.7   -422.70622 
  967000       966499   -7461.9985    667.45155     -8129.45    4287.1865   -12416.637    110.14076   -1227.9931   -1196.7088   -888.15098    90.690827    61.927394   -110.46453      46.7237      46.7237      46.7237           90           90           90     102002.7   -1104.2843 
  968000       967499   -7460.5328    669.23839   -8129.7711    4306.0635   -12435.835    110.43562   -440.33559   -551.14731    -356.3317   -39.124751   -58.468804   -161.36921      46.7237      46.7237      46.7237           90           90           90     102002.7   -449.27153 
  969000       968499   -7443.0506    669.18322   -8112.2338    4312.1166    -12424.35    110.42651   -618.55834   -953.64155   -617.19768    59.107739    202.36266   -62.492658      46.7237      46.7237      46.7237           90           90           90     102002.7   -729.79919 
  970000       969499   -7483.2829    674.27876   -8157.5617    4267.0179    -12424.58    111.26736    -737.9515   -560.57735    -839.9172   -19.209424    157.97179    206.03379      46.7237      46.7237      46.7237           90           90           90     102002.7   -712.81535 
  971000       970499   -7443.6243    678.96571     -8122.59       4301.4    -12423.99    112.04079   -720.90347   -959.37397   -1127.0626    161.19944    22.549882    72.193913      46.7237      46.7237      46.7237           90           90           90     102002.7   -935.78002 
  972000       971499    -7512.663    652.59202    -8165.255    4271.1892   -12436.444    107.68869   -398.89691   -764.78579   -724.34748    161.93053   -112.81745   -136.54569      46.7237      46.7237      46.7237           90           90           90     102002.7   -629.34339 
  973000       972499   -7457.4468    686.04948   -8143.4963     4280.908   -12424.404    113.20973   -1060.8814   -314.97907    -468.1248   -135.58224     -75.7589    182.26883      46.7237      46.7237      46.7237           90           90           90     102002.7   -614.66175 
  974000       973499   -7426.5189    689.33351   -8115.8524    4323.4225   -12439.275    113.75165   -951.58475   -533.93339   -929.81754    -78.53029   -114.78116    46.196269      46.7237      46.7237      46.7237           90           90           90     102002.7   -805.11189 
  975000       974499   -7470.7783    657.93958   -8128.7179    4295.8616    -12424.58    108.57112   -664.08248   -623.42744   -892.54296    122.80373    46.497995   -145.73709      46.7237      46.7237      46.7237           90           90           90     102002.7   -726.68429 
  976000       975499   -7479.4911    667.56176   -8147.0529    4285.0751   -12432.128    110.15895   -815.24331   -571.73583   -646.99982   -154.42797    46.481607    81.110828      46.7237      46.7237      46.7237           90           90           90     102002.7   -677.99299 
  977000       976499   -7474.3682    656.10938   -8130.4776    4329.4058   -12459.883    108.26911   -699.98557   -489.44359   -686.48343   -144.09125    19.888461   -116.79354      46.7237      46.7237      46.7237           90           90           90     102002.7    -625.3042 
  978000       977499   -7477.7259    671.70727   -8149.4331    4293.8895   -12443.323    110.84302   -489.23402   -741.35269   -903.04705   -52.604306   -95.918983    16.700422      46.7237      46.7237      46.7237           90           90           90     102002.7   -711.21125 
  979000       978499    -7467.158    674.81132   -8141.9693    4302.6495   -12444.619    111.35525   -872.87882   -691.36809   -866.92549   -74.899235   -192.11061    22.428716      46.7237      46.7237      46.7237           90           90           90     102002.7    -810.3908 
  980000       979499   -7533.0824    638.33372   -8171.4161     4277.387   -12448.803    105.33583   -826.69123   -647.64751   -845.90924    13.465161    295.78569    95.442298      46.7237      46.7237      46.7237           90           90           90     102002.7   -773.41599 
  981000       980499   -7453.8821    675.16467   -8129.0468    4307.2351   -12436.282    111.41355   -689.37608   -1024.1104   -868.01752   -9.2599737   -141.27983    27.751858      46.7237      46.7237      46.7237           90           90           90     102002.7   -860.50135 
  982000       981499   -7490.9198    649.71472   -8140.6345    4289.0214   -12429.656    107.21388   -841.86936   -410.60982   -638.03031   -10.021488   -24.057185    109.23245      46.7237      46.7237      46.7237           90           90           90     102002.7   -630.16983 
  983000       982499   -7465.4893    657.05098   -8122.5403    4290.3167   -12412.857    108.42449   -1101.8646   -300.62797   -854.29101   -150.09174   -66.570035    184.89437      46.7237      46.7237      46.7237           90           90           90     102002.7   -752.26118 
  984000       983499   -7504.0096    638.77773   -8142.7873    4286.8444   -12429.632     105.4091    -278.1045   -508.45627   -860.00814    48.123848   -6.7952923    15.867616      46.7237      46.7237      46.7237           90           90           90     102002.7    -548.8563 
  985000       984499   -7482.2261    639.81434   -8122.0404     4298.068   -12420.108    105.58015   -994.92906    -532.2651   -926.84135    50.460485   -169.25036    199.55449      46.7237      46.7237      46.7237           90           90           90     102002.7   -818.01183 
  986000       985499   -7454.7779    646.82372   -8101.6016    4336.1577   -12437.759    106.73682   -453.84408   -535.67165   -1245.5184   -113.03282   -108.23379    9.4552097      46.7237      46.7237      46.7237           90           90           90     102002.7   -745.01136 
  987000       986499   -7472.1534    670.36225   -8142.5156    4271.4284   -12413.944    110.62107   -412.88972    -479.7405   -582.62299    100.80244    44.431601   -47.387178      46.7237      46.7237      46.7237           90           90           90     102002.7   -491.75107 
  988000       987499   -7474.6289    661.57164   -8136.2006    4280.2559   -12416.456    109.17048   -860.57543   -597.47883   -1354.8493     245.4674   -9.8075528   -191.55365      46.7237      46.7237      46.7237           90           90           90     102002.7   -937.63452 
  989000       988499   -7484.0279    653.56274   -8137.5906    4286.4811   -12424.072    107.84887   -406.67723   -903.64616   -1064.2711   -276.56675   -282.27627   -111.14995      46.7237      46.7237      46.7237           90           90           90     102002.7    -791.5315 
  990000       989499   -7491.5684    656.78384   -8148.3522    4284.5291   -12432.881    108.38041   -436.60741   -1062.3285   -849.53112   -424.20553    101.27033    185.16332      46.7237      46.7237      46.7237           90           90           90     102002.7   -782.82235 
  991000       990499   -7475.6013    656.36145   -8131.9627    4287.6357   -12419.598    108.31071   -654.71129   -514.41642   -857.11032    3.9346331    172.39141   -7.4211152      46.7237      46.7237      46.7237           90           90           90     102002.7   -675.41268 
  992000       991499   -7440.0889    700.89925   -8140.9882    4292.0326   -12433.021    115.66019   -597.91143   -675.28238   -1275.2077   -90.784501   -1.7648427    184.48127      46.7237      46.7237      46.7237           90           90           90     102002.7   -849.46716 
  993000       992499   -7463.6109    675.85317   -8139.4641    4291.4118   -12430.876    111.52717   -1597.9507   -392.83176   -603.20215    189.51983    279.81023    12.253766      46.7237      46.7237      46.7237           90           90           90     102002.7   -864.66153 
  994000       993499   -7445.1089    682.45267   -8127.5616    4318.2135   -12445.775     112.6162   -935.84798   -633.16131   -544.30176    150.48021    1.6565294    28.981585      46.7237      46.7237      46.7237           90           90           90     102002.7   -704.43702 
  995000       994499   -7462.9026    673.28599   -8136.1886    4287.6551   -12423.844    111.10354   -860.68899   -588.14024   -728.75532   -310.01071   -142.02145   -65.132796      46.7237      46.7237      46.7237           90           90           90     102002.7   -725.86152 
  996000       995499    -7460.462    670.62433   -8131.0863    4309.2731   -12440.359    110.66432   -990.01553   -511.69342   -862.17556   -146.95431    47.858916   -200.21659      46.7237      46.7237      46.7237           90           90           90     102002.7    -787.9615 
  997000       996499   -7488.7704    664.16934   -8152.9397    4298.8688   -12451.809    109.59914   -1229.3189    -861.3564   -970.81676   -14.189695   -17.453853   -28.114872      46.7237      46.7237      46.7237           90           90           90     102002.7   -1020.4974 
  998000       997499   -7442.4243    685.41448   -8127.8388    4323.6243   -12451.463    113.10495   -969.94623   -757.60629   -798.04534    248.51785    -41.42232   -195.85484      46.7237      46.7237      46.7237           90           90           90     102002.7   -841.86595 
  999000       998499   -7488.7842    661.00743   -8149.7917    4293.1235   -12442.915    109.07737   -594.23139   -985.94486   -953.84335    169.32657   -196.64164    25.584487      46.7237      46.7237      46.7237           90           90           90     102002.7    -844.6732 
 1000000       999499   -7458.2002    665.94297   -8124.1431    4318.9878   -12443.131    109.89182   -708.00369   -715.17921   -709.62127    59.834965   -1.5781317   -237.37596      46.7237      46.7237      46.7237           90           90           90     102002.7   -710.93472 
 1000501      1000000   -7476.5474    675.94336   -8152.4908      4270.11   -12422.601    111.54205   -535.88733   -349.22199   -718.63784    83.504093    65.811607    27.311742      46.7237      46.7237      46.7237           90           90           90     102002.7   -534.58239 
Loop time of 780.967 on 24 procs for 500000 steps with 2034 atoms

Performance: 55.316 ns/day, 0.434 hours/ns, 640.232 timesteps/s
99.1% CPU use with 24 MPI tasks x no OpenMP threads

MPI task timing breakdown:
Section |  min time  |  avg time  |  max time  |%varavg| %total
---------------------------------------------------------------
Pair    | 163.29     | 348.05     | 539.93     | 676.1 | 44.57
Bond    | 42.19      | 82.528     | 127.13     | 303.7 | 10.57
Neigh   | 3.6451     | 3.6719     | 3.6904     |   0.7 |  0.47
Comm    | 98.119     | 328.57     | 551.1      | 823.5 | 42.07
Output  | 0.40408    | 0.43604    | 0.43753    |   1.0 |  0.06
Modify  | 11.888     | 12.606     | 13.29      |  13.9 |  1.61
Other   |            | 5.104      |            |       |  0.65

Nlocal:    84.75 ave 129 max 38 min
Histogram: 2 0 3 3 4 4 3 1 2 2
Nghost:    2271.96 ave 2352 max 2180 min
Histogram: 2 1 2 5 3 1 2 2 1 5
Neighs:    7638.79 ave 13796 max 2103 min
Histogram: 2 4 4 1 2 2 4 0 1 4

Total # of neighbors = 183331
Ave neighs/atom = 90.1332
Ave special neighs/atom = 5.66372
Neighbor list builds = 4344
Dangerous builds = 0
Total wall time: 0:23:53
