LAMMPS (30 Mar 2018)
Reading data file ...
  orthogonal box = (0 0 0) to (46.7237 46.7237 46.7237)
  2 by 3 by 4 MPI processor grid
  reading atoms ...
  3049 atoms
  scanning bonds ...
  5 = max bonds/atom
  scanning angles ...
  10 = max angles/atom
  scanning dihedrals ...
  32 = max dihedrals/atom
  scanning impropers ...
  3 = max impropers/atom
  reading bonds ...
  2064 bonds
  reading angles ...
  3696 angles
  reading dihedrals ...
  6240 dihedrals
  reading impropers ...
  1008 impropers
Finding 1-2 1-3 1-4 neighbors ...
  special bond factors lj:   0          0          0         
  special bond factors coul: 0          0          0         
  5 = max # of 1-2 neighbors
  8 = max # of 1-3 neighbors
  20 = max # of 1-4 neighbors
  19 = max # of special neighbors
Finding 1-2 1-3 1-4 neighbors ...
  special bond factors lj:   0          0          1         
  special bond factors coul: 1          1          1         
  5 = max # of 1-2 neighbors
  8 = max # of 1-3 neighbors
  19 = max # of special neighbors
WARNING: Using 'neigh_modify every 1 delay 0 check yes' setting during minimization (../min.cpp:168)
Neighbor list info ...
  update every 1 steps, delay 0 steps, check yes
  max neighbors/atom: 2000, page size: 100000
  master list distance cutoff = 16
  ghost atom cutoff = 16
  binsize = 8, bins = 6 6 6
  3 neighbor lists, perpetual/occasional/extra = 3 0 0
  (1) pair buck6d/coul/gauss/dsf, perpetual, skip from (3)
      attributes: half, newton on
      pair build: skip
      stencil: none
      bin: none
  (2) pair lj/cut, perpetual, skip from (3)
      attributes: half, newton on
      pair build: skip
      stencil: none
      bin: none
  (3) neighbor class addition, perpetual
      attributes: half, newton on
      pair build: half/bin/newton
      stencil: half/bin/3d/newton
      bin: standard
Setting up cg style minimization ...
  Unit style    : real
  Current step  : 0
WARNING: Inconsistent image flags (../domain.cpp:786)
Per MPI rank memory allocation (min/avg/max) = 22.97 | 23.37 | 24.52 Mbytes
Step Temp E_pair E_mol TotEng Press 
       0            0   -14931.283    6482.8914   -8448.3918     5673.653 
     500            0   -15334.383    3751.3115   -11583.072   -1997.8436 
Loop time of 1.83917 on 24 procs for 500 steps with 3049 atoms

98.3% CPU use with 24 MPI tasks x no OpenMP threads

Minimization stats:
  Stopping criterion = max force evaluations
  Energy initial, next-to-last, final = 
        -8448.39182554     -11582.9038536      -11583.071728
  Force two-norm initial, final = 2575.28 18.6516
  Force max component initial, final = 152.011 4.06343
  Final line search alpha, max atom move = 0.00443362 0.0180157
  Iterations, force evaluations = 500 1000

MPI task timing breakdown:
Section |  min time  |  avg time  |  max time  |%varavg| %total
---------------------------------------------------------------
Pair    | 0.71875    | 1.0553     | 1.3016     |  14.0 | 57.38
Bond    | 0.11229    | 0.15827    | 0.20458    |   6.5 |  8.61
Neigh   | 0.01824    | 0.018508   | 0.01887    |   0.2 |  1.01
Comm    | 0.27972    | 0.56913    | 0.92234    |  21.0 | 30.94
Output  | 0          | 0          | 0          |   0.0 |  0.00
Modify  | 0          | 0          | 0          |   0.0 |  0.00
Other   |            | 0.038      |            |       |  2.07

Nlocal:    127.042 ave 149 max 96 min
Histogram: 2 0 1 2 2 4 4 3 3 3
Nghost:    3396.75 ave 3569 max 3291 min
Histogram: 8 7 1 0 0 0 0 0 0 8
Neighs:    7638.46 ave 11450 max 2483 min
Histogram: 1 1 1 1 5 4 3 4 1 3

Total # of neighbors = 183323
Ave neighs/atom = 60.1256
Ave special neighs/atom = 3.77829
Neighbor list builds = 12
Dangerous builds = 0
Neighbor list info ...
  update every 1 steps, delay 10 steps, check yes
  max neighbors/atom: 2000, page size: 100000
  master list distance cutoff = 16
  ghost atom cutoff = 16
  binsize = 8, bins = 6 6 6
  3 neighbor lists, perpetual/occasional/extra = 3 0 0
  (1) pair buck6d/coul/gauss/dsf, perpetual, skip from (3)
      attributes: half, newton on
      pair build: skip
      stencil: none
      bin: none
  (2) pair lj/cut, perpetual, skip from (3)
      attributes: half, newton on
      pair build: skip
      stencil: none
      bin: none
  (3) neighbor class addition, perpetual
      attributes: half, newton on
      pair build: half/bin/newton
      stencil: half/bin/3d/newton
      bin: standard
Setting up Verlet run ...
  Unit style    : real
  Current step  : 500
  Time step     : 1
WARNING: Inconsistent image flags (../domain.cpp:786)
Per MPI rank memory allocation (min/avg/max) = 22.61 | 22.81 | 23.39 Mbytes
Step Temp PotEng TotEng Press Volume Lx Ly Lz 
     500          110   -11583.072   -10583.666   -1549.9621     102002.7      46.7237      46.7237      46.7237 
    1000    94.585458   -10769.622   -9910.2652   -806.11883     102002.7      46.7237      46.7237      46.7237 
    2000    110.90748   -10623.041   -9615.3901   -800.92583     102002.7      46.7237      46.7237      46.7237 
    3000    112.20064   -10622.207   -9602.8073   -1075.7742     102002.7      46.7237      46.7237      46.7237 
    4000    105.83639   -10630.257   -9668.6796   -708.84894     102002.7      46.7237      46.7237      46.7237 
    5000    111.51441   -10621.158   -9607.9929   -1000.8344     102002.7      46.7237      46.7237      46.7237 
    6000    110.91516   -10621.888   -9614.1676   -786.30689     102002.7      46.7237      46.7237      46.7237 
    7000    109.86991   -10624.592   -9626.3683   -877.03897     102002.7      46.7237      46.7237      46.7237 
    8000    108.54305   -10629.171   -9643.0017   -1219.5919     102002.7      46.7237      46.7237      46.7237 
    9000    110.11499   -10621.644   -9621.1934   -999.53026     102002.7      46.7237      46.7237      46.7237 
   10000    109.45236   -10649.799   -9655.3684   -998.81671     102002.7      46.7237      46.7237      46.7237 
   11000    111.40836   -10614.167   -9601.9654   -1087.3242     102002.7      46.7237      46.7237      46.7237 
   12000    112.09954   -10626.987    -9608.506   -1069.9432     102002.7      46.7237      46.7237      46.7237 
   13000    112.08607   -10636.221   -9617.8616   -955.14245     102002.7      46.7237      46.7237      46.7237 
   14000    109.43451   -10649.529   -9655.2612   -974.45475     102002.7      46.7237      46.7237      46.7237 
   15000    111.35156   -10650.814   -9639.1288   -656.53287     102002.7      46.7237      46.7237      46.7237 
   16000    113.00968    -10626.08   -9599.3296   -588.25799     102002.7      46.7237      46.7237      46.7237 
   17000    109.21357     -10620.9   -9628.6394   -613.60351     102002.7      46.7237      46.7237      46.7237 
   18000    109.45194   -10617.586   -9623.1597   -681.57217     102002.7      46.7237      46.7237      46.7237 
   19000    109.22272   -10621.617   -9629.2735   -901.71783     102002.7      46.7237      46.7237      46.7237 
   20000    110.21167   -10621.145   -9619.8156    -873.3836     102002.7      46.7237      46.7237      46.7237 
   21000    108.41018   -10632.056   -9647.0943   -932.12611     102002.7      46.7237      46.7237      46.7237 
   22000    107.72793   -10654.428   -9675.6645   -906.43241     102002.7      46.7237      46.7237      46.7237 
   23000    110.20162   -10633.171   -9631.9337   -816.01106     102002.7      46.7237      46.7237      46.7237 
   24000    107.00591   -10619.719   -9647.5157   -867.76763     102002.7      46.7237      46.7237      46.7237 
   25000    109.66313   -10643.889   -9647.5432   -805.06983     102002.7      46.7237      46.7237      46.7237 
   26000    109.04996    -10621.75    -9630.976   -849.90347     102002.7      46.7237      46.7237      46.7237 
   27000    111.30844   -10621.261   -9609.9674   -937.05468     102002.7      46.7237      46.7237      46.7237 
   28000    109.52687   -10641.365   -9646.2572   -894.00223     102002.7      46.7237      46.7237      46.7237 
   29000    109.19229   -10628.653   -9636.5857    -919.6835     102002.7      46.7237      46.7237      46.7237 
   30000    111.23376   -10634.276   -9623.6604   -828.81807     102002.7      46.7237      46.7237      46.7237 
   31000    106.39251   -10629.138   -9662.5081   -924.53374     102002.7      46.7237      46.7237      46.7237 
   32000    111.61558    -10618.36   -9604.2757   -1000.3354     102002.7      46.7237      46.7237      46.7237 
   33000    111.23819   -10619.953    -9609.297   -951.27785     102002.7      46.7237      46.7237      46.7237 
   34000    109.64724   -10646.102   -9649.9009   -975.89416     102002.7      46.7237      46.7237      46.7237 
   35000     107.3583   -10643.654   -9668.2497   -586.88993     102002.7      46.7237      46.7237      46.7237 
   36000     112.8159    -10635.38     -9610.39   -720.59876     102002.7      46.7237      46.7237      46.7237 
   37000    110.38157    -10633.59   -9630.7169    -754.2898     102002.7      46.7237      46.7237      46.7237 
   38000      110.455   -10609.932   -9606.3917   -904.18892     102002.7      46.7237      46.7237      46.7237 
   39000    110.16205   -10640.666   -9639.7876   -897.84902     102002.7      46.7237      46.7237      46.7237 
   40000    108.44236   -10626.285   -9641.0311     -982.862     102002.7      46.7237      46.7237      46.7237 
   41000    109.78293   -10636.518   -9639.0843    -1123.882     102002.7      46.7237      46.7237      46.7237 
   42000    109.30798   -10615.142   -9622.0238   -1028.3538     102002.7      46.7237      46.7237      46.7237 
   43000    109.11974   -10627.323   -9635.9144   -1173.3753     102002.7      46.7237      46.7237      46.7237 
   44000    107.90339   -10622.596   -9642.2386   -828.52212     102002.7      46.7237      46.7237      46.7237 
   45000     112.6124   -10626.901   -9603.7605   -909.15754     102002.7      46.7237      46.7237      46.7237 
   46000    109.40838   -10625.719   -9631.6881   -512.55359     102002.7      46.7237      46.7237      46.7237 
   47000     110.3312   -10623.291    -9620.876   -816.48826     102002.7      46.7237      46.7237      46.7237 
   48000    106.25751   -10630.729   -9665.3253   -852.80495     102002.7      46.7237      46.7237      46.7237 
   49000    109.75011   -10639.768   -9642.6324   -899.27862     102002.7      46.7237      46.7237      46.7237 
   50000    111.13705   -10632.419   -9622.6822   -954.70805     102002.7      46.7237      46.7237      46.7237 
   51000    111.19283   -10635.774   -9625.5306   -907.67815     102002.7      46.7237      46.7237      46.7237 
   52000    111.58883   -10630.929   -9617.0878   -731.44196     102002.7      46.7237      46.7237      46.7237 
   53000    109.78976   -10643.659   -9646.1636   -931.04869     102002.7      46.7237      46.7237      46.7237 
   54000    110.42578   -10642.818   -9639.5441   -1100.0117     102002.7      46.7237      46.7237      46.7237 
   55000    110.13434    -10637.86   -9637.2337   -993.80835     102002.7      46.7237      46.7237      46.7237 
   56000    112.48141   -10619.307   -9597.3563   -856.96711     102002.7      46.7237      46.7237      46.7237 
   57000    112.16648   -10641.985   -9622.8955   -668.41966     102002.7      46.7237      46.7237      46.7237 
   58000    106.93432   -10612.596   -9641.0437   -661.05408     102002.7      46.7237      46.7237      46.7237 
   59000     108.3519   -10628.168   -9643.7357   -1018.3246     102002.7      46.7237      46.7237      46.7237 
   60000    108.65587   -10626.718   -9639.5244   -919.71632     102002.7      46.7237      46.7237      46.7237 
   61000    111.00323   -10628.949   -9620.4278   -1027.3434     102002.7      46.7237      46.7237      46.7237 
   62000     111.0123   -10632.216   -9623.6123   -1128.4229     102002.7      46.7237      46.7237      46.7237 
   63000    108.38604   -10650.928   -9666.1854   -841.19714     102002.7      46.7237      46.7237      46.7237 
   64000    110.18489   -10628.716   -9627.6299   -1060.9904     102002.7      46.7237      46.7237      46.7237 
   65000    108.08414   -10636.539   -9654.5392   -762.28518     102002.7      46.7237      46.7237      46.7237 
   66000    111.86154   -10623.986   -9607.6664   -961.94678     102002.7      46.7237      46.7237      46.7237 
   67000    113.07269    -10638.07   -9610.7474   -763.41721     102002.7      46.7237      46.7237      46.7237 
   68000    108.60639   -10656.799   -9670.0547   -674.46482     102002.7      46.7237      46.7237      46.7237 
   69000    110.73407   -10625.791   -9619.7154    -571.6209     102002.7      46.7237      46.7237      46.7237 
   70000    108.58073   -10644.813   -9658.3023   -1091.7173     102002.7      46.7237      46.7237      46.7237 
   71000    110.67676   -10624.253   -9618.6986   -926.29524     102002.7      46.7237      46.7237      46.7237 
   72000     109.9512   -10606.029   -9607.0666    -804.5281     102002.7      46.7237      46.7237      46.7237 
   73000    109.97654   -10622.582   -9623.3888   -824.30195     102002.7      46.7237      46.7237      46.7237 
   74000    112.46983    -10645.39    -9623.544    -1039.868     102002.7      46.7237      46.7237      46.7237 
   75000    110.10304   -10620.339   -9619.9973   -971.77394     102002.7      46.7237      46.7237      46.7237 
   76000    110.24204   -10638.276   -9636.6714   -1055.4251     102002.7      46.7237      46.7237      46.7237 
   77000    107.74298   -10627.088    -9648.188   -893.41449     102002.7      46.7237      46.7237      46.7237 
   78000    108.03984   -10631.279   -9649.6823   -952.74043     102002.7      46.7237      46.7237      46.7237 
   79000    110.00232   -10616.216   -9616.7886   -847.66665     102002.7      46.7237      46.7237      46.7237 
   80000     111.3633   -10651.368   -9639.5756   -1076.8314     102002.7      46.7237      46.7237      46.7237 
   81000    108.59295   -10639.578   -9652.9555   -804.11601     102002.7      46.7237      46.7237      46.7237 
   82000    111.46373   -10639.268   -9626.5628   -823.30683     102002.7      46.7237      46.7237      46.7237 
   83000    110.39533   -10643.869   -9640.8713    -793.4615     102002.7      46.7237      46.7237      46.7237 
   84000    110.14013   -10628.316   -9627.6367   -710.99794     102002.7      46.7237      46.7237      46.7237 
   85000    107.50072   -10630.424   -9653.7254   -997.13952     102002.7      46.7237      46.7237      46.7237 
   86000    110.69454   -10627.327   -9621.6106    -909.0143     102002.7      46.7237      46.7237      46.7237 
   87000    109.72011   -10632.362    -9635.499    -878.4369     102002.7      46.7237      46.7237      46.7237 
   88000    106.86454   -10640.807   -9669.8883   -1003.7113     102002.7      46.7237      46.7237      46.7237 
   89000    111.08967   -10619.764   -9610.4575    -804.2593     102002.7      46.7237      46.7237      46.7237 
   90000    110.56399   -10609.028   -9604.4975   -1108.7527     102002.7      46.7237      46.7237      46.7237 
   91000    112.76408   -10636.188   -9611.6692   -1028.3554     102002.7      46.7237      46.7237      46.7237 
   92000    112.75487   -10654.421   -9629.9859   -806.50925     102002.7      46.7237      46.7237      46.7237 
   93000    112.81533   -10649.257   -9624.2721   -1140.8378     102002.7      46.7237      46.7237      46.7237 
   94000    111.69029   -10643.919   -9629.1557   -1009.5475     102002.7      46.7237      46.7237      46.7237 
   95000    109.83529   -10653.243   -9655.3337   -1092.1417     102002.7      46.7237      46.7237      46.7237 
   96000    107.89699   -10618.429   -9638.1298   -1209.1229     102002.7      46.7237      46.7237      46.7237 
   97000    112.34841   -10619.403   -9598.6604   -883.09571     102002.7      46.7237      46.7237      46.7237 
   98000    110.96652   -10646.522   -9638.3348   -1134.9372     102002.7      46.7237      46.7237      46.7237 
   99000    111.17875   -10621.388   -9611.2727   -1119.8599     102002.7      46.7237      46.7237      46.7237 
  100000    111.89269   -10631.561   -9614.9592   -835.45625     102002.7      46.7237      46.7237      46.7237 
  101000    108.77849   -10630.663    -9642.355   -720.35402     102002.7      46.7237      46.7237      46.7237 
  102000    113.15744   -10630.706   -9602.6126   -660.05679     102002.7      46.7237      46.7237      46.7237 
  103000    112.06231   -10626.553   -9608.4102   -1061.6482     102002.7      46.7237      46.7237      46.7237 
  104000    110.29984   -10608.782   -9606.6519   -881.62967     102002.7      46.7237      46.7237      46.7237 
  105000    106.98278   -10620.177   -9648.1836   -641.89958     102002.7      46.7237      46.7237      46.7237 
  106000    111.18009   -10594.054   -9583.9264   -742.60487     102002.7      46.7237      46.7237      46.7237 
  107000    110.97129   -10634.792   -9626.5618   -836.28395     102002.7      46.7237      46.7237      46.7237 
  108000    108.21995    -10614.56   -9631.3265   -730.67299     102002.7      46.7237      46.7237      46.7237 
  109000    107.84562   -10635.912   -9656.0797   -893.91277     102002.7      46.7237      46.7237      46.7237 
  110000    111.60351   -10625.999   -9612.0242   -689.75272     102002.7      46.7237      46.7237      46.7237 
  111000    107.87169   -10618.057   -9637.9876   -751.46125     102002.7      46.7237      46.7237      46.7237 
  112000    110.39656   -10643.042   -9640.0328   -1234.0249     102002.7      46.7237      46.7237      46.7237 
  113000    109.86481   -10629.315   -9631.1371   -1003.9645     102002.7      46.7237      46.7237      46.7237 
  114000    111.83588   -10656.968    -9640.882   -899.91064     102002.7      46.7237      46.7237      46.7237 
  115000    111.82558   -10639.867   -9623.8749   -978.88432     102002.7      46.7237      46.7237      46.7237 
  116000    111.93251   -10641.945   -9624.9813   -710.33862     102002.7      46.7237      46.7237      46.7237 
  117000    109.68645   -10626.181   -9629.6234   -989.93998     102002.7      46.7237      46.7237      46.7237 
  118000    113.00316   -10615.384   -9588.6931   -960.04875     102002.7      46.7237      46.7237      46.7237 
  119000     108.4313    -10619.56   -9634.4069    -900.1165     102002.7      46.7237      46.7237      46.7237 
  120000    108.60939   -10627.532   -9640.7608    -971.9573     102002.7      46.7237      46.7237      46.7237 
  121000    108.80112   -10620.464   -9631.9504   -825.23803     102002.7      46.7237      46.7237      46.7237 
  122000    108.40873   -10614.511   -9629.5627   -943.20228     102002.7      46.7237      46.7237      46.7237 
  123000    110.20546   -10628.016   -9626.7433   -826.98374     102002.7      46.7237      46.7237      46.7237 
  124000    111.69852   -10623.407   -9608.5688   -992.66801     102002.7      46.7237      46.7237      46.7237 
  125000    110.85109   -10612.291    -9605.152   -1102.1486     102002.7      46.7237      46.7237      46.7237 
  126000    112.13155   -10631.494   -9612.7215   -1084.0689     102002.7      46.7237      46.7237      46.7237 
  127000    113.41334   -10611.842   -9581.4236   -1186.2921     102002.7      46.7237      46.7237      46.7237 
  128000    109.77997   -10648.832   -9651.4255   -981.55076     102002.7      46.7237      46.7237      46.7237 
  129000    108.28339   -10621.962   -9638.1527   -975.10724     102002.7      46.7237      46.7237      46.7237 
  130000    107.06055   -10639.466   -9666.7666   -1017.2808     102002.7      46.7237      46.7237      46.7237 
  131000    108.10078   -10645.785   -9663.6339    -988.6579     102002.7      46.7237      46.7237      46.7237 
  132000    112.36888   -10639.199   -9618.2703   -1025.1347     102002.7      46.7237      46.7237      46.7237 
  133000     110.2901   -10647.565   -9645.5229   -815.93666     102002.7      46.7237      46.7237      46.7237 
  134000    109.35581   -10624.774   -9631.2208   -1009.4822     102002.7      46.7237      46.7237      46.7237 
  135000    108.10234   -10629.012   -9646.8471   -872.70574     102002.7      46.7237      46.7237      46.7237 
  136000    108.33127   -10629.176   -9644.9312   -1010.0537     102002.7      46.7237      46.7237      46.7237 
  137000    110.75776   -10629.604   -9623.3135   -1012.0512     102002.7      46.7237      46.7237      46.7237 
  138000    108.13398   -10650.523   -9668.0707   -894.50466     102002.7      46.7237      46.7237      46.7237 
  139000    111.95611   -10611.366   -9594.1873   -780.80876     102002.7      46.7237      46.7237      46.7237 
  140000    109.33233   -10638.349   -9645.0096   -1017.7124     102002.7      46.7237      46.7237      46.7237 
  141000     112.2684   -10618.754   -9598.7383   -955.70396     102002.7      46.7237      46.7237      46.7237 
  142000    112.37256   -10614.421   -9593.4589   -844.64491     102002.7      46.7237      46.7237      46.7237 
  143000    109.76218   -10657.743   -9660.4975   -900.48876     102002.7      46.7237      46.7237      46.7237 
  144000    111.48554   -10617.991   -9605.0885   -970.53625     102002.7      46.7237      46.7237      46.7237 
  145000     109.5529   -10630.946   -9635.6024   -1017.4175     102002.7      46.7237      46.7237      46.7237 
  146000    109.23844   -10596.416    -9603.929   -914.24384     102002.7      46.7237      46.7237      46.7237 
  147000    111.13358   -10634.074   -9624.3688   -938.76609     102002.7      46.7237      46.7237      46.7237 
  148000    108.39817   -10630.362    -9645.509   -779.63428     102002.7      46.7237      46.7237      46.7237 
  149000    106.41551   -10615.826   -9648.9871   -744.90285     102002.7      46.7237      46.7237      46.7237 
  150000    109.91742   -10621.963   -9623.3077   -660.56663     102002.7      46.7237      46.7237      46.7237 
  151000    113.63927   -10627.078   -9594.6074   -921.66077     102002.7      46.7237      46.7237      46.7237 
  152000    112.53094   -10644.322   -9621.9215   -818.79677     102002.7      46.7237      46.7237      46.7237 
  153000    111.81907   -10649.512   -9633.5787   -994.39962     102002.7      46.7237      46.7237      46.7237 
  154000    112.09065     -10638.8   -9620.3998   -806.06821     102002.7      46.7237      46.7237      46.7237 
  155000    111.12214   -10618.273   -9608.6721   -867.01344     102002.7      46.7237      46.7237      46.7237 
  156000    108.41943   -10651.333    -9666.287   -966.66055     102002.7      46.7237      46.7237      46.7237 
  157000    108.48862   -10627.702    -9642.028   -913.18768     102002.7      46.7237      46.7237      46.7237 
  158000    108.30084    -10653.06    -9669.092   -916.00656     102002.7      46.7237      46.7237      46.7237 
  159000    108.70858   -10621.497   -9633.8243   -1027.5755     102002.7      46.7237      46.7237      46.7237 
  160000    112.78101   -10601.506   -9576.8334   -839.35246     102002.7      46.7237      46.7237      46.7237 
  161000     107.5627   -10633.587   -9656.3248   -977.42602     102002.7      46.7237      46.7237      46.7237 
  162000    109.50389   -10638.903   -9644.0043   -994.29717     102002.7      46.7237      46.7237      46.7237 
  163000    110.41532   -10626.152   -9622.9722   -819.91385     102002.7      46.7237      46.7237      46.7237 
  164000     111.7019   -10617.876   -9603.0073   -1072.1824     102002.7      46.7237      46.7237      46.7237 
  165000    111.86388   -10637.476   -9621.1356   -862.38768     102002.7      46.7237      46.7237      46.7237 
  166000    109.24702   -10642.573   -9650.0081   -740.21963     102002.7      46.7237      46.7237      46.7237 
  167000    110.68948    -10655.32   -9649.6493   -858.79596     102002.7      46.7237      46.7237      46.7237 
  168000    109.33407   -10658.399   -9665.0431    -716.7276     102002.7      46.7237      46.7237      46.7237 
  169000    107.91991   -10618.055   -9637.5476    -973.6768     102002.7      46.7237      46.7237      46.7237 
  170000    109.29306   -10621.566   -9628.5828   -1156.1491     102002.7      46.7237      46.7237      46.7237 
  171000    110.52968   -10608.689   -9604.4705   -860.45555     102002.7      46.7237      46.7237      46.7237 
  172000     110.3414   -10642.328   -9639.8202   -1163.3179     102002.7      46.7237      46.7237      46.7237 
  173000    110.25273   -10599.812   -9598.1097   -713.11721     102002.7      46.7237      46.7237      46.7237 
  174000    107.49587   -10635.251   -9658.5966   -906.30838     102002.7      46.7237      46.7237      46.7237 
  175000    109.37033    -10650.86   -9657.1748   -927.94985     102002.7      46.7237      46.7237      46.7237 
  176000    111.49637   -10629.698    -9616.697   -945.59754     102002.7      46.7237      46.7237      46.7237 
  177000    110.04897   -10635.181   -9635.3304   -986.29226     102002.7      46.7237      46.7237      46.7237 
  178000    109.43951   -10617.095   -9622.7814   -984.48789     102002.7      46.7237      46.7237      46.7237 
  179000    109.77566   -10640.651   -9643.2832    -814.8355     102002.7      46.7237      46.7237      46.7237 
  180000     105.6052   -10602.598   -9643.1211   -829.41457     102002.7      46.7237      46.7237      46.7237 
  181000    107.81383   -10648.959   -9669.4155   -774.13649     102002.7      46.7237      46.7237      46.7237 
  182000    110.58401   -10639.161    -9634.449   -1102.3389     102002.7      46.7237      46.7237      46.7237 
  183000    110.32485   -10675.102   -9672.7441   -1028.8821     102002.7      46.7237      46.7237      46.7237 
  184000    113.79117    -10619.72   -9585.8698   -952.67176     102002.7      46.7237      46.7237      46.7237 
  185000    109.90406   -10633.333   -9634.7984   -1188.3811     102002.7      46.7237      46.7237      46.7237 
  186000    108.84536   -10603.971   -9615.0557   -895.74815     102002.7      46.7237      46.7237      46.7237 
  187000    111.26893   -10627.825   -9616.8899   -901.80772     102002.7      46.7237      46.7237      46.7237 
  188000    111.03389   -10637.812    -9629.013   -908.70365     102002.7      46.7237      46.7237      46.7237 
  189000    108.64576   -10625.216    -9638.114   -957.73299     102002.7      46.7237      46.7237      46.7237 
  190000    110.58489   -10605.496    -9600.776   -776.81233     102002.7      46.7237      46.7237      46.7237 
  191000    111.39761   -10621.335   -9609.2314   -922.89922     102002.7      46.7237      46.7237      46.7237 
  192000    110.65362   -10639.839    -9634.495   -723.66459     102002.7      46.7237      46.7237      46.7237 
  193000    110.93801   -10640.755   -9632.8266   -879.58817     102002.7      46.7237      46.7237      46.7237 
  194000    110.24511   -10652.978   -9651.3446   -808.40036     102002.7      46.7237      46.7237      46.7237 
  195000    109.73944   -10629.257   -9632.2188   -509.32263     102002.7      46.7237      46.7237      46.7237 
  196000    109.77646   -10645.286   -9647.9105   -1211.7644     102002.7      46.7237      46.7237      46.7237 
  197000     110.8893    -10628.15   -9620.6639   -907.58026     102002.7      46.7237      46.7237      46.7237 
  198000    109.81434   -10629.027   -9631.3075   -743.30349     102002.7      46.7237      46.7237      46.7237 
  199000    111.13908   -10633.682   -9623.9267   -859.80837     102002.7      46.7237      46.7237      46.7237 
  200000    109.78319   -10638.245   -9640.8091   -686.00957     102002.7      46.7237      46.7237      46.7237 
  201000     109.5962   -10620.613   -9624.8755   -871.56168     102002.7      46.7237      46.7237      46.7237 
  202000    106.65061   -10632.837   -9663.8616   -1090.5066     102002.7      46.7237      46.7237      46.7237 
  203000    112.36272   -10641.085   -9620.2125   -637.12836     102002.7      46.7237      46.7237      46.7237 
  204000    107.29499   -10625.998    -9651.168   -1144.4442     102002.7      46.7237      46.7237      46.7237 
  205000    110.06781   -10638.886   -9638.8635   -1052.9185     102002.7      46.7237      46.7237      46.7237 
  206000    109.38493   -10627.542   -9633.7238   -954.73457     102002.7      46.7237      46.7237      46.7237 
  207000    108.48733   -10621.406    -9635.743   -855.25013     102002.7      46.7237      46.7237      46.7237 
  208000    110.64949   -10649.563   -9644.2557   -1175.3613     102002.7      46.7237      46.7237      46.7237 
  209000    110.64301   -10627.998   -9622.7501   -1050.8884     102002.7      46.7237      46.7237      46.7237 
  210000    109.37982   -10634.757   -9640.9858   -811.14343     102002.7      46.7237      46.7237      46.7237 
  211000    110.60072   -10615.215   -9610.3514   -838.26253     102002.7      46.7237      46.7237      46.7237 
  212000    110.47405   -10629.618   -9625.9055   -798.94181     102002.7      46.7237      46.7237      46.7237 
  213000    109.20761   -10628.162   -9635.9555   -799.18578     102002.7      46.7237      46.7237      46.7237 
  214000      110.248   -10602.183   -9600.5239   -1250.6105     102002.7      46.7237      46.7237      46.7237 
  215000    113.35924   -10621.156   -9591.2295   -773.53981     102002.7      46.7237      46.7237      46.7237 
  216000    110.62326   -10603.807   -9598.7383   -971.97143     102002.7      46.7237      46.7237      46.7237 
  217000    109.17937   -10645.289   -9653.3391   -927.47487     102002.7      46.7237      46.7237      46.7237 
  218000    110.73704   -10623.229   -9617.1268   -720.36563     102002.7      46.7237      46.7237      46.7237 
  219000    109.19377   -10627.119   -9635.0377   -986.94834     102002.7      46.7237      46.7237      46.7237 
  220000    108.69926   -10636.671   -9649.0827   -898.17434     102002.7      46.7237      46.7237      46.7237 
  221000    111.22236   -10631.582   -9621.0702   -904.74296     102002.7      46.7237      46.7237      46.7237 
  222000    108.33203   -10638.104   -9653.8528   -891.47134     102002.7      46.7237      46.7237      46.7237 
  223000    109.99452   -10631.823   -9632.4672   -871.77462     102002.7      46.7237      46.7237      46.7237 
  224000    109.87531   -10627.075   -9628.8016   -1137.4588     102002.7      46.7237      46.7237      46.7237 
  225000    109.47713   -10628.696   -9634.0404   -862.28879     102002.7      46.7237      46.7237      46.7237 
  226000    108.91349   -10607.957   -9618.4226   -795.21552     102002.7      46.7237      46.7237      46.7237 
  227000    112.12068   -10605.901   -9587.2275   -650.10093     102002.7      46.7237      46.7237      46.7237 
  228000    110.02904   -10625.794   -9626.1244   -958.47326     102002.7      46.7237      46.7237      46.7237 
  229000    110.22075   -10617.998   -9616.5859   -1005.7295     102002.7      46.7237      46.7237      46.7237 
  230000    109.81977   -10630.813   -9633.0445   -812.06169     102002.7      46.7237      46.7237      46.7237 
  231000    109.84673   -10627.718   -9629.7042    -833.3788     102002.7      46.7237      46.7237      46.7237 
  232000    111.97194   -10641.876   -9624.5536   -889.69855     102002.7      46.7237      46.7237      46.7237 
  233000    112.74155   -10634.673    -9610.359   -811.32477     102002.7      46.7237      46.7237      46.7237 
  234000    107.47653   -10655.369   -9678.8897   -1110.4648     102002.7      46.7237      46.7237      46.7237 
  235000    108.09568   -10612.777   -9630.6728   -967.10695     102002.7      46.7237      46.7237      46.7237 
  236000    107.56413   -10607.624   -9630.3487    -854.4745     102002.7      46.7237      46.7237      46.7237 
  237000     114.0097   -10611.724   -9575.8883   -932.10829     102002.7      46.7237      46.7237      46.7237 
  238000    108.90341    -10638.88   -9649.4366   -1004.6942     102002.7      46.7237      46.7237      46.7237 
  239000     110.8447   -10627.548   -9620.4672   -831.53442     102002.7      46.7237      46.7237      46.7237 
  240000    111.33714   -10634.506   -9622.9509   -924.54378     102002.7      46.7237      46.7237      46.7237 
  241000     107.6813   -10633.003   -9654.6634   -966.23958     102002.7      46.7237      46.7237      46.7237 
  242000    112.42882   -10626.202   -9604.7294    -821.3513     102002.7      46.7237      46.7237      46.7237 
  243000    113.16937   -10642.342   -9614.1402   -870.84729     102002.7      46.7237      46.7237      46.7237 
  244000    111.36356   -10627.381   -9615.5868   -643.32456     102002.7      46.7237      46.7237      46.7237 
  245000    110.64423   -10595.716   -9590.4564   -743.80319     102002.7      46.7237      46.7237      46.7237 
  246000    109.13493   -10635.241   -9643.6942    -830.3668     102002.7      46.7237      46.7237      46.7237 
  247000    108.99042   -10631.793   -9641.5599   -778.11227     102002.7      46.7237      46.7237      46.7237 
  248000    112.04359   -10639.778   -9621.8051    -805.0801     102002.7      46.7237      46.7237      46.7237 
  249000    109.14236   -10632.202   -9640.5881   -876.51933     102002.7      46.7237      46.7237      46.7237 
  250000    108.49014   -10651.634   -9665.9455   -775.25966     102002.7      46.7237      46.7237      46.7237 
  251000    110.09084   -10631.627    -9631.396   -968.79727     102002.7      46.7237      46.7237      46.7237 
  252000    110.73716   -10621.827   -9615.7236   -1077.3821     102002.7      46.7237      46.7237      46.7237 
  253000    110.45658   -10640.709   -9637.1545   -1116.1093     102002.7      46.7237      46.7237      46.7237 
  254000    110.43173   -10602.465    -9599.137   -625.33396     102002.7      46.7237      46.7237      46.7237 
  255000    110.47411   -10639.407    -9635.693   -972.25464     102002.7      46.7237      46.7237      46.7237 
  256000    112.42734   -10626.139   -9604.6795   -643.93707     102002.7      46.7237      46.7237      46.7237 
  257000    108.11373   -10619.705   -9637.4369    -675.8792     102002.7      46.7237      46.7237      46.7237 
  258000    111.24486   -10628.986   -9618.2696   -830.77335     102002.7      46.7237      46.7237      46.7237 
  259000    109.73042    -10588.33   -9591.3738   -891.78464     102002.7      46.7237      46.7237      46.7237 
  260000    110.83042   -10622.954   -9616.0031   -973.24163     102002.7      46.7237      46.7237      46.7237 
  261000    108.96633   -10633.192   -9643.1778   -1020.6022     102002.7      46.7237      46.7237      46.7237 
  262000    107.61453   -10601.975   -9624.2425    -664.6949     102002.7      46.7237      46.7237      46.7237 
  263000    110.64727    -10629.39   -9624.1029   -962.61363     102002.7      46.7237      46.7237      46.7237 
  264000    108.69318   -10639.458   -9651.9251   -995.80278     102002.7      46.7237      46.7237      46.7237 
  265000    108.29916   -10619.082   -9635.1292   -983.44212     102002.7      46.7237      46.7237      46.7237 
  266000    110.49211   -10649.384   -9645.5068   -887.19763     102002.7      46.7237      46.7237      46.7237 
  267000    106.79649   -10628.355   -9658.0548   -1065.3341     102002.7      46.7237      46.7237      46.7237 
  268000    110.37263   -10640.976   -9638.1849   -960.59467     102002.7      46.7237      46.7237      46.7237 
  269000    110.68209   -10636.345   -9630.7414    -862.7821     102002.7      46.7237      46.7237      46.7237 
  270000    110.86782   -10591.576   -9584.2859    -923.5337     102002.7      46.7237      46.7237      46.7237 
  271000     109.8517   -10626.869     -9628.81   -783.24801     102002.7      46.7237      46.7237      46.7237 
  272000    108.63191   -10646.533    -9659.557   -956.53403     102002.7      46.7237      46.7237      46.7237 
  273000     109.5918   -10653.808   -9658.1102   -988.10195     102002.7      46.7237      46.7237      46.7237 
  274000    107.62707   -10658.265   -9680.4182   -1105.4344     102002.7      46.7237      46.7237      46.7237 
  275000    110.46226   -10627.484   -9623.8778   -870.56584     102002.7      46.7237      46.7237      46.7237 
  276000    107.66724   -10620.304   -9642.0926   -897.38545     102002.7      46.7237      46.7237      46.7237 
  277000    108.92977   -10624.114   -9634.4311   -919.73656     102002.7      46.7237      46.7237      46.7237 
  278000    109.08674   -10598.147   -9607.0382    -747.5761     102002.7      46.7237      46.7237      46.7237 
  279000    109.58447   -10659.145   -9663.5144   -777.31366     102002.7      46.7237      46.7237      46.7237 
  280000    111.52411   -10624.722   -9611.4686    -862.0036     102002.7      46.7237      46.7237      46.7237 
  281000    108.17757   -10625.135   -9642.2863   -827.60096     102002.7      46.7237      46.7237      46.7237 
  282000    105.72049   -10635.448   -9674.9232   -1063.4254     102002.7      46.7237      46.7237      46.7237 
  283000     112.0243    -10664.46   -9646.6617   -920.60679     102002.7      46.7237      46.7237      46.7237 
  284000    109.30851   -10622.596   -9629.4729   -924.37592     102002.7      46.7237      46.7237      46.7237 
  285000    108.96047   -10617.874   -9627.9131   -1137.7262     102002.7      46.7237      46.7237      46.7237 
  286000     106.9807   -10654.952    -9682.978   -1194.3426     102002.7      46.7237      46.7237      46.7237 
  287000    108.55105   -10605.043   -9618.8015   -1080.6175     102002.7      46.7237      46.7237      46.7237 
  288000    110.58291   -10642.432     -9637.73   -1161.7052     102002.7      46.7237      46.7237      46.7237 
  289000    108.82812   -10673.776    -9685.017   -901.47332     102002.7      46.7237      46.7237      46.7237 
  290000    111.73218   -10629.691   -9614.5475   -987.91084     102002.7      46.7237      46.7237      46.7237 
  291000     110.5568   -10615.366   -9610.9014   -1091.2882     102002.7      46.7237      46.7237      46.7237 
  292000    111.22268   -10642.097   -9631.5823   -908.29755     102002.7      46.7237      46.7237      46.7237 
  293000    111.20146   -10623.957   -9613.6353   -1101.2905     102002.7      46.7237      46.7237      46.7237 
  294000    108.83327   -10628.398   -9639.5926    -902.3003     102002.7      46.7237      46.7237      46.7237 
  295000    109.50848   -10625.935   -9630.9948   -785.81207     102002.7      46.7237      46.7237      46.7237 
  296000    110.30499   -10630.435   -9628.2585   -814.44158     102002.7      46.7237      46.7237      46.7237 
  297000    108.04463   -10615.603   -9633.9625   -671.11766     102002.7      46.7237      46.7237      46.7237 
  298000     109.3923   -10635.268   -9641.3831   -838.81052     102002.7      46.7237      46.7237      46.7237 
  299000    110.05648   -10631.225    -9631.306   -924.18934     102002.7      46.7237      46.7237      46.7237 
  300000    110.50365   -10639.819   -9635.8375   -884.25679     102002.7      46.7237      46.7237      46.7237 
  301000    109.34787    -10612.46   -9618.9785   -799.30333     102002.7      46.7237      46.7237      46.7237 
  302000    106.85157   -10610.746   -9639.9446   -798.03075     102002.7      46.7237      46.7237      46.7237 
  303000    109.46203   -10634.172   -9639.6541   -943.20044     102002.7      46.7237      46.7237      46.7237 
  304000    107.56587    -10642.68   -9665.3896      -1064.1     102002.7      46.7237      46.7237      46.7237 
  305000    110.62822   -10636.966   -9631.8518   -989.37146     102002.7      46.7237      46.7237      46.7237 
  306000    108.45287   -10630.496   -9645.1464   -735.97137     102002.7      46.7237      46.7237      46.7237 
  307000    107.80544   -10633.924   -9654.4565   -1014.9624     102002.7      46.7237      46.7237      46.7237 
  308000    110.36866   -10632.001   -9629.2455   -1061.7523     102002.7      46.7237      46.7237      46.7237 
  309000    110.10534   -10621.405   -9621.0416   -1186.5181     102002.7      46.7237      46.7237      46.7237 
  310000    107.72283   -10658.549   -9679.8318   -869.19902     102002.7      46.7237      46.7237      46.7237 
  311000    112.14078   -10627.843   -9608.9872   -881.84948     102002.7      46.7237      46.7237      46.7237 
  312000    109.07246   -10631.725   -9640.7463   -800.92361     102002.7      46.7237      46.7237      46.7237 
  313000    107.94808   -10623.272   -9642.5083   -759.46859     102002.7      46.7237      46.7237      46.7237 
  314000    106.82561   -10624.084   -9653.5194   -941.76218     102002.7      46.7237      46.7237      46.7237 
  315000    109.80159    -10632.87   -9635.2663   -838.75143     102002.7      46.7237      46.7237      46.7237 
  316000    112.26412   -10657.342   -9637.3648   -898.67229     102002.7      46.7237      46.7237      46.7237 
  317000     108.5771   -10625.986   -9639.5078    -853.0918     102002.7      46.7237      46.7237      46.7237 
  318000    110.40823   -10636.127   -9633.0123   -737.75873     102002.7      46.7237      46.7237      46.7237 
  319000      112.124   -10619.252   -9600.5486   -687.81122     102002.7      46.7237      46.7237      46.7237 
  320000    108.50575   -10648.097    -9662.267   -821.82768     102002.7      46.7237      46.7237      46.7237 
  321000    105.79704   -10647.011   -9685.7906   -848.36114     102002.7      46.7237      46.7237      46.7237 
  322000    110.02338   -10623.739   -9624.1205   -840.42486     102002.7      46.7237      46.7237      46.7237 
  323000    109.88162   -10652.411   -9654.0802   -841.09857     102002.7      46.7237      46.7237      46.7237 
  324000    108.63637   -10624.525   -9637.5078   -729.14852     102002.7      46.7237      46.7237      46.7237 
  325000    111.89471    -10659.47   -9642.8497     -1191.28     102002.7      46.7237      46.7237      46.7237 
  326000    110.25026   -10624.604   -9622.9242   -1049.1254     102002.7      46.7237      46.7237      46.7237 
  327000    109.43821   -10629.142     -9634.84   -769.21962     102002.7      46.7237      46.7237      46.7237 
  328000    108.59391    -10661.92   -9675.2889   -1257.8484     102002.7      46.7237      46.7237      46.7237 
  329000    110.89678    -10623.28    -9615.726   -1152.0134     102002.7      46.7237      46.7237      46.7237 
  330000    110.67879   -10631.003   -9625.4303   -954.47509     102002.7      46.7237      46.7237      46.7237 
  331000    111.06706   -10649.718   -9640.6177   -824.60657     102002.7      46.7237      46.7237      46.7237 
  332000    104.86823   -10638.751   -9685.9698   -862.66959     102002.7      46.7237      46.7237      46.7237 
  333000    111.78145   -10633.728   -9618.1368   -980.58744     102002.7      46.7237      46.7237      46.7237 
  334000    106.87086   -10636.564   -9665.5877    -630.5649     102002.7      46.7237      46.7237      46.7237 
  335000      108.492   -10633.595   -9647.8896   -731.30464     102002.7      46.7237      46.7237      46.7237 
  336000    112.20647   -10613.968   -9594.5149   -943.26497     102002.7      46.7237      46.7237      46.7237 
  337000    110.53557   -10648.351   -9644.0788   -1027.6168     102002.7      46.7237      46.7237      46.7237 
  338000    107.75599   -10614.675   -9635.6572   -800.62236     102002.7      46.7237      46.7237      46.7237 
  339000    111.68246    -10633.41   -9618.7176   -1083.5404     102002.7      46.7237      46.7237      46.7237 
  340000    108.48535   -10633.272   -9647.6276   -803.07137     102002.7      46.7237      46.7237      46.7237 
  341000    112.73313   -10653.421   -9629.1827   -602.51697     102002.7      46.7237      46.7237      46.7237 
  342000    109.37345   -10613.066    -9619.353   -799.73382     102002.7      46.7237      46.7237      46.7237 
  343000     110.7836    -10634.43   -9627.9049   -898.79355     102002.7      46.7237      46.7237      46.7237 
  344000    110.83382   -10620.797   -9613.8149    -996.1197     102002.7      46.7237      46.7237      46.7237 
  345000    110.30795   -10630.034   -9627.8303   -889.23599     102002.7      46.7237      46.7237      46.7237 
  346000    108.19566   -10626.915    -9643.902   -724.13309     102002.7      46.7237      46.7237      46.7237 
  347000    105.68959    -10627.88   -9667.6362   -944.82888     102002.7      46.7237      46.7237      46.7237 
  348000    109.14628   -10626.113   -9634.4635   -916.05582     102002.7      46.7237      46.7237      46.7237 
  349000    112.69518   -10600.689   -9576.7958   -967.38704     102002.7      46.7237      46.7237      46.7237 
  350000    110.26303   -10622.655   -9620.8587   -1231.8931     102002.7      46.7237      46.7237      46.7237 
  351000     110.3867   -10635.299     -9632.38   -990.93912     102002.7      46.7237      46.7237      46.7237 
  352000     108.7309   -10622.408   -9634.5322   -931.86635     102002.7      46.7237      46.7237      46.7237 
  353000    113.42015   -10620.077   -9589.5969   -1005.1749     102002.7      46.7237      46.7237      46.7237 
  354000    107.28542   -10623.838   -9649.0955   -1022.7866     102002.7      46.7237      46.7237      46.7237 
  355000    111.49419   -10607.783   -9594.8011   -743.22208     102002.7      46.7237      46.7237      46.7237 
  356000    110.77002   -10633.413   -9627.0113   -991.40257     102002.7      46.7237      46.7237      46.7237 
  357000    109.02915   -10626.504   -9635.9188   -1114.2915     102002.7      46.7237      46.7237      46.7237 
  358000    108.47828   -10645.289   -9659.7083    -723.0049     102002.7      46.7237      46.7237      46.7237 
  359000    109.68397   -10605.045   -9608.5104   -1106.1422     102002.7      46.7237      46.7237      46.7237 
  360000    110.85649   -10633.174   -9625.9863   -1031.7952     102002.7      46.7237      46.7237      46.7237 
  361000     107.5612   -10638.498   -9661.2496   -900.47307     102002.7      46.7237      46.7237      46.7237 
  362000    110.66121   -10616.961   -9611.5473   -609.73557     102002.7      46.7237      46.7237      46.7237 
  363000     108.4894   -10650.592   -9664.9103   -963.27695     102002.7      46.7237      46.7237      46.7237 
  364000    112.94541   -10664.467   -9638.3001   -1059.6276     102002.7      46.7237      46.7237      46.7237 
  365000    108.64772   -10636.109   -9648.9895    -722.9307     102002.7      46.7237      46.7237      46.7237 
  366000    111.65351   -10646.971   -9632.5422   -896.70977     102002.7      46.7237      46.7237      46.7237 
  367000    110.95141   -10646.157    -9638.107   -931.83122     102002.7      46.7237      46.7237      46.7237 
  368000    111.94364    -10628.38   -9611.3155   -735.85551     102002.7      46.7237      46.7237      46.7237 
  369000    110.04997   -10634.604   -9634.7443   -860.92772     102002.7      46.7237      46.7237      46.7237 
  370000    110.79521   -10623.302   -9616.6714   -609.75835     102002.7      46.7237      46.7237      46.7237 
  371000    109.45578   -10639.216   -9644.7548   -864.35317     102002.7      46.7237      46.7237      46.7237 
  372000    110.49101   -10639.726   -9635.8594   -903.77379     102002.7      46.7237      46.7237      46.7237 
  373000    111.26502   -10638.643   -9627.7433   -876.06842     102002.7      46.7237      46.7237      46.7237 
  374000    109.84503   -10642.131    -9644.133    -985.6717     102002.7      46.7237      46.7237      46.7237 
  375000    108.85048   -10656.752   -9667.7902   -1054.7922     102002.7      46.7237      46.7237      46.7237 
  376000    109.05128   -10640.172   -9649.3856   -1173.9199     102002.7      46.7237      46.7237      46.7237 
  377000    106.73376   -10617.292   -9647.5617   -1169.3945     102002.7      46.7237      46.7237      46.7237 
  378000    115.57349   -10595.419    -9545.375   -874.57486     102002.7      46.7237      46.7237      46.7237 
  379000    112.16939   -10643.051   -9623.9346   -750.06271     102002.7      46.7237      46.7237      46.7237 
  380000    109.24128   -10638.515   -9646.0028   -1025.6598     102002.7      46.7237      46.7237      46.7237 
  381000    109.99813    -10625.24   -9625.8512   -1110.2196     102002.7      46.7237      46.7237      46.7237 
  382000    109.99813   -10653.068   -9653.6787   -864.94474     102002.7      46.7237      46.7237      46.7237 
  383000    108.27376   -10626.276   -9642.5534   -797.16556     102002.7      46.7237      46.7237      46.7237 
  384000    109.95966   -10646.907   -9647.8675   -1165.1398     102002.7      46.7237      46.7237      46.7237 
  385000    111.14897   -10627.997   -9618.1518   -897.65247     102002.7      46.7237      46.7237      46.7237 
  386000    109.61936    -10623.11    -9627.162   -1156.5343     102002.7      46.7237      46.7237      46.7237 
  387000    108.69964   -10642.225   -9654.6331   -845.43432     102002.7      46.7237      46.7237      46.7237 
  388000    107.58088     -10627.1    -9649.673   -818.11823     102002.7      46.7237      46.7237      46.7237 
  389000    110.29325   -10637.767   -9635.6968   -893.97194     102002.7      46.7237      46.7237      46.7237 
  390000    111.37171   -10637.382   -9625.5134   -766.17387     102002.7      46.7237      46.7237      46.7237 
  391000    110.72424   -10606.721   -9600.7345    -917.8403     102002.7      46.7237      46.7237      46.7237 
  392000    108.95984   -10626.337   -9636.3809   -649.92061     102002.7      46.7237      46.7237      46.7237 
  393000    109.68901   -10655.465   -9658.8842   -953.80092     102002.7      46.7237      46.7237      46.7237 
  394000    110.27276   -10622.346   -9620.4615   -851.66567     102002.7      46.7237      46.7237      46.7237 
  395000    108.53239   -10636.506    -9650.434   -778.61203     102002.7      46.7237      46.7237      46.7237 
  396000    109.27144    -10603.72   -9610.9334     -1048.82     102002.7      46.7237      46.7237      46.7237 
  397000    111.25815   -10625.871   -9615.0342   -991.93296     102002.7      46.7237      46.7237      46.7237 
  398000    110.80398   -10642.208   -9635.4971   -1126.6113     102002.7      46.7237      46.7237      46.7237 
  399000    108.02933   -10633.313   -9651.8112   -1198.5445     102002.7      46.7237      46.7237      46.7237 
  400000    111.24961   -10618.555   -9607.7952     -1108.19     102002.7      46.7237      46.7237      46.7237 
  401000     108.6346   -10644.412   -9657.4117   -997.11187     102002.7      46.7237      46.7237      46.7237 
  402000    113.39347   -10615.678   -9585.4408   -740.29493     102002.7      46.7237      46.7237      46.7237 
  403000    108.76817   -10636.516   -9648.3015   -1049.1223     102002.7      46.7237      46.7237      46.7237 
  404000    109.70122   -10610.397   -9613.7058   -837.78649     102002.7      46.7237      46.7237      46.7237 
  405000    109.06852    -10643.41   -9652.4667   -703.88073     102002.7      46.7237      46.7237      46.7237 
  406000    112.57475   -10638.995   -9616.1964   -988.97089     102002.7      46.7237      46.7237      46.7237 
  407000    111.93904   -10647.545   -9630.5215   -874.73857     102002.7      46.7237      46.7237      46.7237 
  408000    113.24708   -10644.837   -9615.9296   -713.95126     102002.7      46.7237      46.7237      46.7237 
  409000    110.48863   -10627.776    -9623.931   -704.13117     102002.7      46.7237      46.7237      46.7237 
  410000    110.69502   -10644.685   -9638.9647   -779.03771     102002.7      46.7237      46.7237      46.7237 
  411000    110.78907   -10644.896   -9638.3208   -900.10947     102002.7      46.7237      46.7237      46.7237 
  412000    109.63599   -10649.247   -9653.1483   -1083.1373     102002.7      46.7237      46.7237      46.7237 
  413000    110.51292   -10622.456   -9618.3898   -944.67676     102002.7      46.7237      46.7237      46.7237 
  414000    111.30504   -10624.567   -9613.3044   -580.71842     102002.7      46.7237      46.7237      46.7237 
  415000    111.34247   -10643.356   -9631.7527   -818.48195     102002.7      46.7237      46.7237      46.7237 
  416000    111.85593   -10624.448   -9608.1799    -779.9536     102002.7      46.7237      46.7237      46.7237 
  417000    111.17846   -10642.473   -9632.3601   -845.48846     102002.7      46.7237      46.7237      46.7237 
  418000    109.10107   -10635.148   -9643.9097   -947.55461     102002.7      46.7237      46.7237      46.7237 
  419000    111.64993   -10645.947   -9631.5508   -581.82831     102002.7      46.7237      46.7237      46.7237 
  420000    107.17406    -10637.53   -9663.7992   -808.38424     102002.7      46.7237      46.7237      46.7237 
  421000    110.94476   -10638.637    -9630.647   -821.37917     102002.7      46.7237      46.7237      46.7237 
  422000    110.82544    -10633.81   -9626.9047   -739.01698     102002.7      46.7237      46.7237      46.7237 
  423000    110.07825   -10632.454   -9632.3369   -1058.9325     102002.7      46.7237      46.7237      46.7237 
  424000    109.83731   -10634.354   -9636.4258   -923.94721     102002.7      46.7237      46.7237      46.7237 
  425000    109.64255   -10608.935   -9612.7766   -970.51711     102002.7      46.7237      46.7237      46.7237 
  426000    112.77442   -10623.207   -9598.5944    -948.6944     102002.7      46.7237      46.7237      46.7237 
  427000    109.60311    -10641.76   -9645.9602   -962.29595     102002.7      46.7237      46.7237      46.7237 
  428000    107.48063   -10619.625   -9643.1086   -925.41301     102002.7      46.7237      46.7237      46.7237 
  429000    108.91644   -10614.095   -9624.5332   -1259.8283     102002.7      46.7237      46.7237      46.7237 
  430000    110.33406   -10634.826    -9632.385   -855.91081     102002.7      46.7237      46.7237      46.7237 
  431000    112.53996   -10594.499    -9572.016   -806.80154     102002.7      46.7237      46.7237      46.7237 
  432000    110.07377   -10632.356   -9632.2801   -881.30274     102002.7      46.7237      46.7237      46.7237 
  433000    104.85166   -10661.402   -9708.7718   -841.56356     102002.7      46.7237      46.7237      46.7237 
  434000    109.60064   -10647.887   -9652.1099   -1170.0093     102002.7      46.7237      46.7237      46.7237 
  435000    109.45189   -10611.423   -9616.9972   -745.78971     102002.7      46.7237      46.7237      46.7237 
  436000     112.3706   -10633.018   -9612.0736   -960.05363     102002.7      46.7237      46.7237      46.7237 
  437000    113.01882   -10650.596   -9623.7629   -985.28189     102002.7      46.7237      46.7237      46.7237 
  438000    111.53211   -10628.315    -9614.989   -982.57977     102002.7      46.7237      46.7237      46.7237 
  439000    109.19195    -10606.83   -9614.7657   -862.46692     102002.7      46.7237      46.7237      46.7237 
  440000    108.53333   -10629.773   -9643.6922   -1003.2106     102002.7      46.7237      46.7237      46.7237 
  441000    111.19018   -10619.225   -9609.0054    -908.2452     102002.7      46.7237      46.7237      46.7237 
  442000    108.64903    -10635.06    -9647.928   -741.66193     102002.7      46.7237      46.7237      46.7237 
  443000    108.19255   -10631.552   -9648.5676   -724.93259     102002.7      46.7237      46.7237      46.7237 
  444000    111.73346   -10627.579   -9612.4233   -743.30952     102002.7      46.7237      46.7237      46.7237 
  445000    108.76536   -10656.224   -9668.0351   -1015.0846     102002.7      46.7237      46.7237      46.7237 
  446000    108.14839   -10621.928   -9639.3452   -832.12866     102002.7      46.7237      46.7237      46.7237 
  447000    111.30198   -10642.204   -9630.9688   -734.03739     102002.7      46.7237      46.7237      46.7237 
  448000    110.44163    -10605.85    -9602.432   -919.24973     102002.7      46.7237      46.7237      46.7237 
  449000    115.88666   -10622.436   -9569.5467   -995.04614     102002.7      46.7237      46.7237      46.7237 
  450000    107.84012   -10629.755   -9649.9729   -669.60179     102002.7      46.7237      46.7237      46.7237 
  451000    110.85369   -10657.417   -9650.2545    -1109.929     102002.7      46.7237      46.7237      46.7237 
  452000    111.38656   -10640.552   -9628.5484   -614.49157     102002.7      46.7237      46.7237      46.7237 
  453000    108.54481   -10649.282    -9663.097   -1093.9809     102002.7      46.7237      46.7237      46.7237 
  454000    111.23767   -10631.257    -9620.606   -1086.3331     102002.7      46.7237      46.7237      46.7237 
  455000    110.77472   -10626.054   -9619.6093   -818.28812     102002.7      46.7237      46.7237      46.7237 
  456000    106.93916   -10630.755   -9659.1583   -857.69347     102002.7      46.7237      46.7237      46.7237 
  457000    109.01914   -10626.786   -9636.2919   -659.38145     102002.7      46.7237      46.7237      46.7237 
  458000    113.14857   -10608.315   -9580.3031   -840.03915     102002.7      46.7237      46.7237      46.7237 
  459000    109.60112   -10628.187   -9632.4053   -655.93301     102002.7      46.7237      46.7237      46.7237 
  460000    110.62622    -10644.89   -9639.7947   -1034.7338     102002.7      46.7237      46.7237      46.7237 
  461000    105.53002   -10628.335   -9669.5411   -1003.6223     102002.7      46.7237      46.7237      46.7237 
  462000    109.15328   -10626.731   -9635.0176   -1083.2545     102002.7      46.7237      46.7237      46.7237 
  463000    110.56438   -10629.671   -9625.1371   -1126.9624     102002.7      46.7237      46.7237      46.7237 
  464000    110.20624   -10616.006    -9614.726     -1056.51     102002.7      46.7237      46.7237      46.7237 
  465000     110.8022   -10665.979   -9659.2846    -856.6099     102002.7      46.7237      46.7237      46.7237 
  466000     109.4897   -10617.532   -9622.7622   -880.67224     102002.7      46.7237      46.7237      46.7237 
  467000     108.2732   -10622.878    -9639.161   -767.77855     102002.7      46.7237      46.7237      46.7237 
  468000    111.83052   -10597.324   -9581.2867   -906.61066     102002.7      46.7237      46.7237      46.7237 
  469000    110.00776   -10638.419   -9638.9429   -908.01935     102002.7      46.7237      46.7237      46.7237 
  470000    110.12209   -10629.992   -9629.4772   -946.09224     102002.7      46.7237      46.7237      46.7237 
  471000    106.59528    -10634.61   -9666.1372   -934.72686     102002.7      46.7237      46.7237      46.7237 
  472000    108.57902   -10619.009   -9632.5129   -1120.2576     102002.7      46.7237      46.7237      46.7237 
  473000    109.20517   -10619.019   -9626.8341   -1082.1946     102002.7      46.7237      46.7237      46.7237 
  474000    109.06013   -10636.518    -9645.651   -788.86096     102002.7      46.7237      46.7237      46.7237 
  475000     112.2354   -10612.378    -9592.662   -955.14055     102002.7      46.7237      46.7237      46.7237 
  476000     110.5407    -10643.74   -9639.4218   -896.94964     102002.7      46.7237      46.7237      46.7237 
  477000    111.35127   -10621.488   -9609.8052   -808.32911     102002.7      46.7237      46.7237      46.7237 
  478000    111.95484   -10626.078   -9608.9114   -1028.1989     102002.7      46.7237      46.7237      46.7237 
  479000    110.00441   -10652.798   -9653.3523   -503.27437     102002.7      46.7237      46.7237      46.7237 
  480000    109.32148   -10586.491   -9593.2498    -393.7306     102002.7      46.7237      46.7237      46.7237 
  481000    109.70739   -10646.868   -9650.1207   -713.57311     102002.7      46.7237      46.7237      46.7237 
  482000    108.43001   -10633.785   -9648.6429   -671.09683     102002.7      46.7237      46.7237      46.7237 
  483000    110.54846   -10656.569   -9652.1796   -1011.1404     102002.7      46.7237      46.7237      46.7237 
  484000    112.64196   -10624.867    -9601.457   -616.84785     102002.7      46.7237      46.7237      46.7237 
  485000    112.16771   -10672.219    -9653.118   -987.15889     102002.7      46.7237      46.7237      46.7237 
  486000    110.35933   -10635.988   -9633.3175   -1041.1562     102002.7      46.7237      46.7237      46.7237 
  487000    109.95563   -10624.859   -9625.8564   -752.21518     102002.7      46.7237      46.7237      46.7237 
  488000    109.40618    -10636.09    -9642.079     -989.942     102002.7      46.7237      46.7237      46.7237 
  489000    108.33472   -10612.873   -9628.5966   -776.42921     102002.7      46.7237      46.7237      46.7237 
  490000    111.20067   -10628.821   -9618.5065   -931.59757     102002.7      46.7237      46.7237      46.7237 
  491000    110.99778   -10596.862   -9588.3902   -988.62774     102002.7      46.7237      46.7237      46.7237 
  492000    110.67461   -10605.127   -9599.5918   -836.82937     102002.7      46.7237      46.7237      46.7237 
  493000    112.26117   -10609.755   -9589.8051   -793.05258     102002.7      46.7237      46.7237      46.7237 
  494000     109.4845   -10628.822   -9634.0996   -916.80469     102002.7      46.7237      46.7237      46.7237 
  495000    109.38807   -10618.026   -9624.1801   -942.94369     102002.7      46.7237      46.7237      46.7237 
  496000    106.32642    -10622.14   -9656.1108   -839.88136     102002.7      46.7237      46.7237      46.7237 
  497000    110.08567   -10629.183   -9628.9988   -609.04015     102002.7      46.7237      46.7237      46.7237 
  498000    108.28684    -10625.72   -9641.8786   -744.64466     102002.7      46.7237      46.7237      46.7237 
  499000    106.20123   -10632.108   -9667.2162   -813.73172     102002.7      46.7237      46.7237      46.7237 
  500000    108.64742    -10630.11   -9642.9925   -370.35408     102002.7      46.7237      46.7237      46.7237 
  500500    109.39368   -10619.378   -9625.4808   -684.44557     102002.7      46.7237      46.7237      46.7237 
Loop time of 884.093 on 24 procs for 500000 steps with 3049 atoms

Performance: 48.864 ns/day, 0.491 hours/ns, 565.551 timesteps/s
97.9% CPU use with 24 MPI tasks x no OpenMP threads

MPI task timing breakdown:
Section |  min time  |  avg time  |  max time  |%varavg| %total
---------------------------------------------------------------
Pair    | 271.88     | 443.17     | 647.14     | 463.8 | 50.13
Bond    | 49.729     | 78.545     | 107.97     | 214.1 |  8.88
Neigh   | 7.6548     | 7.6738     | 7.6903     |   0.4 |  0.87
Comm    | 109.15     | 339.39     | 533        | 618.2 | 38.39
Output  | 0.4828     | 0.48313    | 0.48687    |   0.1 |  0.05
Modify  | 4.3592     | 4.7786     | 5.176      |   9.8 |  0.54
Other   |            | 10.05      |            |       |  1.14

Nlocal:    127.042 ave 164 max 97 min
Histogram: 1 4 5 2 1 4 2 2 1 2
Nghost:    3394.25 ave 3463 max 3342 min
Histogram: 1 4 1 4 8 1 2 1 1 1
Neighs:    7634.46 ave 14863 max 3742 min
Histogram: 5 1 4 6 3 2 0 2 0 1

Total # of neighbors = 183227
Ave neighs/atom = 60.0941
Ave special neighs/atom = 3.77829
Neighbor list builds = 4747
Dangerous builds = 0
Neighbor list info ...
  update every 1 steps, delay 10 steps, check yes
  max neighbors/atom: 2000, page size: 100000
  master list distance cutoff = 16
  ghost atom cutoff = 16
  binsize = 8, bins = 6 6 6
  3 neighbor lists, perpetual/occasional/extra = 3 0 0
  (1) pair buck6d/coul/gauss/dsf, perpetual, skip from (3)
      attributes: half, newton on
      pair build: skip
      stencil: none
      bin: none
  (2) pair lj/cut, perpetual, skip from (3)
      attributes: half, newton on
      pair build: skip
      stencil: none
      bin: none
  (3) neighbor class addition, perpetual
      attributes: half, newton on
      pair build: half/bin/newton
      stencil: half/bin/3d/newton
      bin: standard
Setting up Verlet run ...
  Unit style    : real
  Current step  : 500500
  Time step     : 1
WARNING: Inconsistent image flags (../domain.cpp:786)
Per MPI rank memory allocation (min/avg/max) = 23.89 | 24.57 | 24.66 Mbytes
Step Time TotEng KinEng PotEng E_mol E_pair Temp Pxx Pyy Pzz Pxy Pxz Pyz Cella Cellb Cellc CellAlpha CellBeta CellGamma Volume Press 
  500500       500000   -9625.4808    993.89724   -10619.378    4283.4104   -14902.788    109.39368   -596.02294   -750.96303   -706.35075   -272.51034     139.9643   -13.706626      46.7237      46.7237      46.7237           90           90           90     102002.7   -684.44557 
  501000       500500   -9580.2483    1028.6792   -10608.928    4282.9253   -14891.853    113.22197   -1009.1228   -748.22847   -1583.3113   -136.90335   -43.756655   -242.16574      46.7237      46.7237      46.7237           90           90           90     102002.7   -1113.5542 
  502000       501500   -9667.9417     984.4217   -10652.363    4259.2067    -14911.57    108.35075   -974.69722   -1117.0282   -303.86655   -131.18881    292.33034    109.44807      46.7237      46.7237      46.7237           90           90           90     102002.7   -798.53066 
  503000       502500   -9630.8336    1003.0097   -10633.843    4279.9524   -14913.796    110.39664   -921.33282   -417.52698   -1038.5131   -104.31032    88.501374    144.20257      46.7237      46.7237      46.7237           90           90           90     102002.7   -792.45764 
  504000       503500   -9634.4657    991.73742   -10626.203    4296.9172    -14923.12    109.15596   -684.22834   -981.63955   -1436.5667    43.986704   -167.24279   -99.132675      46.7237      46.7237      46.7237           90           90           90     102002.7   -1034.1449 
  505000       504500   -9599.8623    1036.4072    -10636.27    4295.2172   -14931.487    114.07255   -992.79701   -1064.2659   -1170.9513   -112.76236   -94.603966   -140.48509      46.7237      46.7237      46.7237           90           90           90     102002.7   -1076.0047 
  506000       505500   -9637.5995     970.8975   -10608.497    4295.6809   -14904.178     106.8622    -1015.762   -1543.4015   -785.31229   -173.75614  0.015892031    74.985017      46.7237      46.7237      46.7237           90           90           90     102002.7   -1114.8253 
  507000       506500    -9627.317    983.34136   -10610.658    4301.2637   -14911.922    108.23184   -746.90265   -407.73548   -1002.0104   -65.317169    148.19193    -2.399368      46.7237      46.7237      46.7237           90           90           90     102002.7   -718.88284 
  508000       507500   -9588.2189    1001.1508    -10589.37    4315.3418   -14904.711    110.19204   -805.66685   -1137.3187   -874.45249   -27.094443    43.091831    140.62525      46.7237      46.7237      46.7237           90           90           90     102002.7   -939.14603 
  509000       508500   -9624.2746    993.48421   -10617.759    4276.5007    -14894.26    109.34822   -1032.0937   -823.61257   -1474.2474    264.74876   -156.36585   -140.25293      46.7237      46.7237      46.7237           90           90           90     102002.7   -1109.9845 
  510000       509500   -9626.2064    998.16938   -10624.376    4287.4647    -14911.84    109.86389   -934.69405   -991.24574   -510.15254   -71.673874   -138.04207   -104.20735      46.7237      46.7237      46.7237           90           90           90     102002.7   -812.03077 
  511000       510500   -9629.4835    994.91073   -10624.394    4298.9353    -14923.33    109.50523   -476.37364   -653.97806   -1238.2405     130.3867    73.696593   -155.47882      46.7237      46.7237      46.7237           90           90           90     102002.7   -789.53072 
  512000       511500   -9665.8221    982.20637   -10648.028    4268.4262   -14916.455    108.10692   -596.68898   -1201.1657   -847.01019   -152.06576    60.682667    31.089753      46.7237      46.7237      46.7237           90           90           90     102002.7   -881.62162 
  513000       512500   -9649.6767    975.61299    -10625.29    4269.2171   -14894.507    107.38121   -1008.5401   -1058.9029   -1076.4353   -58.199767   -19.168728    8.4835641      46.7237      46.7237      46.7237           90           90           90     102002.7   -1047.9594 
  514000       513500   -9643.8091    986.74248   -10630.552    4275.2012   -14905.753    108.60619   -1082.1122   -1053.8137     -1427.18    55.745436    -205.6002   -228.04509      46.7237      46.7237      46.7237           90           90           90     102002.7    -1187.702 
  515000       514500   -9621.8874    1015.3086   -10637.196    4274.9394   -14912.135    111.75032   -908.57332   -805.95005    -723.1662    349.41211    113.97973    236.73655      46.7237      46.7237      46.7237           90           90           90     102002.7   -812.56319 
  516000       515500   -9673.2365    982.66284   -10655.899    4247.0793   -14902.979    108.15716   -647.37397   -483.26945    -628.9005   -17.889682     71.35507    165.69913      46.7237      46.7237      46.7237           90           90           90     102002.7   -586.51464 
  517000       516500   -9629.4716    996.64211   -10626.114    4295.5889   -14921.703    109.69579   -812.51218   -854.60261   -1229.6671   -4.1550491    246.11822    170.73958      46.7237      46.7237      46.7237           90           90           90     102002.7   -965.59398 
  518000       517500   -9618.2027    989.65754    -10607.86    4301.7491   -14909.609    108.92703   -590.39495   -391.90264   -1333.5546   -134.89081   -90.090685    342.59202      46.7237      46.7237      46.7237           90           90           90     102002.7   -771.95074 
  519000       518500   -9630.2557    1004.2353   -10634.491    4283.3608   -14917.852    110.53154    -614.2964   -1051.7422   -1566.9548    48.881315   -303.85829   -269.50151      46.7237      46.7237      46.7237           90           90           90     102002.7   -1077.6645 
  520000       519500   -9592.3419    1020.1158   -10612.458    4295.5746   -14908.032    112.27944   -813.90147   -1286.5277   -1109.2031    366.51076    -99.81063   -86.237123      46.7237      46.7237      46.7237           90           90           90     102002.7   -1069.8774 
  521000       520500   -9617.6363     997.4643   -10615.101    4291.0678   -14906.168    109.78629   -1156.5732   -873.26601    -978.4176    207.38048    47.817658    66.368127      46.7237      46.7237      46.7237           90           90           90     102002.7   -1002.7523 
  522000       521500   -9613.1822    1009.9283    -10623.11    4285.6439   -14908.754    111.15814   -1019.7398   -943.55015   -615.34727   -275.50015    153.65731   -116.15207      46.7237      46.7237      46.7237           90           90           90     102002.7   -859.54572 
  523000       522500   -9606.3196    1017.6771   -10623.997    4306.6771   -14930.674    112.01102   -759.07258   -429.10108   -995.05291   -206.89566   -187.15625    -229.3362      46.7237      46.7237      46.7237           90           90           90     102002.7   -727.74219 
  524000       523500   -9621.2856    1000.9607   -10622.246    4296.8956   -14919.142    110.17112   -789.64845   -1000.0013   -712.08975    54.809041   -150.78737   -106.12552      46.7237      46.7237      46.7237           90           90           90     102002.7   -833.91317 
  525000       524500   -9621.5476    1002.5782   -10624.126    4287.9513   -14912.077    110.34915   -674.21013   -870.33353   -688.26923    176.66238   -119.88793   -319.73872      46.7237      46.7237      46.7237           90           90           90     102002.7   -744.27096 
  526000       525500   -9587.8892    1029.5338   -10617.423    4319.6424   -14937.065    113.31603   -1027.5744   -848.24319   -1242.9343   -78.195038    -173.0147     56.82398      46.7237      46.7237      46.7237           90           90           90     102002.7   -1039.5839 
  527000       526500   -9628.0605    1005.1443   -10633.205    4288.7688   -14921.974    110.63159   -754.99347   -889.90611    -1061.462    67.329596   -18.660569   0.68759553      46.7237      46.7237      46.7237           90           90           90     102002.7   -902.12051 
  528000       527500   -9636.7603    991.58335   -10628.344    4304.1271   -14932.471      109.139   -1187.9408   -959.21165   -793.92128    160.23317   -17.547313    70.870869      46.7237      46.7237      46.7237           90           90           90     102002.7    -980.3579 
  529000       528500   -9639.5122    992.97533   -10632.488    4282.4016   -14914.889    109.29221   -799.13041   -815.11892   -918.37082    76.837053   -232.59099   -69.065947      46.7237      46.7237      46.7237           90           90           90     102002.7   -844.20672 
  530000       529500   -9633.7909    1001.8161   -10635.607    4281.2833    -14916.89    110.26527   -558.41416   -750.88713    -1318.033   -122.79978    54.369223    95.454321      46.7237      46.7237      46.7237           90           90           90     102002.7    -875.7781 
  531000       530500   -9597.5284     1044.248   -10641.776    4286.5389   -14928.315    114.93555   -608.55539   -875.05266   -736.08292     47.70428   -100.75231    125.69459      46.7237      46.7237      46.7237           90           90           90     102002.7   -739.89699 
  532000       531500   -9626.2004    997.81885   -10624.019    4281.9208    -14905.94    109.82531   -1046.2918   -976.22959   -816.42364   -158.09992     -351.906   -12.208586      46.7237      46.7237      46.7237           90           90           90     102002.7   -946.31499 
  533000       532500    -9611.815    990.80998   -10602.625    4312.6091   -14915.234    109.05388    -1122.961   -235.87076   -682.71292   -318.74018   -221.47237   -340.32141      46.7237      46.7237      46.7237           90           90           90     102002.7    -680.5149 
  534000       533500   -9611.4765    1011.6563   -10623.133    4304.1443   -14927.277    111.34833   -981.06859   -939.84363   -1076.7278   -144.25522   -213.03659    -94.55832      46.7237      46.7237      46.7237           90           90           90     102002.7   -999.21335 
  535000       534500    -9626.328     1003.114   -10629.442    4295.3434   -14924.785    110.40812   -582.46419   -884.83442   -931.29187    -227.8429   -94.094316    226.91072      46.7237      46.7237      46.7237           90           90           90     102002.7   -799.53016 
  536000       535500   -9627.2593    1003.9402     -10631.2    4295.0813   -14926.281    110.49906   -917.71048   -939.13449   -826.73915   -172.90816   -136.89366    131.94519      46.7237      46.7237      46.7237           90           90           90     102002.7   -894.52804 
  537000       536500   -9672.9719    985.65941   -10658.631    4269.4639   -14928.095    108.48698   -925.41161   -1021.1962   -1317.4293   -161.75622    173.33095   -116.94928      46.7237      46.7237      46.7237           90           90           90     102002.7   -1088.0124 
  538000       537500   -9653.4796    994.79938   -10648.279     4294.644   -14942.923    109.49297    -1303.413   -1190.3372   -898.28777    75.736109   -15.449394  -0.79630949      46.7237      46.7237      46.7237           90           90           90     102002.7   -1130.6793 
  539000       538500   -9621.3955    1012.2322   -10633.628     4290.455   -14924.083    111.41172   -363.43207   -1076.3133   -1549.4748   -303.77836    131.33094   -130.89864      46.7237      46.7237      46.7237           90           90           90     102002.7   -996.40675 
  540000       539500   -9604.5807     1006.903   -10611.484    4312.1647   -14923.648    110.82516   -1072.7557   -1026.9897   -958.33397   -76.900749    156.75661    -222.0939      46.7237      46.7237      46.7237           90           90           90     102002.7   -1019.3598 
  541000       540500   -9598.7013    1027.2343   -10625.936     4311.815   -14937.751    113.06293   -648.71189   -1077.7129   -679.02019    112.59716   -173.23228   -3.9157626      46.7237      46.7237      46.7237           90           90           90     102002.7   -801.81499 
  542000       541500    -9637.363    999.80784   -10637.171    4285.1598   -14922.331    110.04423   -1086.4118   -869.42718   -911.45977    32.219917     171.7175   -82.185152      46.7237      46.7237      46.7237           90           90           90     102002.7   -955.76624 
  543000       542500   -9614.9296    1007.3614   -10622.291    4306.7502   -14929.041    110.87561   -1153.9377   -1239.2122   -948.31307   -130.80316   -195.63971    171.62648      46.7237      46.7237      46.7237           90           90           90     102002.7    -1113.821 
  544000       543500   -9632.2694     999.1189   -10631.388    4301.5205   -14932.909     109.9684   -950.62851   -592.06618   -1238.6415    98.211964    180.81451    160.87159      46.7237      46.7237      46.7237           90           90           90     102002.7   -927.11205 
  545000       544500   -9612.8341    1014.0433   -10626.877    4283.0738   -14909.951    111.61106    -1017.722   -1323.4662   -1622.0941    -136.3851    99.688723     141.1265      46.7237      46.7237      46.7237           90           90           90     102002.7   -1321.0941 
  546000       545500   -9634.0386    1001.9706   -10636.009    4279.2344   -14915.244    110.28227   -1084.9362   -1157.9787   -982.63743    188.79954    78.908853    133.10892      46.7237      46.7237      46.7237           90           90           90     102002.7   -1075.1841 
  547000       546500   -9645.5426    985.90462   -10631.447    4288.3587   -14919.806    108.51397   -1531.1166   -816.97332   -1208.0809   -114.05729   -177.37697     -167.067      46.7237      46.7237      46.7237           90           90           90     102002.7   -1185.3903 
  548000       547500   -9645.7305    1007.2204   -10652.951    4261.9381   -14914.889     110.8601   -1177.0967   -762.38682   -922.93491    -99.29025   -256.34592     117.5484      46.7237      46.7237      46.7237           90           90           90     102002.7   -954.13948 
  549000       548500   -9610.7142    1010.7192   -10621.433    4291.2633   -14912.697    111.24519    -299.3254   -579.25657   -1189.8661    22.801147    14.213054    40.697638      46.7237      46.7237      46.7237           90           90           90     102002.7   -689.48269 
  550000       549500   -9631.0814    995.98809   -10627.069    4308.7169   -14935.786    109.62381   -1189.1286   -853.93404   -958.82994    18.667099   -333.90493    77.834839      46.7237      46.7237      46.7237           90           90           90     102002.7   -1000.6309 
  551000       550500   -9639.6787    988.33159    -10628.01    4292.4977   -14920.508    108.78109    -920.9328   -774.80282     -1031.18    237.07376    56.186573    85.833567      46.7237      46.7237      46.7237           90           90           90     102002.7   -908.97186 
  552000       551500   -9594.2818    1011.7922   -10606.074    4311.4159    -14917.49    111.36329    -505.6222   -905.12456   -1159.2394    -185.8311    112.17679    153.74604      46.7237      46.7237      46.7237           90           90           90     102002.7   -856.66204 
  553000       552500   -9686.1014    962.33362   -10648.435    4275.8608   -14924.296    105.91961    -1087.207   -1348.0083   -1063.2043    236.42436    60.181162    144.14058      46.7237      46.7237      46.7237           90           90           90     102002.7   -1166.1399 
  554000       553500   -9627.3852    1002.8066   -10630.192    4283.4938   -14913.686    110.37429   -453.35174   -828.07624   -844.73219   -7.6810073    100.64188    1.0429164      46.7237      46.7237      46.7237           90           90           90     102002.7   -708.72005 
  555000       554500    -9619.414    1009.5797   -10628.994    4284.8303   -14913.824    111.11977   -887.13077   -985.47574   -1298.5818   -120.35542   -51.305774    15.262617      46.7237      46.7237      46.7237           90           90           90     102002.7   -1057.0628 
[...]
  936000       935500   -9636.6241    994.90711   -10631.531    4293.1564   -14924.688    109.50483   -935.12585   -811.55657   -1103.3936   -42.736764    51.538476   -65.780253      46.7237      46.7237      46.7237           90           90           90     102002.7   -950.02534 
  937000       936500   -9646.1501    986.56414   -10632.714    4285.7916   -14918.506    108.58656   -897.70527    -838.9047   -398.36304   -153.95927   -249.15512    10.382883      46.7237      46.7237      46.7237           90           90           90     102002.7   -711.65767 
  938000       937500   -9642.5647     1010.936   -10653.501    4280.1625   -14933.663    111.26906   -819.71823   -670.49767   -993.43281    5.5671163    81.695952   -178.85667      46.7237      46.7237      46.7237           90           90           90     102002.7    -827.8829 
  939000       938500    -9640.896     983.9959   -10624.892    4299.7169   -14924.609    108.30388   -767.50713   -640.64607   -848.87007   -32.359318   -140.89828   -75.697445      46.7237      46.7237      46.7237           90           90           90     102002.7   -752.34109 
  940000       939500   -9671.0286    973.26626   -10644.295    4268.2998   -14912.595    107.12292   -637.69608   -756.45679   -673.85824   -17.973156   -14.576809    360.89773      46.7237      46.7237      46.7237           90           90           90     102002.7   -689.33704 
  941000       940500   -9646.8707    976.89538   -10623.766    4295.0127   -14918.779    107.52236   -552.29695   -821.34406   -1206.5776   -149.89917    158.84562    218.28691      46.7237      46.7237      46.7237           90           90           90     102002.7   -860.07288 
  942000       941500   -9600.1236     1015.927   -10616.051    4295.7925   -14911.843    111.81839   -566.84992   -318.06923   -1084.1979    157.71012   -173.78979   -213.45512      46.7237      46.7237      46.7237           90           90           90     102002.7   -656.37234 
  943000       942500   -9658.6073    966.77659   -10625.384    4283.3823   -14908.766    106.40863   -766.40528   -422.48595   -1028.3425    45.517002   -167.16675   -235.78382      46.7237      46.7237      46.7237           90           90           90     102002.7   -739.07792 
  944000       943500    -9623.115    1012.4078   -10635.523    4286.7272    -14922.25    111.43105   -1212.0987   -798.31598   -1128.4632    99.455368   -301.82588   -91.944217      46.7237      46.7237      46.7237           90           90           90     102002.7   -1046.2926 
  945000       944500   -9588.5789    1028.7771   -10617.356    4284.8787   -14902.235    113.23275   -658.08619   -1241.7562   -519.98549   -182.26114     55.25136   -122.46613      46.7237      46.7237      46.7237           90           90           90     102002.7    -806.6093 
  946000       945500   -9619.0712    993.28011   -10612.351    4292.7192   -14905.071    109.32575   -1205.8408   -608.74872    -1497.324    131.50682   -67.222162    109.21331      46.7237      46.7237      46.7237           90           90           90     102002.7   -1103.9712 
  947000       946500   -9649.0279    1006.0985   -10655.126    4283.6764   -14938.803    110.73662   -896.95352   -981.37754    -735.4462    20.901649   -55.972429    537.77376      46.7237      46.7237      46.7237           90           90           90     102002.7   -871.25909 
  948000       947500   -9611.4101     1021.976   -10633.386    4282.4289   -14915.815    112.48417   -889.88515   -1438.2208   -1382.6443    206.60044    123.36386    308.70891      46.7237      46.7237      46.7237           90           90           90     102002.7   -1236.9167 
  949000       948500   -9611.2605    999.94572   -10611.206    4324.2951   -14935.501    110.05941   -1138.4159   -719.34054    -1253.552    56.939975    194.91454   -11.015398      46.7237      46.7237      46.7237           90           90           90     102002.7   -1037.1028 
  950000       949500   -9639.3792    983.39263   -10622.772    4317.9377    -14940.71    108.23748   -932.67948   -976.81917   -1015.5058   -119.39381   -65.675366    52.099563      46.7237      46.7237      46.7237           90           90           90     102002.7    -975.0015 
  951000       950500     -9637.49    992.97215   -10630.462    4280.4089   -14910.871    109.29186   -1274.5349   -1126.6861   -1566.7604   -63.171158    327.46958   -172.88873      46.7237      46.7237      46.7237           90           90           90     102002.7   -1322.6605 
  952000       951500   -9637.3997    984.77493   -10622.175    4314.9822   -14937.157    108.38963   -1101.9156    -847.1781    -1413.233   -106.39298    48.888882   -2.3080913      46.7237      46.7237      46.7237           90           90           90     102002.7   -1120.7755 
  953000       952500   -9629.0234    977.65154   -10606.675    4305.5748    -14912.25    107.60559    -876.7814   -579.32686   -843.78407   0.29454143    89.836642     117.7889      46.7237      46.7237      46.7237           90           90           90     102002.7   -766.63078 
  954000       953500   -9645.3444    997.27333   -10642.618    4301.1787   -14943.796    109.76527   -881.10168   -781.85071    -717.7164    6.3537841    216.53473   -190.23608      46.7237      46.7237      46.7237           90           90           90     102002.7   -793.55626 
  955000       954500   -9589.8585    1030.9442   -10620.803    4308.7844   -14929.587    113.47127   -753.53022   -554.25107   -1054.0722   -39.033209     24.28966    -234.5465      46.7237      46.7237      46.7237           90           90           90     102002.7   -787.28449 
  956000       955500   -9628.1981    1010.6355   -10638.834    4289.1193   -14927.953    111.23598   -832.66753   -899.63931   -1288.8187   -78.326221   -211.12421    29.773557      46.7237      46.7237      46.7237           90           90           90     102002.7   -1007.0419 
  957000       956500   -9648.8398    1003.5935   -10652.433    4290.1175   -14942.551     110.4609    -654.9854   -885.34066   -1160.4508   -58.431932   -11.960955    -148.6787      46.7237      46.7237      46.7237           90           90           90     102002.7   -900.25896 
  958000       957500   -9650.8013    1002.4947   -10653.296    4283.9556   -14937.252    110.33996   -1187.9362   -789.60361   -1551.1411    35.820047    21.777248    126.04247      46.7237      46.7237      46.7237           90           90           90     102002.7    -1176.227 
  959000       958500   -9612.5937    997.54334   -10610.137    4322.5787   -14932.716    109.79499   -1134.9989   -866.12387   -877.08786    205.51569   -50.114008   -317.10325      46.7237      46.7237      46.7237           90           90           90     102002.7   -959.40355 
  960000       959500   -9636.5889    996.74055   -10633.329    4298.4814   -14931.811    109.70663   -779.01167   -1101.9861   -1032.4473     172.5939   -97.742835    28.979488      46.7237      46.7237      46.7237           90           90           90     102002.7   -971.14835 
  961000       960500   -9632.3729    1003.7294   -10636.102    4285.1262   -14921.229    110.47586   -727.84059   -718.57258   -1386.8531   -3.3467184   -103.63774    -101.1068      46.7237      46.7237      46.7237           90           90           90     102002.7   -944.42209 
  962000       961500   -9607.2168    1001.0286   -10608.245    4314.9153   -14923.161    110.17859    -975.1922   -976.51568   -722.88517    322.70025    16.079342   -130.17039      46.7237      46.7237      46.7237           90           90           90     102002.7   -891.53101 
  963000       962500   -9593.7295    1008.6151   -10602.345    4304.7734   -14907.118     111.0136   -1057.9812   -972.17805   -1197.8542   -51.901978    -59.85421    85.521754      46.7237      46.7237      46.7237           90           90           90     102002.7   -1076.0045 
  964000       963500   -9594.7825     1026.493   -10621.276    4311.0064   -14932.282    112.98134   -1145.7736   -1150.4161   -1019.3769    283.99822    228.66951    173.02543      46.7237      46.7237      46.7237           90           90           90     102002.7   -1105.1889 
  965000       964500   -9637.5439    988.07798   -10625.622    4329.5043   -14955.126    108.75318   -906.86174   -1211.5044   -769.87821   -12.128205    101.56463   -88.299491      46.7237      46.7237      46.7237           90           90           90     102002.7   -962.74811 
  966000       965500   -9598.0651    1021.3786   -10619.444    4319.1372   -14938.581    112.41842   -817.31202   -1182.9197   -1000.2959    263.05739    337.34439    233.53444      46.7237      46.7237      46.7237           90           90           90     102002.7   -1000.1759 
  967000       966500   -9625.9392    994.40972   -10620.349    4296.8368   -14917.186    109.45008   -952.07985    -1020.374   -552.63671    26.299163    86.427831   -6.3478556      46.7237      46.7237      46.7237           90           90           90     102002.7   -841.69685 
  968000       967500   -9597.9387    1014.5805   -10612.519    4298.2752   -14910.794    111.67019   -742.49441   -390.25908   -1016.4432    -160.6696   -155.00217    153.76023      46.7237      46.7237      46.7237           90           90           90     102002.7    -716.3989 
  969000       968500   -9613.5459    998.78628   -10612.332    4293.8091   -14906.141    109.93179   -594.49271   -524.60755   -820.02447   -134.78386   -31.698337   -236.56064      46.7237      46.7237      46.7237           90           90           90     102002.7   -646.37491 
  970000       969500   -9587.8904    1017.8813   -10605.772      4317.56   -14923.332    112.03349   -454.40037   -451.30108   -753.83202     64.06712   -218.46468    202.52384      46.7237      46.7237      46.7237           90           90           90     102002.7   -553.17782 
  971000       970500   -9647.9874    994.36905   -10642.356    4265.1209   -14907.477    109.44561   -1048.4006   -667.61195   -984.74039    44.535521    24.167512   -65.645402      46.7237      46.7237      46.7237           90           90           90     102002.7   -900.25098 
  972000       971500   -9612.3933    1023.5265    -10635.92    4289.4827   -14925.402    112.65483   -770.89341   -754.15478   -484.76991    220.77784    80.463491   -294.36963      46.7237      46.7237      46.7237           90           90           90     102002.7   -669.93937 
  973000       972500    -9591.935    1025.3125   -10617.248    4289.3757   -14906.623    112.85141   -645.94912   -829.88776   -977.24512   -27.143692 -0.032481888    104.67149      46.7237      46.7237      46.7237           90           90           90     102002.7     -817.694 
  974000       973500   -9604.7753     1012.536   -10617.311    4295.9596   -14913.271    111.44516   -1154.4902   -866.08867   -1371.7827    17.771018    196.15506    44.098875      46.7237      46.7237      46.7237           90           90           90     102002.7   -1130.7872 
  975000       974500   -9581.8139      1019.59   -10601.404    4319.5839   -14920.988    112.22156   -1203.1935   -428.52035   -1115.1881   -58.113281    144.27081    71.136879      46.7237      46.7237      46.7237           90           90           90     102002.7     -915.634 
  976000       975500   -9637.6435    995.69153   -10633.335     4316.003   -14949.338    109.59117   -1151.8301   -1144.0166   -991.31305   -60.065777    32.932032   -127.53244      46.7237      46.7237      46.7237           90           90           90     102002.7   -1095.7199 
  977000       976500   -9625.0375    1013.3568   -10638.394    4278.9272   -14917.321     111.5355   -1095.3323   -1137.5232   -927.55007   -105.13157   -71.786757    101.34681      46.7237      46.7237      46.7237           90           90           90     102002.7   -1053.4685 
  978000       977500   -9604.5665    1014.0542   -10618.621    4288.1302   -14906.751    111.61226   -976.69108   -929.48439   -1033.2081    21.450315   -196.28881    -355.4514      46.7237      46.7237      46.7237           90           90           90     102002.7   -979.79454 
  979000       978500   -9641.4341    979.09027   -10620.524    4312.2564   -14932.781    107.76394   -902.24756   -1123.6477   -1148.8076    14.221097      -66.029   -140.22331      46.7237      46.7237      46.7237           90           90           90     102002.7   -1058.2343 
  980000       979500   -9607.5999    1025.4658   -10633.066    4292.6403   -14925.706    112.86828   -948.28201   -657.37538   -1261.2738     72.74014    159.01933   -41.282161      46.7237      46.7237      46.7237           90           90           90     102002.7   -955.64373 
  981000       980500   -9643.9211    1008.0751   -10651.996    4263.8699   -14915.866    110.95417   -294.52169   -893.44123   -1134.8093   -104.50305    279.09307    7.2685173      46.7237      46.7237      46.7237           90           90           90     102002.7   -774.25742 
  982000       981500   -9639.8065    997.73097   -10637.537    4300.3802   -14937.918    109.81564   -870.54966   -1107.8301   -837.92058    -31.24846   -53.870922    60.105853      46.7237      46.7237      46.7237           90           90           90     102002.7   -938.76677 
  983000       982500   -9612.6117    1011.5261   -10624.138    4301.3266   -14925.464      111.334   -1078.0293   -1239.7327   -1188.5101   -56.721861   -13.126979   -130.85459      46.7237      46.7237      46.7237           90           90           90     102002.7   -1168.7574 
  984000       983500    -9659.039    974.81293   -10633.852    4275.6393   -14909.491    107.29315   -601.42241   -891.72824   -1187.0746    190.66943     263.4075    258.70835      46.7237      46.7237      46.7237           90           90           90     102002.7   -893.40843 
  985000       984500   -9623.5073    1002.7721   -10626.279    4313.4003    -14939.68    110.37049   -746.01116   -931.70086    -1061.844   -145.93317   -11.992418    199.48711      46.7237      46.7237      46.7237           90           90           90     102002.7   -913.18534 
  986000       985500   -9627.0238    990.56856   -10617.592    4310.0926   -14927.685     109.0273   -1460.5035   -1343.9574   -675.86011   -299.46209    37.041363   -110.05444      46.7237      46.7237      46.7237           90           90           90     102002.7    -1160.107 
  987000       986500   -9653.6588    992.27282   -10645.932    4296.7428   -14942.674    109.21488   -878.61826   -1181.0847   -1009.4716     45.98337   -9.9870042    152.24619      46.7237      46.7237      46.7237           90           90           90     102002.7   -1023.0582 
  988000       987500   -9614.0603    1003.5446   -10617.605    4282.2542   -14899.859    110.45552   -632.49192   -1057.1531   -840.07273     4.275283   -51.356448    180.89445      46.7237      46.7237      46.7237           90           90           90     102002.7   -843.23925 
  989000       988500   -9680.3114     977.7495   -10658.061    4264.8429   -14922.904    107.61637   -732.23275   -706.11422   -947.96666    28.426233   -92.409487    37.001203      46.7237      46.7237      46.7237           90           90           90     102002.7   -795.43788 
  990000       989500    -9625.581    1001.1605   -10626.742    4283.8829   -14910.625    110.19312   -428.25889   -597.68055     -1184.59    193.42957    215.07247   -86.958509      46.7237      46.7237      46.7237           90           90           90     102002.7   -736.84313 
  991000       990500   -9626.5444    999.22963   -10625.774    4280.6546   -14906.429    109.98059   -1245.8036   -1124.7624    -850.7797    304.29404   -19.039156    125.02007      46.7237      46.7237      46.7237           90           90           90     102002.7   -1073.7819 
  992000       991500   -9609.2917    1021.9585    -10631.25     4289.071   -14920.321    112.48225   -1011.6337   -1074.2261   -1075.3603     221.5188    84.975956    87.123167      46.7237      46.7237      46.7237           90           90           90     102002.7     -1053.74 
  993000       992500   -9627.2671    1004.0858   -10631.353    4292.0951   -14923.448    110.51509   -1151.8287   -1573.3728   -1140.3877   -168.02423   -127.04451  -0.18460405      46.7237      46.7237      46.7237           90           90           90     102002.7   -1288.5297 
  994000       993500   -9586.5987     1017.151    -10603.75    4328.7932   -14932.543    111.95311   -790.10138   -801.19579   -836.69627   -107.92248    80.758158    45.752447      46.7237      46.7237      46.7237           90           90           90     102002.7   -809.33115 
  995000       994500   -9626.0305     1005.534   -10631.565    4298.5278   -14930.092    110.67448   -1174.4534   -1185.8579   -889.21292     2.377582    -133.9576   -187.28999      46.7237      46.7237      46.7237           90           90           90     102002.7   -1083.1747 
  996000       995500   -9660.4961    993.38382    -10653.88    4293.1416   -14947.022    109.33717   -873.69402   -936.10311   -1468.8348    33.030571    -224.1165   -95.149607      46.7237      46.7237      46.7237           90           90           90     102002.7   -1092.8773 
  997000       996500   -9606.6235    1016.5572   -10623.181    4299.4252   -14922.606    111.88776   -479.64474   -463.90135   -1121.5369   -189.51631    -43.90981    50.765213      46.7237      46.7237      46.7237           90           90           90     102002.7   -688.36099 
  998000       997500   -9636.0586    991.47506   -10627.534     4284.217   -14911.751    109.12708   -1194.7176   -1436.2518   -1417.3352    180.88004   -73.981397   -109.77195      46.7237      46.7237      46.7237           90           90           90     102002.7   -1349.4349 
  999000       998500   -9672.7263    958.71422   -10631.441    4280.9604   -14912.401    105.52124   -902.76831   -837.23493   -623.26656    127.50531    167.69762    150.55638      46.7237      46.7237      46.7237           90           90           90     102002.7    -787.7566 
 1000000       999500   -9643.1767    974.76088   -10617.938    4315.6683   -14933.606    107.28743   -869.23295   -842.37205   -572.71056   -88.360893    -168.5933   -103.93797      46.7237      46.7237      46.7237           90           90           90     102002.7   -761.43852 
 1000500      1000000   -9621.8899    1035.7264   -10657.616    4288.1925   -14945.809    113.99762   -930.27762   -1125.2998   -995.83718    123.81194   -54.841674    -21.40848      46.7237      46.7237      46.7237           90           90           90     102002.7   -1017.1382 
Loop time of 981.265 on 24 procs for 500000 steps with 3049 atoms

Performance: 44.025 ns/day, 0.545 hours/ns, 509.546 timesteps/s
98.2% CPU use with 24 MPI tasks x no OpenMP threads

MPI task timing breakdown:
Section |  min time  |  avg time  |  max time  |%varavg| %total
---------------------------------------------------------------
Pair    | 345.68     | 532.64     | 711.51     | 476.9 | 54.28
Bond    | 37.302     | 82.531     | 141.76     | 344.6 |  8.41
Neigh   | 7.6295     | 7.648      | 7.6638     |   0.4 |  0.78
Comm    | 98.135     | 334.23     | 563.36     | 749.0 | 34.06
Output  | 0.53199    | 0.58624    | 0.5887     |   1.5 |  0.06
Modify  | 12.747     | 13.605     | 14.29      |  11.9 |  1.39
Other   |            | 10.02      |            |       |  1.02

Nlocal:    127.042 ave 164 max 80 min
Histogram: 1 2 1 1 3 5 5 2 1 3
Nghost:    3410.58 ave 3495 max 3356 min
Histogram: 2 6 2 5 2 1 2 2 1 1
Neighs:    7627.75 ave 11006 max 3365 min
Histogram: 2 3 1 3 1 3 3 1 1 6

Total # of neighbors = 183066
Ave neighs/atom = 60.0413
Ave special neighs/atom = 3.77829
Neighbor list builds = 4713
Dangerous builds = 0
Total wall time: 0:31:07
