LAMMPS (30 Mar 2018)
Reading data file ...
  orthogonal box = (0 0 0) to (46.7237 46.7237 46.7237)
  2 by 2 by 4 MPI processor grid
  reading atoms ...
  1731 atoms
  scanning bonds ...
  5 = max bonds/atom
  scanning angles ...
  10 = max angles/atom
  scanning dihedrals ...
  32 = max dihedrals/atom
  scanning impropers ...
  3 = max impropers/atom
  reading bonds ...
  2064 bonds
  reading angles ...
  3696 angles
  reading dihedrals ...
  6240 dihedrals
  reading impropers ...
  1008 impropers
Finding 1-2 1-3 1-4 neighbors ...
  special bond factors lj:   0          0          0         
  special bond factors coul: 0          0          0         
  5 = max # of 1-2 neighbors
  8 = max # of 1-3 neighbors
  20 = max # of 1-4 neighbors
  19 = max # of special neighbors
Finding 1-2 1-3 1-4 neighbors ...
  special bond factors lj:   0          0          1         
  special bond factors coul: 1          1          1         
  5 = max # of 1-2 neighbors
  8 = max # of 1-3 neighbors
  19 = max # of special neighbors
WARNING: Using 'neigh_modify every 1 delay 0 check yes' setting during minimization (../min.cpp:168)
Neighbor list info ...
  update every 1 steps, delay 0 steps, check yes
  max neighbors/atom: 2000, page size: 100000
  master list distance cutoff = 16
  ghost atom cutoff = 16
  binsize = 8, bins = 6 6 6
  3 neighbor lists, perpetual/occasional/extra = 3 0 0
  (1) pair buck6d/coul/gauss/dsf, perpetual, skip from (3)
      attributes: half, newton on
      pair build: skip
      stencil: none
      bin: none
  (2) pair lj/cut, perpetual, skip from (3)
      attributes: half, newton on
      pair build: skip
      stencil: none
      bin: none
  (3) neighbor class addition, perpetual
      attributes: half, newton on
      pair build: half/bin/newton
      stencil: half/bin/3d/newton
      bin: standard
Setting up cg style minimization ...
  Unit style    : real
  Current step  : 0
WARNING: Inconsistent image flags (../domain.cpp:786)
Per MPI rank memory allocation (min/avg/max) = 22.89 | 23.35 | 23.79 Mbytes
Step Temp E_pair E_mol TotEng Press 
       0            0   -11520.989    6482.8914   -5038.0975    6288.2089 
     504            0   -11541.624    3737.6832   -7803.9408   -461.97099 
Loop time of 2.69322 on 16 procs for 504 steps with 1731 atoms

99.8% CPU use with 16 MPI tasks x no OpenMP threads

Minimization stats:
  Stopping criterion = max force evaluations
  Energy initial, next-to-last, final = 
        -5038.09748746     -7803.88665274      -7803.9408104
  Force two-norm initial, final = 2576.98 10.789
  Force max component initial, final = 151.966 1.34847
  Final line search alpha, max atom move = 0.012655 0.0170649
  Iterations, force evaluations = 504 1000

MPI task timing breakdown:
Section |  min time  |  avg time  |  max time  |%varavg| %total
---------------------------------------------------------------
Pair    | 1.171      | 1.5647     | 1.9343     |  17.4 | 58.10
Bond    | 0.31794    | 0.36187    | 0.40184    |   4.2 | 13.44
Neigh   | 0.015625   | 0.015697   | 0.015767   |   0.0 |  0.58
Comm    | 0.35063    | 0.70986    | 1.0694     |  24.5 | 26.36
Output  | 0          | 0          | 0          |   0.0 |  0.00
Modify  | 0          | 0          | 0          |   0.0 |  0.00
Other   |            | 0.04113    |            |       |  1.53

Nlocal:    108.188 ave 127 max 88 min
Histogram: 1 1 2 0 4 3 2 0 1 2
Nghost:    2183.81 ave 2203 max 2165 min
Histogram: 2 1 0 2 2 3 2 2 1 1
Neighs:    11439.7 ave 15805 max 7330 min
Histogram: 2 2 0 4 0 2 1 3 0 2

Total # of neighbors = 183035
Ave neighs/atom = 105.739
Ave special neighs/atom = 6.65511
Neighbor list builds = 14
Dangerous builds = 0
Neighbor list info ...
  update every 1 steps, delay 10 steps, check yes
  max neighbors/atom: 2000, page size: 100000
  master list distance cutoff = 16
  ghost atom cutoff = 16
  binsize = 8, bins = 6 6 6
  3 neighbor lists, perpetual/occasional/extra = 3 0 0
  (1) pair buck6d/coul/gauss/dsf, perpetual, skip from (3)
      attributes: half, newton on
      pair build: skip
      stencil: none
      bin: none
  (2) pair lj/cut, perpetual, skip from (3)
      attributes: half, newton on
      pair build: skip
      stencil: none
      bin: none
  (3) neighbor class addition, perpetual
      attributes: half, newton on
      pair build: half/bin/newton
      stencil: half/bin/3d/newton
      bin: standard
Setting up Verlet run ...
  Unit style    : real
  Current step  : 504
  Time step     : 1
WARNING: Inconsistent image flags (../domain.cpp:786)
Per MPI rank memory allocation (min/avg/max) = 22.54 | 22.61 | 22.66 Mbytes
Step Temp PotEng TotEng Press Volume Lx Ly Lz 
     504          130   -7803.9408   -7133.5566   -161.53986     102002.7      46.7237      46.7237      46.7237 
    1000      116.535   -7217.8379     -6616.89   -777.30211     102002.7      46.7237      46.7237      46.7237 
    2000    125.22252   -7079.0455   -6433.2979   -735.79071     102002.7      46.7237      46.7237      46.7237 
    3000    125.43331   -7109.6541   -6462.8195   -984.25988     102002.7      46.7237      46.7237      46.7237 
    4000    129.18272   -7129.4786    -6463.309   -592.97786     102002.7      46.7237      46.7237      46.7237 
    5000    131.31329   -7116.3336   -6439.1771   -867.80655     102002.7      46.7237      46.7237      46.7237 
    6000    128.07149   -7151.0635   -6490.6243   -638.58703     102002.7      46.7237      46.7237      46.7237 
    7000    128.77203   -7137.0824   -6473.0306   -975.86833     102002.7      46.7237      46.7237      46.7237 
    8000    130.96165   -7129.2521   -6453.9089   -965.84746     102002.7      46.7237      46.7237      46.7237 
    9000    129.83067   -7132.1954   -6462.6845   -807.16479     102002.7      46.7237      46.7237      46.7237 
   10000    128.19919    -7127.696   -6466.5982    -1113.621     102002.7      46.7237      46.7237      46.7237 
   11000    129.24817   -7098.7462   -6432.2391   -1125.5403     102002.7      46.7237      46.7237      46.7237 
   12000    129.72128   -7129.8737   -6460.9268   -932.30796     102002.7      46.7237      46.7237      46.7237 
   13000    129.79202   -7132.0248   -6462.7131   -1369.9662     102002.7      46.7237      46.7237      46.7237 
   14000    130.37331    -7110.571   -6438.2617    -1023.564     102002.7      46.7237      46.7237      46.7237 
   15000    133.61563   -7137.0514   -6448.0221   -1090.1773     102002.7      46.7237      46.7237      46.7237 
   16000    130.62299   -7125.7726   -6452.1758   -617.37697     102002.7      46.7237      46.7237      46.7237 
   17000    133.72306   -7116.8697   -6427.2864   -713.28754     102002.7      46.7237      46.7237      46.7237 
   18000    126.71636   -7118.8133   -6465.3622   -766.68463     102002.7      46.7237      46.7237      46.7237 
   19000    129.17657   -7131.1899    -6465.052   -783.54826     102002.7      46.7237      46.7237      46.7237 
   20000    126.30631   -7145.7664   -6494.4298   -952.33784     102002.7      46.7237      46.7237      46.7237 
   21000    133.82702   -7136.7451   -6446.6258      -944.22     102002.7      46.7237      46.7237      46.7237 
   22000    126.41955   -7130.4183   -6478.4978   -954.74985     102002.7      46.7237      46.7237      46.7237 
   23000    130.32104   -7107.6883   -6435.6486   -726.79143     102002.7      46.7237      46.7237      46.7237 
   24000    126.55877   -7122.5774   -6469.9389   -712.67204     102002.7      46.7237      46.7237      46.7237 
   25000    129.69889   -7128.1225    -6459.291   -633.93774     102002.7      46.7237      46.7237      46.7237 
   26000    136.08577   -7130.4073     -6428.64   -632.03833     102002.7      46.7237      46.7237      46.7237 
   27000    127.44043   -7121.9052   -6464.7202   -605.15922     102002.7      46.7237      46.7237      46.7237 
   28000    131.65187   -7124.8369   -6445.9343   -277.73761     102002.7      46.7237      46.7237      46.7237 
   29000    131.66415   -7143.7323   -6464.7664   -850.99905     102002.7      46.7237      46.7237      46.7237 
   30000    128.07305   -7153.1389   -6492.6916   -488.36291     102002.7      46.7237      46.7237      46.7237 
   31000    130.08955   -7118.7484   -6447.9024   -808.19354     102002.7      46.7237      46.7237      46.7237 
   32000    129.83899   -7114.7282   -6445.1744   -693.17732     102002.7      46.7237      46.7237      46.7237 
   33000    132.44608    -7120.654   -6437.6558   -809.35543     102002.7      46.7237      46.7237      46.7237 
   34000    127.71229   -7116.3486   -6457.7617   -842.67045     102002.7      46.7237      46.7237      46.7237 
   35000    130.52276   -7121.9548   -6448.8749   -1054.7851     102002.7      46.7237      46.7237      46.7237 
   36000    126.76901   -7137.1178   -6483.3952   -1150.2142     102002.7      46.7237      46.7237      46.7237 
   37000    133.22361    -7116.599   -6429.5913   -1189.5132     102002.7      46.7237      46.7237      46.7237 
   38000    127.56013   -7118.2429   -6460.4407   -898.47668     102002.7      46.7237      46.7237      46.7237 
   39000    133.23281   -7124.7889   -6437.7338   -820.78719     102002.7      46.7237      46.7237      46.7237 
   40000     126.5709   -7122.2376   -6469.5366   -807.02286     102002.7      46.7237      46.7237      46.7237 
   41000     129.3426   -7101.7244   -6434.7303   -768.36714     102002.7      46.7237      46.7237      46.7237 
   42000     132.5709   -7141.5224   -6457.8806   -1004.8562     102002.7      46.7237      46.7237      46.7237 
   43000    131.15616   -7100.4175   -6424.0712   -920.75991     102002.7      46.7237      46.7237      46.7237 
   44000    131.69963   -7120.8522   -6441.7034   -993.58246     102002.7      46.7237      46.7237      46.7237 
   45000    131.28729   -7137.9107   -6460.8883   -560.86629     102002.7      46.7237      46.7237      46.7237 
   46000     129.5389   -7119.9654    -6451.959   -860.67109     102002.7      46.7237      46.7237      46.7237 
   47000    131.99963   -7130.7583   -6450.0625   -746.88248     102002.7      46.7237      46.7237      46.7237 
   48000    130.47906   -7100.1615   -6427.3069   -651.31141     102002.7      46.7237      46.7237      46.7237 
   49000    126.94269   -7114.2298   -6459.6115   -840.75571     102002.7      46.7237      46.7237      46.7237 
   50000    126.62812   -7116.6405   -6463.6444   -674.89057     102002.7      46.7237      46.7237      46.7237 
   51000     135.9444   -7110.0797   -6409.0414   -565.14062     102002.7      46.7237      46.7237      46.7237 
   52000    126.76996   -7116.2219   -6462.4944   -873.06899     102002.7      46.7237      46.7237      46.7237 
   53000    129.21464   -7142.3603   -6476.0261   -733.44341     102002.7      46.7237      46.7237      46.7237 
   54000    124.10086   -7130.0997   -6490.1362   -813.08546     102002.7      46.7237      46.7237      46.7237 
   55000    128.98496   -7137.1254   -6471.9755   -388.00111     102002.7      46.7237      46.7237      46.7237 
   56000    133.27086   -7107.1411   -6419.8897   -694.08589     102002.7      46.7237      46.7237      46.7237 
   57000    130.40753   -7128.5756   -6456.0898   -386.24465     102002.7      46.7237      46.7237      46.7237 
   58000    132.77958   -7111.0522   -6426.3343   -481.17215     102002.7      46.7237      46.7237      46.7237 
   59000    133.05635   -7114.6373   -6428.4922   -683.87165     102002.7      46.7237      46.7237      46.7237 
   60000    127.49487   -7124.6553   -6467.1896   -512.12064     102002.7      46.7237      46.7237      46.7237 
   61000    128.34673   -7144.6083   -6482.7497   -942.64729     102002.7      46.7237      46.7237      46.7237 
   62000    130.96433   -7112.5864   -6437.2293   -465.97053     102002.7      46.7237      46.7237      46.7237 
   63000    128.15397   -7128.0009   -6467.1364   -1185.3649     102002.7      46.7237      46.7237      46.7237 
   64000    132.81729   -7114.9517   -6430.0393   -699.38446     102002.7      46.7237      46.7237      46.7237 
   65000    125.21415   -7112.6445     -6466.94   -564.64068     102002.7      46.7237      46.7237      46.7237 
   66000    127.25798   -7140.2938   -6484.0497   -834.32217     102002.7      46.7237      46.7237      46.7237 
   67000    129.05669   -7111.8323   -6446.3126   -617.49978     102002.7      46.7237      46.7237      46.7237 
   68000    129.82972   -7133.6407   -6464.1346   -753.34814     102002.7      46.7237      46.7237      46.7237 
   69000    128.59998   -7123.9213   -6460.7568   -478.47797     102002.7      46.7237      46.7237      46.7237 
   70000    131.38133   -7123.4874   -6445.9799   -801.12407     102002.7      46.7237      46.7237      46.7237 
   71000    130.25407   -7129.7047   -6458.0103   -673.13161     102002.7      46.7237      46.7237      46.7237 
   72000    133.85674   -7114.8434   -6424.5708   -869.64507     102002.7      46.7237      46.7237      46.7237 
   73000    131.09311   -7107.8429   -6431.8218   -628.45361     102002.7      46.7237      46.7237      46.7237 
   74000    130.50616   -7128.2347   -6455.2403   -949.52776     102002.7      46.7237      46.7237      46.7237 
   75000    133.13621   -7123.9931   -6437.4361   -636.62388     102002.7      46.7237      46.7237      46.7237 
   76000     129.3932   -7114.7262   -6447.4712   -636.50316     102002.7      46.7237      46.7237      46.7237 
   77000    129.26044   -7139.2648   -6472.6944   -673.37121     102002.7      46.7237      46.7237      46.7237 
   78000    129.96668   -7156.1838   -6485.9715   -411.88652     102002.7      46.7237      46.7237      46.7237 
   79000    127.77802   -7103.7414   -6444.8155   -538.31919     102002.7      46.7237      46.7237      46.7237 
   80000    131.53145    -7160.583   -6482.3014   -669.69489     102002.7      46.7237      46.7237      46.7237 
   81000    127.49437   -7101.2604   -6443.7973   -799.48026     102002.7      46.7237      46.7237      46.7237 
   82000    124.92218   -7151.7789     -6507.58   -694.74185     102002.7      46.7237      46.7237      46.7237 
   83000    128.47591   -7107.6468   -6445.1221   -745.76592     102002.7      46.7237      46.7237      46.7237 
   84000    128.11431    -7131.982    -6471.322   -842.25727     102002.7      46.7237      46.7237      46.7237 
   85000    131.73943    -7107.739   -6428.3849   -1156.8043     102002.7      46.7237      46.7237      46.7237 
   86000    130.93359   -7129.8414   -6454.6429   -861.00963     102002.7      46.7237      46.7237      46.7237 
   87000     126.2346   -7124.6306   -6473.6638   -753.45922     102002.7      46.7237      46.7237      46.7237 
   88000    129.70997   -7120.7229   -6451.8343   -768.53893     102002.7      46.7237      46.7237      46.7237 
   89000    129.63475   -7126.5326   -6458.0319   -562.97649     102002.7      46.7237      46.7237      46.7237 
   90000    127.24636   -7123.3367   -6467.1525   -828.88536     102002.7      46.7237      46.7237      46.7237 
   91000    132.12652   -7119.9409   -6438.5907   -649.87235     102002.7      46.7237      46.7237      46.7237 
   92000    125.31631   -7147.5851   -6501.3537   -345.36412     102002.7      46.7237      46.7237      46.7237 
   93000    130.60039   -7122.5125   -6449.0323   -692.25086     102002.7      46.7237      46.7237      46.7237 
   94000    131.22958   -7142.7127   -6465.9878   -766.86824     102002.7      46.7237      46.7237      46.7237 
   95000    129.49655   -7107.1866   -6439.3987   -719.44664     102002.7      46.7237      46.7237      46.7237 
   96000    132.17491   -7114.2873   -6432.6875   -724.59586     102002.7      46.7237      46.7237      46.7237 
   97000    128.98027   -7155.8067    -6490.681   -618.31698     102002.7      46.7237      46.7237      46.7237 
   98000    131.66008   -7116.6888   -6437.7439   -316.14923     102002.7      46.7237      46.7237      46.7237 
   99000    129.33272   -7101.7013   -6434.7581   -700.19501     102002.7      46.7237      46.7237      46.7237 
  100000    129.06163   -7109.3838   -6443.8386   -1063.8152     102002.7      46.7237      46.7237      46.7237 
  101000    130.87074   -7109.6153   -6434.7409   -758.17287     102002.7      46.7237      46.7237      46.7237 
  102000    128.49031   -7133.0926   -6470.4935   -1082.7023     102002.7      46.7237      46.7237      46.7237 
  103000    130.92525   -7115.0196   -6439.8641   -676.34436     102002.7      46.7237      46.7237      46.7237 
  104000    129.66161   -7113.9984   -6445.3592    -810.0381     102002.7      46.7237      46.7237      46.7237 
  105000    126.51028   -7119.0842   -6466.6958   -622.18914     102002.7      46.7237      46.7237      46.7237 
  106000    130.49434   -7119.6828   -6446.7494   -886.10611     102002.7      46.7237      46.7237      46.7237 
  107000    128.23465   -7104.3944   -6443.1138   -725.23464     102002.7      46.7237      46.7237      46.7237 
  108000    124.46737   -7129.0398   -6487.1863   -767.32176     102002.7      46.7237      46.7237      46.7237 
  109000    130.00342   -7136.8542   -6466.4524   -767.27014     102002.7      46.7237      46.7237      46.7237 
  110000    128.97466   -7121.9783   -6456.8815   -641.60005     102002.7      46.7237      46.7237      46.7237 
  111000    128.68454   -7135.6947   -6472.0941   -560.51413     102002.7      46.7237      46.7237      46.7237 
  112000    133.83758   -7112.2863   -6422.1125   -574.06127     102002.7      46.7237      46.7237      46.7237 
  113000    129.93775   -7137.8246   -6467.7614   -797.99206     102002.7      46.7237      46.7237      46.7237 
  114000    129.25412    -7115.868   -6449.3301   -506.69064     102002.7      46.7237      46.7237      46.7237 
  115000    130.33977   -7130.3241   -6458.1878   -741.92985     102002.7      46.7237      46.7237      46.7237 
  116000    127.50119   -7122.4881   -6464.9897   -858.07828     102002.7      46.7237      46.7237      46.7237 
  117000     129.6174   -7095.3053   -6426.8941   -848.58358     102002.7      46.7237      46.7237      46.7237 
  118000    128.51108   -7120.1082   -6457.4021   -1030.8583     102002.7      46.7237      46.7237      46.7237 
  119000    134.40278   -7116.0286   -6422.9402   -850.80064     102002.7      46.7237      46.7237      46.7237 
  120000    129.80083   -7132.1711    -6462.814    -689.6535     102002.7      46.7237      46.7237      46.7237 
  121000    126.09786   -7125.4573   -6475.1957   -1077.8979     102002.7      46.7237      46.7237      46.7237 
  122000      129.166   -7109.6271   -6443.5436   -999.62947     102002.7      46.7237      46.7237      46.7237 
  123000    128.21585   -7136.3502   -6475.1665    -757.1798     102002.7      46.7237      46.7237      46.7237 
  124000    134.02256   -7118.2704   -6427.1426   -800.75879     102002.7      46.7237      46.7237      46.7237 
  125000    130.05055   -7141.7949     -6471.15    -559.4218     102002.7      46.7237      46.7237      46.7237 
  126000    130.16784   -7105.3749   -6434.1252   -1081.2361     102002.7      46.7237      46.7237      46.7237 
  127000    129.53981   -7131.5774   -6463.5663    -735.1568     102002.7      46.7237      46.7237      46.7237 
  128000    130.45549    -7094.961   -6422.2279   -946.44764     102002.7      46.7237      46.7237      46.7237 
  129000    126.61046   -7119.6041   -6466.6991   -977.83685     102002.7      46.7237      46.7237      46.7237 
  130000    131.11834   -7124.6723   -6448.5211   -937.70252     102002.7      46.7237      46.7237      46.7237 
  131000    134.85851    -7133.115   -6437.6764    -771.3221     102002.7      46.7237      46.7237      46.7237 
  132000    129.31649   -7135.5619   -6468.7025   -682.21593     102002.7      46.7237      46.7237      46.7237 
  133000    129.44156   -7133.4413   -6465.9369   -654.40155     102002.7      46.7237      46.7237      46.7237 
  134000    132.59081   -7137.9435   -6454.1991   -490.61625     102002.7      46.7237      46.7237      46.7237 
  135000    133.34799   -7128.2532   -6440.6041    -816.7682     102002.7      46.7237      46.7237      46.7237 
  136000    129.96707   -7131.8276   -6461.6132     -665.082     102002.7      46.7237      46.7237      46.7237 
  137000    133.63235   -7127.4519   -6438.3364   -616.78992     102002.7      46.7237      46.7237      46.7237 
  138000    129.49194   -7127.3394   -6459.5751   -1124.9843     102002.7      46.7237      46.7237      46.7237 
  139000     130.6768   -7131.2647   -6457.3904   -631.15649     102002.7      46.7237      46.7237      46.7237 
  140000    130.19281   -7154.8335    -6483.455   -909.66931     102002.7      46.7237      46.7237      46.7237 
  141000    129.92141   -7112.9611   -6442.9822   -574.12358     102002.7      46.7237      46.7237      46.7237 
  142000     131.5558   -7141.5705   -6463.1633   -810.54757     102002.7      46.7237      46.7237      46.7237 
  143000     133.6709      -7116.6   -6427.2857   -589.35925     102002.7      46.7237      46.7237      46.7237 
  144000    134.96863   -7120.3484    -6424.342   -916.21631     102002.7      46.7237      46.7237      46.7237 
  145000      129.094   -7114.2003   -6448.4882   -740.65088     102002.7      46.7237      46.7237      46.7237 
  146000    125.92711   -7143.4305   -6494.0495   -778.52019     102002.7      46.7237      46.7237      46.7237 
  147000    128.21135   -7110.7094    -6449.549    -667.3727     102002.7      46.7237      46.7237      46.7237 
  148000    127.17853   -7144.9831   -6489.1487   -674.10081     102002.7      46.7237      46.7237      46.7237 
  149000    129.02166   -7109.4575   -6444.1184   -1103.8416     102002.7      46.7237      46.7237      46.7237 
  150000    125.81215   -7105.8727   -6457.0845   -646.32312     102002.7      46.7237      46.7237      46.7237 
  151000    130.38383   -7123.6769   -6451.3134   -735.88784     102002.7      46.7237      46.7237      46.7237 
  152000    123.92861   -7134.7858   -6495.7105   -1055.6308     102002.7      46.7237      46.7237      46.7237 
  153000    131.45738   -7127.3401   -6449.4405   -664.80735     102002.7      46.7237      46.7237      46.7237 
  154000    128.64062   -7143.9971    -6480.623   -598.47331     102002.7      46.7237      46.7237      46.7237 
  155000    134.61449   -7134.1647   -6439.9846   -720.24436     102002.7      46.7237      46.7237      46.7237 
  156000    127.56534    -7140.195   -6482.3659   -693.81324     102002.7      46.7237      46.7237      46.7237 
  157000    130.54955   -7130.1211    -6456.903    -740.1764     102002.7      46.7237      46.7237      46.7237 
  158000     131.4529    -7125.025   -6447.1485   -695.00678     102002.7      46.7237      46.7237      46.7237 
  159000    129.04684   -7121.8077   -6456.3387   -564.30031     102002.7      46.7237      46.7237      46.7237 
  160000    129.30176   -7144.9167   -6478.1332   -851.90251     102002.7      46.7237      46.7237      46.7237 
  161000    129.23506   -7129.7956    -6463.356   -944.65537     102002.7      46.7237      46.7237      46.7237 
  162000    127.97605    -7121.201   -6461.2539   -802.16846     102002.7      46.7237      46.7237      46.7237 
  163000    125.17115   -7098.6576   -6453.1748    -1058.728     102002.7      46.7237      46.7237      46.7237 
  164000    126.40833    -7136.489   -6484.6263   -790.33842     102002.7      46.7237      46.7237      46.7237 
  165000    126.51331   -7119.2885   -6466.8845   -872.77872     102002.7      46.7237      46.7237      46.7237 
  166000    136.99737   -7125.0574   -6418.5892   -885.77832     102002.7      46.7237      46.7237      46.7237 
  167000    124.91384   -7115.1988   -6471.0429   -772.98225     102002.7      46.7237      46.7237      46.7237 
  168000    125.30033   -7106.2862   -6460.1373   -957.51519     102002.7      46.7237      46.7237      46.7237 
  169000    132.99609   -7124.1049   -6438.2704   -768.42095     102002.7      46.7237      46.7237      46.7237 
  170000    127.80534   -7119.2577    -6460.191   -882.61172     102002.7      46.7237      46.7237      46.7237 
  171000    127.66522   -7105.7952    -6447.451   -1044.9506     102002.7      46.7237      46.7237      46.7237 
  172000    133.40672   -7150.0725   -6462.1205   -731.45369     102002.7      46.7237      46.7237      46.7237 
  173000    131.29484   -7128.8118   -6451.7504   -962.84291     102002.7      46.7237      46.7237      46.7237 
  174000     129.9938   -7129.0165   -6458.6643   -913.94732     102002.7      46.7237      46.7237      46.7237 
  175000    129.62311   -7120.7876    -6452.347   -1061.6146     102002.7      46.7237      46.7237      46.7237 
  176000     125.2596   -7122.2813   -6476.3424   -883.95746     102002.7      46.7237      46.7237      46.7237 
  177000    129.65564   -7136.0925   -6467.4841   -956.70891     102002.7      46.7237      46.7237      46.7237 
  178000    130.79871   -7121.1392   -6446.6362    -1134.376     102002.7      46.7237      46.7237      46.7237 
  179000    128.58516   -7120.6653   -6457.5772   -630.59788     102002.7      46.7237      46.7237      46.7237 
  180000     128.6947   -7109.8343   -6446.1813   -856.45535     102002.7      46.7237      46.7237      46.7237 
  181000    125.74379   -7129.0661   -6480.6303   -874.21155     102002.7      46.7237      46.7237      46.7237 
  182000    127.58159   -7134.0206   -6476.1076   -839.15721     102002.7      46.7237      46.7237      46.7237 
  183000    129.66938   -7116.6207   -6447.9414   -989.62745     102002.7      46.7237      46.7237      46.7237 
  184000    129.50137   -7145.2945   -6477.4817   -903.56753     102002.7      46.7237      46.7237      46.7237 
  185000    130.35968     -7123.07    -6450.831   -776.02815     102002.7      46.7237      46.7237      46.7237 
  186000     129.9186    -7128.715   -6458.7506   -468.72617     102002.7      46.7237      46.7237      46.7237 
  187000    130.63888   -7124.8681   -6451.1894   -945.60732     102002.7      46.7237      46.7237      46.7237 
  188000    127.89516   -7144.2907   -6484.7608   -664.58371     102002.7      46.7237      46.7237      46.7237 
  189000    129.80597   -7135.3439   -6465.9602   -662.34599     102002.7      46.7237      46.7237      46.7237 
  190000    129.98867   -7134.9162   -6464.5905   -512.27031     102002.7      46.7237      46.7237      46.7237 
  191000    126.40842   -7137.5054   -6485.6423   -890.17105     102002.7      46.7237      46.7237      46.7237 
  192000    130.40681   -7118.7617   -6446.2797   -586.74767     102002.7      46.7237      46.7237      46.7237 
  193000    128.22841   -7122.8312   -6461.5828   -867.19129     102002.7      46.7237      46.7237      46.7237 
  194000    131.57734   -7144.0212    -6465.503    -784.3425     102002.7      46.7237      46.7237      46.7237 
  195000    131.21539   -7104.6781   -6428.0263   -957.15229     102002.7      46.7237      46.7237      46.7237 
  196000     127.6461   -7125.9833   -6467.7377   -707.75494     102002.7      46.7237      46.7237      46.7237 
  197000     135.0083   -7122.3044   -6426.0934   -976.34228     102002.7      46.7237      46.7237      46.7237 
  198000    129.38858   -7138.1233   -6470.8921   -784.64982     102002.7      46.7237      46.7237      46.7237 
  199000    130.39973   -7129.4998   -6457.0543   -974.70797     102002.7      46.7237      46.7237      46.7237 
  200000    128.47396   -7135.6324   -6473.1177   -1079.3492     102002.7      46.7237      46.7237      46.7237 
  201000    131.89952   -7113.7501   -6433.5705   -1063.9037     102002.7      46.7237      46.7237      46.7237 
  202000    128.09702    -7113.481   -6452.9101   -1160.1646     102002.7      46.7237      46.7237      46.7237 
  203000    131.45536   -7120.3288   -6442.4396   -1033.0387     102002.7      46.7237      46.7237      46.7237 
  204000    127.62041   -7144.2607   -6486.1476   -655.87883     102002.7      46.7237      46.7237      46.7237 
  205000    131.04684   -7135.3913   -6459.6088   -740.80314     102002.7      46.7237      46.7237      46.7237 
  206000    135.71861   -7112.3125   -6412.4386   -768.90843     102002.7      46.7237      46.7237      46.7237 
  207000    127.66559    -7127.691    -6469.345   -724.38584     102002.7      46.7237      46.7237      46.7237 
  208000    128.97173   -7137.4236    -6472.342    -653.9405     102002.7      46.7237      46.7237      46.7237 
  209000    128.70935   -7137.6319   -6473.9034   -520.67853     102002.7      46.7237      46.7237      46.7237 
  210000    131.14111   -7118.5031   -6442.2344   -742.14985     102002.7      46.7237      46.7237      46.7237 
  211000    130.13876   -7114.8704   -6443.7707   -203.14705     102002.7      46.7237      46.7237      46.7237 
  212000    126.82636   -7125.8125   -6471.7942   -744.42569     102002.7      46.7237      46.7237      46.7237 
  213000    131.89483   -7119.1433   -6438.9879   -621.82191     102002.7      46.7237      46.7237      46.7237 
  214000    132.45753    -7136.209   -6453.1518   -760.52984     102002.7      46.7237      46.7237      46.7237 
  215000    128.70602   -7121.5424    -6457.831   -567.80779     102002.7      46.7237      46.7237      46.7237 
  216000    131.94483    -7117.333   -6436.9197   -998.93205     102002.7      46.7237      46.7237      46.7237 
  217000    127.16929   -7127.4976   -6471.7109   -916.85742     102002.7      46.7237      46.7237      46.7237 
  218000    129.71009   -7122.6747   -6453.7855    -711.3772     102002.7      46.7237      46.7237      46.7237 
  219000    133.77436   -7108.0657   -6418.2179   -865.35401     102002.7      46.7237      46.7237      46.7237 
  220000    128.67692    -7135.248   -6471.6867   -495.49497     102002.7      46.7237      46.7237      46.7237 
  221000     131.4866   -7132.4441   -6454.3938   -944.69697     102002.7      46.7237      46.7237      46.7237 
  222000    128.98618   -7091.1067   -6425.9506   -763.52985     102002.7      46.7237      46.7237      46.7237 
  223000    131.64727   -7120.2878    -6441.409   -611.07276     102002.7      46.7237      46.7237      46.7237 
  224000    128.65435   -7125.6139    -6462.169   -787.45254     102002.7      46.7237      46.7237      46.7237 
  225000      129.962   -7115.3127   -6445.1245   -439.20024     102002.7      46.7237      46.7237      46.7237 
  226000    131.42105   -7127.5513    -6449.839   -582.15855     102002.7      46.7237      46.7237      46.7237 
  227000    128.82065   -7115.5024   -6451.1999   -533.53601     102002.7      46.7237      46.7237      46.7237 
  228000    130.90196   -7131.9913   -6456.9559   -501.43951     102002.7      46.7237      46.7237      46.7237 
  229000    130.02814   -7128.5819   -6458.0527   -393.24122     102002.7      46.7237      46.7237      46.7237 
  230000    132.89433    -7113.535   -6428.2253   -804.77567     102002.7      46.7237      46.7237      46.7237 
  231000    129.71664   -7133.0133   -6464.0903    -612.8577     102002.7      46.7237      46.7237      46.7237 
  232000    134.31128   -7130.4836    -6437.867   -808.03675     102002.7      46.7237      46.7237      46.7237 
  233000    128.16691   -7123.3024   -6462.3711   -671.75396     102002.7      46.7237      46.7237      46.7237 
  234000    132.42638   -7103.2869   -6420.3903    -734.7559     102002.7      46.7237      46.7237      46.7237 
  235000    133.58745   -7131.5747   -6442.6907   -598.59777     102002.7      46.7237      46.7237      46.7237 
  236000    126.95642   -7118.5942   -6463.9052   -747.27976     102002.7      46.7237      46.7237      46.7237 
  237000    129.27581   -7105.5898   -6438.9401   -728.29142     102002.7      46.7237      46.7237      46.7237 
  238000    128.05849   -7143.7839   -6483.4117   -528.41524     102002.7      46.7237      46.7237      46.7237 
  239000    129.95461   -7126.0204   -6455.8703   -727.92895     102002.7      46.7237      46.7237      46.7237 
  240000     124.4431   -7111.5858   -6469.8575   -880.09316     102002.7      46.7237      46.7237      46.7237 
  241000     132.1626   -7099.3885   -6417.8522   -805.49311     102002.7      46.7237      46.7237      46.7237 
  242000     129.5754   -7097.7085   -6429.5139   -692.75901     102002.7      46.7237      46.7237      46.7237 
  243000    128.54001   -7124.4395   -6461.5842   -896.27903     102002.7      46.7237      46.7237      46.7237 
  244000     129.8936   -7123.7666   -6453.9311   -408.10158     102002.7      46.7237      46.7237      46.7237 
  245000    127.85321   -7136.2446    -6476.931   -661.62086     102002.7      46.7237      46.7237      46.7237 
  246000    133.14888   -7126.0141   -6439.3918   -422.57359     102002.7      46.7237      46.7237      46.7237 
  247000     133.2264   -7120.8569   -6433.8348   -727.15299     102002.7      46.7237      46.7237      46.7237 
  248000     127.8127   -7133.0279   -6473.9232   -945.32948     102002.7      46.7237      46.7237      46.7237 
  249000    122.64487   -7124.4476   -6491.9924   -1118.1025     102002.7      46.7237      46.7237      46.7237 
  250000    130.40207   -7112.5262   -6440.0687    -745.1208     102002.7      46.7237      46.7237      46.7237 
  251000     127.4234   -7128.2369   -6471.1397   -1004.4444     102002.7      46.7237      46.7237      46.7237 
  252000    125.97625   -7122.6757   -6473.0412   -423.89697     102002.7      46.7237      46.7237      46.7237 
  253000    127.40596   -7117.3185   -6460.3112   -631.62981     102002.7      46.7237      46.7237      46.7237 
  254000    130.56346    -7118.439   -6445.1492   -1032.3544     102002.7      46.7237      46.7237      46.7237 
  255000    125.67115   -7099.1167   -6451.0556   -750.54802     102002.7      46.7237      46.7237      46.7237 
  256000    128.02322   -7112.4118   -6452.2215   -612.71555     102002.7      46.7237      46.7237      46.7237 
  257000    130.25549   -7119.3585   -6447.6569   -698.18802     102002.7      46.7237      46.7237      46.7237 
  258000    124.65628   -7132.2745   -6489.4468   -691.88028     102002.7      46.7237      46.7237      46.7237 
  259000    135.43442   -7138.0997   -6439.6914   -1060.0272     102002.7      46.7237      46.7237      46.7237 
  260000    129.45878   -7127.6074   -6460.0142   -688.82833     102002.7      46.7237      46.7237      46.7237 
  261000     131.3611   -7103.0232   -6425.6201   -855.61618     102002.7      46.7237      46.7237      46.7237 
  262000    130.13783   -7131.0155   -6459.9206   -629.45483     102002.7      46.7237      46.7237      46.7237 
  263000    131.35503   -7130.0472   -6452.6754    -679.5857     102002.7      46.7237      46.7237      46.7237 
  264000      129.657   -7133.8948   -6465.2794   -612.32896     102002.7      46.7237      46.7237      46.7237 
  265000    127.64304   -7115.3325   -6457.1027   -937.19978     102002.7      46.7237      46.7237      46.7237 
  266000    127.90841   -7122.2666   -6462.6684   -903.93302     102002.7      46.7237      46.7237      46.7237 
  267000    128.48136   -7120.1012   -6457.5484   -810.97613     102002.7      46.7237      46.7237      46.7237 
  268000    131.89329   -7120.7838   -6440.6363   -915.57655     102002.7      46.7237      46.7237      46.7237 
  269000     129.5016   -7103.0045   -6435.1905   -784.29329     102002.7      46.7237      46.7237      46.7237 
  270000    126.54038   -7124.5925   -6472.0489   -852.66813     102002.7      46.7237      46.7237      46.7237 
  271000    131.53837    -7137.661   -6459.3437   -657.74939     102002.7      46.7237      46.7237      46.7237 
  272000    127.69032    -7119.714   -6461.2404    -612.1762     102002.7      46.7237      46.7237      46.7237 
  273000    127.67605   -7134.8031    -6476.403   -347.74536     102002.7      46.7237      46.7237      46.7237 
  274000    130.17879   -7112.2779   -6440.9717    -596.3232     102002.7      46.7237      46.7237      46.7237 
  275000    134.88286   -7104.7762   -6409.2121   -657.96022     102002.7      46.7237      46.7237      46.7237 
  276000    128.45944   -7119.2037   -6456.7638   -546.78796     102002.7      46.7237      46.7237      46.7237 
  277000    133.88054   -7133.0789   -6442.6835   -631.27394     102002.7      46.7237      46.7237      46.7237 
  278000    126.96595   -7119.4461    -6464.708   -621.92497     102002.7      46.7237      46.7237      46.7237 
  279000    126.71116   -7133.0901   -6479.6658   -643.44991     102002.7      46.7237      46.7237      46.7237 
  280000    132.65541   -7129.4943   -6445.4167   -462.88391     102002.7      46.7237      46.7237      46.7237 
  281000    132.58263   -7097.1411   -6413.4388    -543.0372     102002.7      46.7237      46.7237      46.7237 
  282000    132.29628   -7146.8116    -6464.586   -849.47796     102002.7      46.7237      46.7237      46.7237 
  283000    131.30487   -7117.8781    -6440.765   -420.26448     102002.7      46.7237      46.7237      46.7237 
  284000    126.30833   -7141.3907   -6490.0437    -700.1078     102002.7      46.7237      46.7237      46.7237 
  285000    130.22443   -7140.8742   -6469.3327   -231.93039     102002.7      46.7237      46.7237      46.7237 
  286000     131.2139   -7123.0274   -6446.3834   -539.90186     102002.7      46.7237      46.7237      46.7237 
  287000    131.02494   -7116.6928   -6441.0232   -685.69543     102002.7      46.7237      46.7237      46.7237 
  288000    128.56201   -7145.8466   -6482.8778   -581.89919     102002.7      46.7237      46.7237      46.7237 
  289000    132.51799   -7124.1356   -6440.7667    -799.3401     102002.7      46.7237      46.7237      46.7237 
  290000    133.45304   -7113.7469   -6425.5561   -686.76688     102002.7      46.7237      46.7237      46.7237 
  291000    127.64889    -7123.353    -6465.093   -944.83462     102002.7      46.7237      46.7237      46.7237 
  292000    136.47369   -7120.3207    -6416.553   -589.65074     102002.7      46.7237      46.7237      46.7237 
  293000    128.23399   -7096.0666   -6434.7894   -547.64166     102002.7      46.7237      46.7237      46.7237 
  294000    125.71846   -7112.7136   -6464.4085   -483.36219     102002.7      46.7237      46.7237      46.7237 
  295000    132.50664   -7102.4608   -6419.1504   -523.77405     102002.7      46.7237      46.7237      46.7237 
  296000    129.88722   -7137.8534   -6468.0509   -861.86675     102002.7      46.7237      46.7237      46.7237 
  297000    129.24379   -7119.5468   -6453.0623   -808.20991     102002.7      46.7237      46.7237      46.7237 
  298000    134.34959   -7148.5416   -6455.7275   -866.74881     102002.7      46.7237      46.7237      46.7237 
  299000    133.11733   -7139.6762   -6453.2165    -782.3048     102002.7      46.7237      46.7237      46.7237 
  300000    127.89738   -7124.0841   -6464.5428   -736.41943     102002.7      46.7237      46.7237      46.7237 
  301000    130.08241   -7146.6461    -6475.837   -522.28077     102002.7      46.7237      46.7237      46.7237 
  302000    131.25583   -7127.5738   -6450.7136   -450.45903     102002.7      46.7237      46.7237      46.7237 
  303000    128.43386   -7134.3595   -6472.0516   -755.81055     102002.7      46.7237      46.7237      46.7237 
  304000    131.19723   -7125.4532   -6448.8951   -599.35267     102002.7      46.7237      46.7237      46.7237 
  305000    131.57175   -7109.3648   -6430.8754   -753.80949     102002.7      46.7237      46.7237      46.7237 
  306000    128.02647   -7111.0639   -6450.8568   -849.03113     102002.7      46.7237      46.7237      46.7237 
  307000    129.86473   -7144.7877    -6475.101   -779.11306     102002.7      46.7237      46.7237      46.7237 
  308000    133.58801   -7146.7946   -6457.9078   -829.93816     102002.7      46.7237      46.7237      46.7237 
  309000    130.63672   -7152.8568   -6479.1892   -779.23411     102002.7      46.7237      46.7237      46.7237 
  310000    131.50544   -7122.5792   -6444.4317   -1029.9965     102002.7      46.7237      46.7237      46.7237 
  311000    130.98816   -7116.2255   -6440.7456   -819.09024     102002.7      46.7237      46.7237      46.7237 
  312000    133.23063   -7153.1028   -6466.0589   -325.04465     102002.7      46.7237      46.7237      46.7237 
  313000    132.34291     -7112.03   -6429.5639   -769.29426     102002.7      46.7237      46.7237      46.7237 
  314000    132.57472   -7130.7664   -6447.1049   -434.92987     102002.7      46.7237      46.7237      46.7237 
  315000    126.88788   -7136.3475   -6482.0119   -822.28097     102002.7      46.7237      46.7237      46.7237 
  316000    131.92344   -7117.6531   -6437.3501   -546.83556     102002.7      46.7237      46.7237      46.7237 
  317000    130.35594   -7138.6114   -6466.3917   -801.05198     102002.7      46.7237      46.7237      46.7237 
  318000    127.73806   -7102.9078    -6444.188   -766.31945     102002.7      46.7237      46.7237      46.7237 
  319000    129.96384   -7129.4595   -6459.2618   -881.97237     102002.7      46.7237      46.7237      46.7237 
  320000    130.52734   -7156.7829   -6483.6793   -760.53918     102002.7      46.7237      46.7237      46.7237 
  321000    130.09537   -7114.5169    -6443.641   -820.87349     102002.7      46.7237      46.7237      46.7237 
  322000    128.79915   -7145.2804   -6481.0888   -827.35905     102002.7      46.7237      46.7237      46.7237 
  323000    131.04161   -7111.1377   -6435.3821   -700.71512     102002.7      46.7237      46.7237      46.7237 
  324000    130.41255   -7163.1542   -6490.6426   -676.84851     102002.7      46.7237      46.7237      46.7237 
  325000    129.42934   -7123.3779   -6455.9366   -618.68122     102002.7      46.7237      46.7237      46.7237 
  326000    128.54479    -7112.317    -6449.437   -529.21583     102002.7      46.7237      46.7237      46.7237 
  327000    126.78284   -7134.9256   -6481.1317   -670.39175     102002.7      46.7237      46.7237      46.7237 
  328000    124.68337   -7066.9148   -6423.9474   -620.83172     102002.7      46.7237      46.7237      46.7237 
  329000     131.0528    -7134.289   -6458.4757   -605.31371     102002.7      46.7237      46.7237      46.7237 
  330000    127.72804    -7126.694   -6468.0258   -772.33569     102002.7      46.7237      46.7237      46.7237 
  331000     125.7479   -7154.3684   -6505.9114   -1010.9466     102002.7      46.7237      46.7237      46.7237 
  332000     133.8396   -7134.7952    -6444.611   -985.68759     102002.7      46.7237      46.7237      46.7237 
  333000    136.72535   -7120.0611   -6414.9957   -1020.5856     102002.7      46.7237      46.7237      46.7237 
  334000    129.68583   -7121.6877   -6452.9236   -745.79084     102002.7      46.7237      46.7237      46.7237 
  335000    125.71237   -7139.8952   -6491.6215   -520.31149     102002.7      46.7237      46.7237      46.7237 
  336000    127.66931   -7116.7726   -6458.4073   -495.41409     102002.7      46.7237      46.7237      46.7237 
  337000    131.99482    -7112.521   -6431.8499   -212.18441     102002.7      46.7237      46.7237      46.7237 
  338000    129.74605   -7115.1993   -6446.1247   -934.26036     102002.7      46.7237      46.7237      46.7237 
  339000    126.73143   -7128.7697   -6475.2409   -586.37646     102002.7      46.7237      46.7237      46.7237 
  340000    132.12399   -7140.2193   -6458.8821   -890.59909     102002.7      46.7237      46.7237      46.7237 
  341000    133.48588   -7109.5532    -6421.193   -908.47381     102002.7      46.7237      46.7237      46.7237 
  342000    128.16878   -7113.7312   -6452.7903   -1010.4598     102002.7      46.7237      46.7237      46.7237 
  343000    133.24017   -7107.5221   -6420.4291   -812.15426     102002.7      46.7237      46.7237      46.7237 
  344000    130.89049   -7117.2968   -6442.3205   -1049.5334     102002.7      46.7237      46.7237      46.7237 
  345000    126.24843   -7109.2628   -6458.2247   -648.66936     102002.7      46.7237      46.7237      46.7237 
  346000    133.21733   -7146.4275   -6459.4522   -678.52138     102002.7      46.7237      46.7237      46.7237 
  347000    129.88578   -7129.8311    -6460.036   -882.56187     102002.7      46.7237      46.7237      46.7237 
  348000    132.52091   -7112.6476   -6429.2636   -652.36928     102002.7      46.7237      46.7237      46.7237 
  349000    129.84688   -7142.2895   -6472.6949   -700.56113     102002.7      46.7237      46.7237      46.7237 
  350000    130.70626   -7127.5461   -6453.5199   -595.32187     102002.7      46.7237      46.7237      46.7237 
  351000    130.15035   -7142.6287   -6471.4692   -462.74278     102002.7      46.7237      46.7237      46.7237 
  352000    124.34087    -7113.738   -6472.5368   -612.39268     102002.7      46.7237      46.7237      46.7237 
  353000    132.61218    -7126.581   -6442.7264    -888.1253     102002.7      46.7237      46.7237      46.7237 
  354000    132.99777   -7148.9023   -6463.0593   -562.28508     102002.7      46.7237      46.7237      46.7237 
  355000    129.11246   -7132.3579   -6466.5506    -729.6524     102002.7      46.7237      46.7237      46.7237 
  356000    129.94923   -7130.8386   -6460.7162   -807.55999     102002.7      46.7237      46.7237      46.7237 
  357000    135.12636   -7126.9496   -6430.1298   -919.82081     102002.7      46.7237      46.7237      46.7237 
  358000    130.01212   -7116.6952   -6446.2486   -907.73376     102002.7      46.7237      46.7237      46.7237 
  359000    125.04167   -7100.9508   -6456.1358   -940.53491     102002.7      46.7237      46.7237      46.7237 
  360000    127.91713   -7111.6447   -6452.0015   -1017.5609     102002.7      46.7237      46.7237      46.7237 
  361000    129.08991    -7136.229   -6470.5379   -670.59652     102002.7      46.7237      46.7237      46.7237 
  362000     132.9439    -7118.186   -6432.6207   -770.79497     102002.7      46.7237      46.7237      46.7237 
  363000    130.71365   -7113.4915   -6439.4271   -775.19713     102002.7      46.7237      46.7237      46.7237 
  364000    130.93718   -7123.9711   -6448.7541   -903.47299     102002.7      46.7237      46.7237      46.7237 
  365000    130.02818   -7133.0157   -6462.4862   -699.48004     102002.7      46.7237      46.7237      46.7237 
  366000    128.26678   -7123.1603    -6461.714    -961.5961     102002.7      46.7237      46.7237      46.7237 
  367000    127.86587   -7106.1576   -6446.7787    -917.8773     102002.7      46.7237      46.7237      46.7237 
  368000    125.93425   -7133.1525   -6483.7345   -859.75094     102002.7      46.7237      46.7237      46.7237 
  369000    133.75859   -7123.8943   -6434.1278   -990.36053     102002.7      46.7237      46.7237      46.7237 
  370000    129.12652    -7126.283   -6460.4032    -779.0045     102002.7      46.7237      46.7237      46.7237 
  371000    127.08469   -7135.2742   -6479.9237   -865.57357     102002.7      46.7237      46.7237      46.7237 
  372000     133.4283   -7134.3032     -6446.24   -563.54764     102002.7      46.7237      46.7237      46.7237 
  373000    137.29703   -7135.6091   -6427.5955    -1080.441     102002.7      46.7237      46.7237      46.7237 
  374000    128.50507   -7124.2078   -6461.5327   -500.78339     102002.7      46.7237      46.7237      46.7237 
  375000    133.44939   -7130.9052   -6442.7332   -999.98878     102002.7      46.7237      46.7237      46.7237 
  376000    132.94942   -7128.4708    -6442.877   -652.67825     102002.7      46.7237      46.7237      46.7237 
  377000    126.86781   -7129.7319   -6475.4998   -797.09656     102002.7      46.7237      46.7237      46.7237 
  378000    133.66864    -7141.409   -6452.1064   -384.09143     102002.7      46.7237      46.7237      46.7237 
  379000    127.86566   -7117.6174   -6458.2396    -583.7242     102002.7      46.7237      46.7237      46.7237 
  380000    131.31861   -7110.9348   -6433.7508   -560.30809     102002.7      46.7237      46.7237      46.7237 
  381000    125.29749   -7108.4817   -6462.3474   -680.53559     102002.7      46.7237      46.7237      46.7237 
  382000     131.9723   -7107.9312   -6427.3763   -439.61101     102002.7      46.7237      46.7237      46.7237 
  383000    128.40846   -7119.2541   -6457.0772   -899.52185     102002.7      46.7237      46.7237      46.7237 
  384000    127.72171   -7112.5666   -6453.9311   -681.93805     102002.7      46.7237      46.7237      46.7237 
  385000    133.23602   -7149.7771   -6462.7054   -773.60062     102002.7      46.7237      46.7237      46.7237 
  386000    130.61677   -7103.0476   -6429.4828   -559.87694     102002.7      46.7237      46.7237      46.7237 
  387000    131.05693   -7123.5416    -6447.707   -634.02654     102002.7      46.7237      46.7237      46.7237 
  388000    133.08063   -7123.1846   -6436.9143   -673.08969     102002.7      46.7237      46.7237      46.7237 
  389000    130.20865   -7131.9345   -6460.4744   -517.82692     102002.7      46.7237      46.7237      46.7237 
  390000    130.66957   -7142.6889   -6468.8519   -1086.8753     102002.7      46.7237      46.7237      46.7237 
  391000    134.30712   -7133.0053   -6440.4102   -1017.8892     102002.7      46.7237      46.7237      46.7237 
  392000    132.07758   -7138.3367   -6457.2388   -883.10446     102002.7      46.7237      46.7237      46.7237 
  393000    131.44851   -7144.6849   -6466.8311   -839.15404     102002.7      46.7237      46.7237      46.7237 
  394000    127.46311   -7132.7762   -6475.4742   -448.49595     102002.7      46.7237      46.7237      46.7237 
  395000    130.14993   -7125.2524   -6454.0951   -945.18781     102002.7      46.7237      46.7237      46.7237 
  396000    129.68648   -7144.1843   -6475.4168   -830.53938     102002.7      46.7237      46.7237      46.7237 
  397000    129.96134   -7135.0915   -6464.9067   -928.61544     102002.7      46.7237      46.7237      46.7237 
  398000    129.41793   -7102.2401   -6434.8575   -1031.8706     102002.7      46.7237      46.7237      46.7237 
  399000    131.27186   -7148.3899    -6471.447   -794.14457     102002.7      46.7237      46.7237      46.7237 
  400000    128.55735   -7103.5357    -6440.591    -966.3041     102002.7      46.7237      46.7237      46.7237 
  401000    130.14713   -7121.6616   -6450.5187   -775.41215     102002.7      46.7237      46.7237      46.7237 
  402000    128.12853   -7137.8658   -6477.1324   -1113.7617     102002.7      46.7237      46.7237      46.7237 
  403000     129.2491   -7101.8213   -6435.3093   -766.49362     102002.7      46.7237      46.7237      46.7237 
  404000    126.50365   -7118.1142     -6465.76   -903.35744     102002.7      46.7237      46.7237      46.7237 
  405000    125.76162   -7123.2273   -6474.6996   -737.84226     102002.7      46.7237      46.7237      46.7237 
  406000    131.44492   -7121.7911   -6443.9557   -806.16122     102002.7      46.7237      46.7237      46.7237 
  407000    129.85471   -7129.1279   -6459.4929   -832.59785     102002.7      46.7237      46.7237      46.7237 
  408000    125.95919   -7115.3155    -6465.769   -759.20946     102002.7      46.7237      46.7237      46.7237 
  409000    128.61566   -7105.5607   -6442.3153   -641.47472     102002.7      46.7237      46.7237      46.7237 
  410000    127.81008   -7134.8072    -6475.716   -733.28899     102002.7      46.7237      46.7237      46.7237 
  411000    132.86116   -7148.7247   -6463.5861   -734.45826     102002.7      46.7237      46.7237      46.7237 
  412000     128.2296   -7132.6997   -6471.4451   -622.00749     102002.7      46.7237      46.7237      46.7237 
  413000    129.07451   -7115.2258   -6449.6141   -1115.8207     102002.7      46.7237      46.7237      46.7237 
  414000    130.63315   -7123.8682    -6450.219   -698.96865     102002.7      46.7237      46.7237      46.7237 
  415000    133.59528   -7112.4739   -6423.5496   -824.18408     102002.7      46.7237      46.7237      46.7237 
  416000    133.69279   -7151.4005   -6461.9734   -596.29256     102002.7      46.7237      46.7237      46.7237 
  417000    130.29803   -7095.9752   -6424.0542   -328.04122     102002.7      46.7237      46.7237      46.7237 
  418000     129.8357   -7119.8781   -6450.3412   -809.20832     102002.7      46.7237      46.7237      46.7237 
  419000    127.86532   -7108.0306   -6448.6545   -734.12757     102002.7      46.7237      46.7237      46.7237 
  420000    123.60264   -7119.3279   -6481.9336   -680.72732     102002.7      46.7237      46.7237      46.7237 
  421000    130.42457   -7120.9873   -6448.4137   -911.84436     102002.7      46.7237      46.7237      46.7237 
  422000    131.10359   -7131.6508   -6455.5757   -817.09134     102002.7      46.7237      46.7237      46.7237 
  423000    130.46162    -7115.591   -6442.8264   -822.92685     102002.7      46.7237      46.7237      46.7237 
  424000    130.14205   -7131.4832   -6460.3665   -781.96588     102002.7      46.7237      46.7237      46.7237 
  425000    131.14054   -7131.8763   -6455.6105   -909.87222     102002.7      46.7237      46.7237      46.7237 
  426000    128.55834   -7134.3405   -6471.3907   -383.81699     102002.7      46.7237      46.7237      46.7237 
  427000    125.34415   -7113.4297   -6467.0548   -918.86374     102002.7      46.7237      46.7237      46.7237 
  428000    133.79025   -7125.1139   -6435.1841   -612.51624     102002.7      46.7237      46.7237      46.7237 
  429000    129.19862   -7121.7648   -6455.5132     -818.271     102002.7      46.7237      46.7237      46.7237 
  430000    130.25041   -7120.3495   -6448.6741   -783.77574     102002.7      46.7237      46.7237      46.7237 
  431000    131.84561    -7113.611   -6433.7093   -763.00763     102002.7      46.7237      46.7237      46.7237 
  432000       126.99   -7121.7691   -6466.9069   -721.73806     102002.7      46.7237      46.7237      46.7237 
  433000    131.59252   -7113.6739   -6435.0774   -252.20694     102002.7      46.7237      46.7237      46.7237 
  434000     127.3762   -7132.6615   -6475.8078   -233.32669     102002.7      46.7237      46.7237      46.7237 
  435000    132.20148   -7130.6421   -6448.9054   -486.13287     102002.7      46.7237      46.7237      46.7237 
  436000     128.6872   -7120.1736   -6456.5593   -584.78308     102002.7      46.7237      46.7237      46.7237 
  437000    133.04288   -7120.5499   -6434.4742   -558.19319     102002.7      46.7237      46.7237      46.7237 
  438000    129.47229   -7132.9479   -6465.2851   -534.80165     102002.7      46.7237      46.7237      46.7237 
  439000    131.74667   -7131.0468   -6451.6554   -770.59657     102002.7      46.7237      46.7237      46.7237 
  440000    130.54391   -7119.7859   -6446.5969   -547.74818     102002.7      46.7237      46.7237      46.7237 
  441000    121.81972    -7145.124   -6516.9239   -847.28747     102002.7      46.7237      46.7237      46.7237 
  442000    132.23839   -7129.9708   -6448.0437   -719.60048     102002.7      46.7237      46.7237      46.7237 
  443000    126.75051   -7137.9642    -6484.337   -884.60661     102002.7      46.7237      46.7237      46.7237 
  444000    127.40557   -7131.6944   -6474.6892   -686.96491     102002.7      46.7237      46.7237      46.7237 
  445000    131.45179   -7134.2622   -6456.3914   -545.65655     102002.7      46.7237      46.7237      46.7237 
  446000    131.95312    -7114.819    -6434.363   -666.55727     102002.7      46.7237      46.7237      46.7237 
  447000    128.86253   -7136.2276   -6471.7092   -635.62727     102002.7      46.7237      46.7237      46.7237 
  448000    131.54597   -7131.0813   -6452.7249    -641.8863     102002.7      46.7237      46.7237      46.7237 
  449000     126.5043   -7127.5436    -6475.186   -229.37503     102002.7      46.7237      46.7237      46.7237 
  450000     125.9088   -7101.2042   -6451.9176   -586.93486     102002.7      46.7237      46.7237      46.7237 
  451000    131.00907   -7115.9707    -6440.383   -471.90281     102002.7      46.7237      46.7237      46.7237 
  452000    132.77267   -7116.3438   -6431.6615   -831.55038     102002.7      46.7237      46.7237      46.7237 
  453000    125.44908    -7114.308    -6467.392   -695.99338     102002.7      46.7237      46.7237      46.7237 
  454000    130.21966   -7118.8232   -6447.3063   -935.54396     102002.7      46.7237      46.7237      46.7237 
  455000        125.6   -7126.5574   -6478.8632   -736.42013     102002.7      46.7237      46.7237      46.7237 
  456000    129.61268   -7094.2202   -6425.8334   -917.76308     102002.7      46.7237      46.7237      46.7237 
  457000     127.7047   -7121.8161   -6463.2683   -875.38311     102002.7      46.7237      46.7237      46.7237 
  458000    130.44181   -7122.6099   -6449.9474   -568.08187     102002.7      46.7237      46.7237      46.7237 
  459000    128.69425   -7121.3595   -6457.7088    -662.5249     102002.7      46.7237      46.7237      46.7237 
  460000    134.98686   -7107.4433   -6411.3428   -467.74165     102002.7      46.7237      46.7237      46.7237 
  461000     130.9026   -7135.6623   -6460.6236   -739.27313     102002.7      46.7237      46.7237      46.7237 
  462000    132.12655   -7124.6054   -6443.2551   -687.62149     102002.7      46.7237      46.7237      46.7237 
  463000     129.8104   -7124.3797   -6454.9732   -485.30706     102002.7      46.7237      46.7237      46.7237 
  464000    126.95103   -7144.4108   -6489.7495   -861.66671     102002.7      46.7237      46.7237      46.7237 
  465000    129.96002   -7137.0536   -6466.8756   -681.50793     102002.7      46.7237      46.7237      46.7237 
  466000    131.05023   -7111.0492   -6435.2492   -766.42871     102002.7      46.7237      46.7237      46.7237 
  467000    128.75334   -7123.2957   -6459.3403   -701.85705     102002.7      46.7237      46.7237      46.7237 
  468000    130.13583   -7136.0112   -6464.9266     -1086.27     102002.7      46.7237      46.7237      46.7237 
  469000    132.80947    -7096.147   -6411.2749   -855.90532     102002.7      46.7237      46.7237      46.7237 
  470000    127.60061   -7120.2378   -6462.2268   -922.17478     102002.7      46.7237      46.7237      46.7237 
  471000    127.21284   -7098.6267   -6442.6153   -943.73148     102002.7      46.7237      46.7237      46.7237 
  472000    132.04014   -7117.6506   -6436.7458   -934.52561     102002.7      46.7237      46.7237      46.7237 
  473000    129.08213   -7148.0672   -6482.4163    -804.6788     102002.7      46.7237      46.7237      46.7237 
  474000    133.44319   -7139.2342   -6451.0942   -889.04382     102002.7      46.7237      46.7237      46.7237 
  475000    130.73159    -7140.547   -6466.3902   -1072.0201     102002.7      46.7237      46.7237      46.7237 
  476000    131.99544   -7127.9512    -6447.277   -965.76053     102002.7      46.7237      46.7237      46.7237 
  477000    132.23051   -7107.8869   -6426.0004   -785.23721     102002.7      46.7237      46.7237      46.7237 
  478000    127.77887    -7111.932   -6453.0017   -826.82045     102002.7      46.7237      46.7237      46.7237 
  479000    125.91875   -7116.7474   -6467.4095   -1004.4073     102002.7      46.7237      46.7237      46.7237 
  480000    130.00119   -7129.6503     -6459.26   -734.01909     102002.7      46.7237      46.7237      46.7237 
  481000    125.74022   -7127.4437   -6479.0264   -826.96088     102002.7      46.7237      46.7237      46.7237 
  482000    129.98877    -7107.099   -6436.7727   -567.12038     102002.7      46.7237      46.7237      46.7237 
  483000    130.23573   -7155.2823   -6483.6825   -587.46273     102002.7      46.7237      46.7237      46.7237 
  484000     129.5818   -7103.8533   -6435.6257    -950.4067     102002.7      46.7237      46.7237      46.7237 
  485000    129.12009   -7150.1112   -6484.2645    -633.4332     102002.7      46.7237      46.7237      46.7237 
  486000     134.8222    -7144.092   -6448.8406   -643.50821     102002.7      46.7237      46.7237      46.7237 
  487000    132.89678   -7125.3903    -6440.068   -490.79834     102002.7      46.7237      46.7237      46.7237 
  488000    131.11713   -7145.4015   -6469.2564   -862.86124     102002.7      46.7237      46.7237      46.7237 
  489000    133.81771   -7133.7681   -6443.6967   -872.01676     102002.7      46.7237      46.7237      46.7237 
  490000    128.69421    -7130.291   -6466.6406   -114.09865     102002.7      46.7237      46.7237      46.7237 
  491000    131.95289    -7132.604   -6452.1492   -839.11084     102002.7      46.7237      46.7237      46.7237 
  492000    126.57392   -7103.4238   -6450.7072   -610.24089     102002.7      46.7237      46.7237      46.7237 
  493000    130.86762   -7098.2165   -6423.3581   -594.71191     102002.7      46.7237      46.7237      46.7237 
  494000    133.35417   -7140.3198   -6452.6388   -594.73132     102002.7      46.7237      46.7237      46.7237 
  495000    129.48728   -7110.6696   -6442.9293   -750.68333     102002.7      46.7237      46.7237      46.7237 
  496000    129.13458   -7122.3885   -6456.4671   -325.84254     102002.7      46.7237      46.7237      46.7237 
  497000    126.87505   -7135.4416   -6481.1721   -315.43352     102002.7      46.7237      46.7237      46.7237 
  498000    134.82955   -7139.7112    -6444.422   -695.76314     102002.7      46.7237      46.7237      46.7237 
  499000    134.93222   -7115.2772   -6419.4585   -873.99404     102002.7      46.7237      46.7237      46.7237 
  500000    128.55454   -7131.8056   -6468.8754   -797.04815     102002.7      46.7237      46.7237      46.7237 
  500504    131.09389   -7120.7892    -6444.764   -851.60398     102002.7      46.7237      46.7237      46.7237 
Loop time of 1262.56 on 16 procs for 500000 steps with 1731 atoms

Performance: 34.216 ns/day, 0.701 hours/ns, 396.022 timesteps/s
99.8% CPU use with 16 MPI tasks x no OpenMP threads

MPI task timing breakdown:
Section |  min time  |  avg time  |  max time  |%varavg| %total
---------------------------------------------------------------
Pair    | 520.63     | 686.14     | 836.73     | 378.1 | 54.35
Bond    | 164.06     | 173.88     | 187.88     |  58.5 | 13.77
Neigh   | 3.9784     | 4.0016     | 4.0142     |   0.5 |  0.32
Comm    | 242.81     | 385.21     | 546.64     | 477.6 | 30.51
Output  | 0.020436   | 0.020813   | 0.023968   |   0.6 |  0.00
Modify  | 7.2599     | 8.0937     | 9.2326     |  21.7 |  0.64
Other   |            | 5.211      |            |       |  0.41

Nlocal:    108.188 ave 135 max 76 min
Histogram: 1 1 1 1 2 3 2 2 1 2
Nghost:    2206.31 ave 2244 max 2178 min
Histogram: 2 2 0 4 2 2 1 1 1 1
Neighs:    11449.4 ave 14384 max 7641 min
Histogram: 1 1 1 2 3 2 0 1 2 3

Total # of neighbors = 183190
Ave neighs/atom = 105.829
Ave special neighs/atom = 6.65511
Neighbor list builds = 3461
Dangerous builds = 0
Neighbor list info ...
  update every 1 steps, delay 10 steps, check yes
  max neighbors/atom: 2000, page size: 100000
  master list distance cutoff = 16
  ghost atom cutoff = 16
  binsize = 8, bins = 6 6 6
  3 neighbor lists, perpetual/occasional/extra = 3 0 0
  (1) pair buck6d/coul/gauss/dsf, perpetual, skip from (3)
      attributes: half, newton on
      pair build: skip
      stencil: none
      bin: none
  (2) pair lj/cut, perpetual, skip from (3)
      attributes: half, newton on
      pair build: skip
      stencil: none
      bin: none
  (3) neighbor class addition, perpetual
      attributes: half, newton on
      pair build: half/bin/newton
      stencil: half/bin/3d/newton
      bin: standard
Setting up Verlet run ...
  Unit style    : real
  Current step  : 500504
  Time step     : 1
WARNING: Inconsistent image flags (../domain.cpp:786)
Per MPI rank memory allocation (min/avg/max) = 23.33 | 23.33 | 23.34 Mbytes
Step Time TotEng KinEng PotEng E_mol E_pair Temp Pxx Pyy Pzz Pxy Pxz Pyz Cella Cellb Cellc CellAlpha CellBeta CellGamma Volume Press 
  500504       500000    -6444.764    676.02518   -7120.7892    4411.3882   -11532.177    131.09389   -956.18411   -730.68349   -867.94433    90.875232    151.03626   -417.38172      46.7237      46.7237      46.7237           90           90           90     102002.7   -851.60398 
  501000       500496   -6479.6977     661.2528   -7140.9505    4412.6511   -11553.602    128.22925   -647.46805     -439.729    -615.9318    107.28275   -106.07269    56.184807      46.7237      46.7237      46.7237           90           90           90     102002.7   -567.70962 
  502000       501496   -6472.4672     683.5791   -7156.0463    4390.8495   -11546.896    132.55874    -868.0255   -773.42761   -701.75646   -4.5432263     61.26338    46.004991      46.7237      46.7237      46.7237           90           90           90     102002.7   -781.06986 
  503000       502496   -6454.0104    672.42554    -7126.436    4426.0384   -11552.474    130.39586   -688.44498   -594.99064   -785.58444   -149.33568   -224.06059    56.741565      46.7237      46.7237      46.7237           90           90           90     102002.7   -689.67335 
  504000       503496   -6468.1675    680.76463   -7148.9322    4391.7319   -11540.664    132.01296   -307.95923   -475.24451   -859.77521   -86.114465   -203.87298   -36.500431      46.7237      46.7237      46.7237           90           90           90     102002.7   -547.65965 
  505000       504496   -6447.5334    668.27505   -7115.8084    4421.1974   -11537.006      129.591   -938.11805   -626.80419   -510.02709     43.49551    179.74612   -17.159583      46.7237      46.7237      46.7237           90           90           90     102002.7   -691.64978 
  506000       505496   -6460.9215    678.61111   -7139.5326    4407.5737   -11547.106    131.59535   -412.45395   -554.88828   -561.84757     189.9247    47.394952   -7.8753492      46.7237      46.7237      46.7237           90           90           90     102002.7   -509.72993 
  507000       506496    -6429.857    660.79213   -7090.6492    4456.5568   -11547.206    128.13992    -883.1015   -882.59219   -687.53258   -327.61791   -209.21091   -105.79675      46.7237      46.7237      46.7237           90           90           90     102002.7   -817.74209 
  508000       507496   -6483.0859    634.76996   -7117.8559    4408.3638    -11526.22    123.09374   -201.18162   -1240.4473   -587.65909   -209.04971   -232.76105    112.87112      46.7237      46.7237      46.7237           90           90           90     102002.7   -676.42934 
  509000       508496   -6461.3861    674.45295   -7135.8391    4407.8246   -11543.664    130.78901   -1050.3597   -501.72276   -212.87806    68.098558   -210.40596    139.63685      46.7237      46.7237      46.7237           90           90           90     102002.7   -588.32019 
  510000       509496   -6448.7064    673.68695   -7122.3934    4415.0267    -11537.42    130.64047   -569.95924    -849.6051   -954.72744   -119.01711    -31.05405    131.80846      46.7237      46.7237      46.7237           90           90           90     102002.7   -791.43059 
  511000       510496   -6451.5605    672.25877   -7123.8193    4418.7676   -11542.587    130.36352   -1148.1128    -962.6092   -920.29624   -193.71691    35.372931    193.15404      46.7237      46.7237      46.7237           90           90           90     102002.7   -1010.3394 
  512000       511496   -6462.1823    656.33899   -7118.5213    4431.9991    -11550.52    127.27638   -1144.3769   -648.96372    -425.3465   -111.94252    -126.4664    162.35114      46.7237      46.7237      46.7237           90           90           90     102002.7   -739.56237 
  513000       512496   -6478.0404    660.72814   -7138.7685     4408.934   -11547.703    128.12751   -537.67739   -582.20221   -684.50964   -250.68841   -68.822007    26.387944      46.7237      46.7237      46.7237           90           90           90     102002.7   -601.46308 
  514000       513496   -6439.0845    674.01792   -7113.1025     4441.745   -11554.847    130.70465   -582.02773   -424.65562   -528.39851   -4.6435716   -33.093453   -43.771582      46.7237      46.7237      46.7237           90           90           90     102002.7   -511.69395 
  515000       514496   -6438.6236    683.24373   -7121.8673    4409.2043   -11531.072    132.49371    -643.1315   -901.95089   -880.19227   -143.99292   -192.33011    53.675593      46.7237      46.7237      46.7237           90           90           90     102002.7   -808.42489 
  516000       515496   -6486.1006    648.67078   -7134.7714    4424.2126   -11558.984    125.78937   -755.46665    -1127.437    -654.4626    -7.050041   -458.80136    27.075383      46.7237      46.7237      46.7237           90           90           90     102002.7   -845.78875 
  517000       516496   -6441.3859    673.60469   -7114.9906    4418.8979   -11533.889    130.62452   -522.36176   -759.40923   -880.31573   -208.47342    40.611491   -173.06683      46.7237      46.7237      46.7237           90           90           90     102002.7   -720.69557 
  518000       517496    -6489.428    652.18169   -7141.6097     4408.146   -11549.756     126.4702    -826.3254   -841.24508   -565.74888   -111.46085    178.38012   -148.29296      46.7237      46.7237      46.7237           90           90           90     102002.7   -744.43979 
  519000       518496   -6475.0982      652.849   -7127.9472    4422.1541   -11550.101     126.5996   -678.85634   -669.63471    -704.4444    136.60333   -135.17985    83.084447      46.7237      46.7237      46.7237           90           90           90     102002.7   -684.31181 
  520000       519496   -6439.9619    667.72869   -7107.6906    4437.4451   -11545.136    129.48505   -709.54775   -355.32873   -770.07475    289.88535    181.02778   -147.60015      46.7237      46.7237      46.7237           90           90           90     102002.7   -611.65041 
  521000       520496   -6480.2022    672.08604   -7152.2883    4394.6603   -11546.949    130.33002   -526.45834   -490.18379   -510.96924    21.236021    76.620284    222.13893      46.7237      46.7237      46.7237           90           90           90     102002.7   -509.20379 
  522000       521496    -6423.909    693.63352   -7117.5426    4417.9407   -11535.483    134.50848   -583.83724   -937.26818   -638.81518   -101.44165    189.43272   -172.71529      46.7237      46.7237      46.7237           90           90           90     102002.7   -719.97353 
  523000       522496   -6465.1386    665.57186   -7130.7104    4420.7702   -11551.481     129.0668   -848.90466   -956.18073   -447.62784     117.8324    224.66536    43.972771      46.7237      46.7237      46.7237           90           90           90     102002.7   -750.90441 
  524000       523496   -6488.5124    654.45109   -7142.9635     4387.197    -11530.16    126.91028   -1143.9426   -913.44292   -267.76491    103.96024   -51.651048   -278.85569      46.7237      46.7237      46.7237           90           90           90     102002.7   -775.05015 
  525000       524496   -6440.3041    665.97797   -7106.2821    4438.3413   -11544.623    129.14555   -747.90938   -1079.8396   -660.70085   -78.705605    -185.8706    50.441539      46.7237      46.7237      46.7237           90           90           90     102002.7   -829.48329 
  526000       525496   -6454.4759    670.78819   -7125.2641    4416.9136   -11542.178    130.07835   -898.18568   -577.42845   -677.66351   -101.48328   -131.27143   -5.4261201      46.7237      46.7237      46.7237           90           90           90     102002.7   -717.75922 
  527000       526496   -6450.4977    673.64145   -7124.1392    4433.8872   -11558.026    130.63165   -1210.3752   -559.30306   -713.71967    4.6808929    209.07834   -82.985445      46.7237      46.7237      46.7237           90           90           90     102002.7   -827.79932 
  528000       527496   -6464.5785      662.214   -7126.7925    4398.3817   -11525.174    128.41565    -1010.578    -1100.415   -911.73853   -268.43396    73.502146    115.46645      46.7237      46.7237      46.7237           90           90           90     102002.7   -1007.5772 
  529000       528496   -6460.9164    675.02649   -7135.9429    4414.1337   -11550.077    130.90023    -774.1566    -782.1513   -891.18214    -17.41848   -186.73051   -57.024506      46.7237      46.7237      46.7237           90           90           90     102002.7   -815.83001 
  530000       529496   -6414.4379    692.29528   -7106.7331    4447.5303   -11554.263    134.24897   -939.19996    -406.0233   -1398.3238    151.94889    113.81718   -18.124047      46.7237      46.7237      46.7237           90           90           90     102002.7   -914.51568 
  531000       530496   -6470.0686    668.48594   -7138.5545    4397.6443   -11536.199     129.6319   -423.80661   -869.30956   -470.81421    115.62416   -12.059468    161.10189      46.7237      46.7237      46.7237           90           90           90     102002.7   -587.97679 
  532000       531496   -6438.9981    676.88536   -7115.8834    4435.1444   -11551.028     131.2607   -715.85628   -1137.4402   -783.87208    -56.78658   -311.37887    110.94682      46.7237      46.7237      46.7237           90           90           90     102002.7    -879.0562 
  533000       532496   -6473.0491    662.86383   -7135.9129    4395.0335   -11530.946    128.54166   -721.38776   -1048.7789    -1145.272    241.17281    340.84858    129.38088      46.7237      46.7237      46.7237           90           90           90     102002.7   -971.81287 
  534000       533496   -6460.8091    663.77316   -7124.5823    4427.0804   -11551.663      128.718   -360.40937   -497.87442   -705.63735    10.996488    275.77794    31.280777      46.7237      46.7237      46.7237           90           90           90     102002.7   -521.30705 
  535000       534496   -6448.8074     682.6371   -7131.4445     4409.882   -11541.326    132.37607   -196.13422   -1323.9722   -462.38328   -245.02103   -45.591563   -158.48654      46.7237      46.7237      46.7237           90           90           90     102002.7   -660.82989 
  536000       535496    -6476.641    659.51776   -7136.1588    4405.9962   -11542.155     127.8928   -783.49545   -789.37495   -623.55615    136.70106   -84.259457    -326.9954      46.7237      46.7237      46.7237           90           90           90     102002.7   -732.14218 
  537000       536496    -6445.354    666.21418   -7111.5681    4429.9238   -11541.492    129.19136   -514.22865   -654.31221   -792.01753   -259.16692     127.5389   -139.46519      46.7237      46.7237      46.7237           90           90           90     102002.7   -653.51946 
  538000       537496   -6455.5704    685.35426   -7140.9247    4402.9902   -11543.915    132.90298   -669.31751    -478.3307   -836.43077    33.829541   0.20243804    -326.1343      46.7237      46.7237      46.7237           90           90           90     102002.7   -661.35966 
  539000       538496   -6426.9629     688.9159   -7115.8788    4428.5648   -11544.444    133.59365   -712.04473   -17.508141   -1045.0153   -87.527841   -163.18912    -166.2736      46.7237      46.7237      46.7237           90           90           90     102002.7   -591.52273 
  540000       539496    -6477.867    685.31556   -7163.1826    4385.5328   -11548.715    132.89547   -596.11864   -495.32345   -511.90958    243.37121     63.00612   -193.50234      46.7237      46.7237      46.7237           90           90           90     102002.7   -534.45056 
  541000       540496   -6455.5524     678.1699   -7133.7223    4406.2108   -11539.933     131.5098   -1123.8285   -306.11358   -678.60631   -270.10417   -42.957973    94.817727      46.7237      46.7237      46.7237           90           90           90     102002.7   -702.84946 
  542000       541496   -6462.0606    651.79327   -7113.8539    4421.0468   -11534.901    126.39488   -646.85431   -479.80422   -902.80406    86.529691    7.2076478    329.57979      46.7237      46.7237      46.7237           90           90           90     102002.7   -676.48753 
  543000       542496   -6435.6288     658.5089   -7094.1377    4452.2543   -11546.392    127.69716   -451.17677   -686.12082   -148.38751    45.750925   -141.00289   -106.65187      46.7237      46.7237      46.7237           90           90           90     102002.7    -428.5617 
  544000       543496   -6459.4332    676.02329   -7135.4565    4406.1248   -11541.581    131.09353   -575.89026   -818.69317   -362.13947   -104.75093    120.10043    246.98715      46.7237      46.7237      46.7237           90           90           90     102002.7    -585.5743 
  545000       544496   -6408.5949    694.06215    -7102.657    4427.2481   -11529.905     134.5916   -674.93133   -621.45507   -965.04336   -182.59893   -115.49915    28.831911      46.7237      46.7237      46.7237           90           90           90     102002.7   -753.80992 
  546000       545496   -6448.1055    670.50636   -7118.6118    4427.3203   -11545.932    130.02369   -578.19404    -1298.141   -490.08566   -97.176277   -199.64754   -92.762558      46.7237      46.7237      46.7237           90           90           90     102002.7   -788.80691 
  547000       546496   -6466.5324    676.52883   -7143.0612    4393.2956   -11536.357    131.19156   -748.59772   -615.02304   -1259.8402   -237.64037    102.35241   -126.28941      46.7237      46.7237      46.7237           90           90           90     102002.7   -874.48698 
  548000       547496   -6478.9308    647.91601   -7126.8468    4414.7095   -11541.556      125.643   -783.49809   -1014.0288   -1122.1372   -33.563464   -33.386604   -68.077014      46.7237      46.7237      46.7237           90           90           90     102002.7   -973.22136 
  549000       548496   -6471.5909    660.65422   -7132.2451    4412.2934   -11544.539    128.11318   -1153.7856    -1010.967   -549.18502    70.021809    62.913901    117.61823      46.7237      46.7237      46.7237           90           90           90     102002.7   -904.64588 
  550000       549496   -6450.5448    680.50262   -7131.0474    4424.4925    -11555.54    131.96215   -964.73034   -453.14138   -1119.7761    3.7441993    2.3577556    36.074975      46.7237      46.7237      46.7237           90           90           90     102002.7    -845.8826 
  551000       550496   -6473.1661    679.17138   -7152.3375    4409.1415   -11561.479      131.704   -581.91695   -1134.3064   -658.74649   -133.31703   -190.87589    -130.9486      46.7237      46.7237      46.7237           90           90           90     102002.7   -791.65663 
  552000       551496   -6447.3696    671.16554   -7118.5351    4427.0088   -11545.544    130.15152   -688.86793   -688.13789   -352.97554    304.57519    26.871419   -51.986288      46.7237      46.7237      46.7237           90           90           90     102002.7   -576.66045 
  553000       552496   -6465.3179    649.47815    -7114.796    4431.6013   -11546.397    125.94593   -992.03799   -1075.5177    -513.6117    59.026862    169.85115   -182.75567      46.7237      46.7237      46.7237           90           90           90     102002.7   -860.38912 
  554000       553496   -6437.1263     706.1234   -7143.2497    4409.7481   -11552.998     136.9305   -546.91908   -714.47993   -672.74946   -126.69009   -136.42906    262.83174      46.7237      46.7237      46.7237           90           90           90     102002.7   -644.71616 
  555000       554496   -6451.2692    667.70415   -7118.9734    4427.2385   -11546.212    129.48029   -931.51607   -534.40951   -316.27791   -33.026241    163.58583    158.87629      46.7237      46.7237      46.7237           90           90           90     102002.7   -594.06783 
[...]
  936000       935496   -6485.8107    640.53605   -7126.3468    4423.9268   -11550.274    124.21189   -1005.1676   -610.52592   -545.50058    -83.94697    31.042756   -109.76058      46.7237      46.7237      46.7237           90           90           90     102002.7   -720.39803 
  937000       936496   -6441.6793    677.85803   -7119.5374    4412.3963   -11531.934    131.44932   -398.28207   -880.61825   -417.91532   -82.705645    61.102457    3.2804318      46.7237      46.7237      46.7237           90           90           90     102002.7   -565.60521 
  938000       937496    -6470.324    662.70891   -7133.0329    4398.8133   -11531.846    128.51162    -100.5925   -748.20581   -709.74563   -309.91548   -106.80612    139.51752      46.7237      46.7237      46.7237           90           90           90     102002.7   -519.51465 
  939000       938496   -6452.0842    665.78423   -7117.8685     4423.871   -11541.739    129.10798   -436.33618   -76.062251   -270.43439     195.2346   -78.199153   -210.77832      46.7237      46.7237      46.7237           90           90           90     102002.7   -260.94427 
  940000       939496   -6481.9519    659.89022   -7141.8421    4385.5828   -11527.425    127.96502   -202.23397   -727.66335   -586.70728   -76.318203    282.26117   -47.630717      46.7237      46.7237      46.7237           90           90           90     102002.7   -505.53487 
  941000       940496   -6429.8925    683.83412   -7113.7267    4423.2454   -11536.972    132.60819   -630.87047   -785.32113   -910.42478   -136.89903   -76.342578   -127.30744      46.7237      46.7237      46.7237           90           90           90     102002.7    -775.5388 
  942000       941496   -6468.1579    660.89039   -7129.0483    4406.9289   -11535.977    128.15898   -971.15792   -765.76706   -539.54386   -306.87803    7.1940776    206.31607      46.7237      46.7237      46.7237           90           90           90     102002.7   -758.82295 
  943000       942496   -6466.2213    659.94326   -7126.1646    4405.7176   -11531.882    127.97531   -861.36816   -551.75589   -431.20073    181.28468   -185.97602   -58.709394      46.7237      46.7237      46.7237           90           90           90     102002.7   -614.77493 
  944000       943496   -6441.9058    688.18595   -7130.0918    4411.6015   -11541.693     133.4521   -749.62937   -157.96857   -837.34181    255.91608   -116.19051    -165.9166      46.7237      46.7237      46.7237           90           90           90     102002.7   -581.64658 
  945000       944496   -6480.7409    653.19561   -7133.9365     4406.912   -11540.849    126.66682   -645.24438   -828.94047   -530.96086   -174.87332   -261.51956   -6.7448202      46.7237      46.7237      46.7237           90           90           90     102002.7   -668.38191 
  946000       945496   -6434.4743    686.49093   -7120.9653    4419.9711   -11540.936     133.1234   -840.98967   -541.07848   -558.64493    198.82563    351.41645    21.169622      46.7237      46.7237      46.7237           90           90           90     102002.7   -646.90436 
  947000       946496   -6484.5296    650.35813   -7134.8877    4399.4237   -11534.311    126.11657   -287.23283    -617.1665   -1075.3217   -205.29282   -149.01525   -195.65331      46.7237      46.7237      46.7237           90           90           90     102002.7   -659.90701 
  948000       947496   -6439.3089    684.62404   -7123.9329    4403.3206   -11527.253    132.76137   -587.50362   -340.99603    -615.8693   -118.65709    122.50965   -60.895434      46.7237      46.7237      46.7237           90           90           90     102002.7   -514.78965 
  949000       948496   -6458.3676    676.99833    -7135.366    4409.0749   -11544.441    131.28261   -498.06524   -636.81135    -770.9961     141.7182    78.988704    125.32064      46.7237      46.7237      46.7237           90           90           90     102002.7    -635.2909 
  950000       949496   -6455.3444    674.62478   -7129.9691    4410.5675   -11540.537    130.82233   -732.21176   -897.00519   -980.03753    121.87257    155.23372   -194.69931      46.7237      46.7237      46.7237           90           90           90     102002.7   -869.75149 
  951000       950496   -6466.9565    649.12185   -7116.0783    4419.7259   -11535.804    125.87684    -854.0041   -961.36782   -400.64872    75.550554    41.935173    46.401698      46.7237      46.7237      46.7237           90           90           90     102002.7   -738.67355 
  952000       951496   -6410.9467    661.34496   -7072.2916    4459.0059   -11531.298    128.24713   -973.18327   -600.54785    -1004.452    27.620089   -36.881671    24.333707      46.7237      46.7237      46.7237           90           90           90     102002.7   -859.39438 
  953000       952496   -6444.8487    670.66458   -7115.5133    4425.0316   -11540.545    130.05437   -509.38292     -812.733   -655.75975    105.21944    61.032239   -155.13944      46.7237      46.7237      46.7237           90           90           90     102002.7   -659.29189 
  954000       953496   -6478.4257    661.81613   -7140.2418     4424.736   -11564.978    128.33849   -925.64185   -359.80995   -812.59297    -116.3993   -41.146354    -130.3103      46.7237      46.7237      46.7237           90           90           90     102002.7   -699.34825 
  955000       954496   -6487.2307     643.1817   -7130.4124     4403.411   -11533.823    124.72493   -765.95798   -665.12629    -357.2218   -133.76468   -58.643999   -156.74705      46.7237      46.7237      46.7237           90           90           90     102002.7   -596.10202 
  956000       955496   -6458.0109    657.26609    -7115.277    4437.8156   -11553.093    127.45616    -882.9916   -440.06433   -749.83251    136.65651    191.18212    60.300686      46.7237      46.7237      46.7237           90           90           90     102002.7   -690.96281 
  957000       956496    -6435.105    681.59822   -7116.7032    4424.5596   -11541.263    132.17461   -800.48062   -467.03913   -327.41148    204.96852    113.30179   -67.777497      46.7237      46.7237      46.7237           90           90           90     102002.7   -531.64374 
  958000       957496   -6425.4348    685.87608   -7111.3109    4436.5682   -11547.879    133.00417   -911.10978    -916.6589   -817.02208    152.89611    35.095178    157.97946      46.7237      46.7237      46.7237           90           90           90     102002.7   -881.59692 
  959000       958496   -6463.6286    658.05971   -7121.6883    4430.5479   -11552.236    127.61006   -776.53006   -751.21036   -646.88524   -249.66586    276.42163   -11.536688      46.7237      46.7237      46.7237           90           90           90     102002.7   -724.87522 
  960000       959496   -6425.3279    676.32003   -7101.6479     4434.254   -11535.902    131.15107   -1232.8469   -497.28379   -167.88079   -32.557845   -1.8542551    127.98085      46.7237      46.7237      46.7237           90           90           90     102002.7   -632.67051 
  961000       960496   -6442.7437    680.23447   -7122.9782    4413.7509   -11536.729    131.91016   -707.75082   -619.62671   -416.40688   -79.222638   -83.025552   -118.40823      46.7237      46.7237      46.7237           90           90           90     102002.7   -581.26147 
  962000       961496   -6474.3543    660.21403   -7134.5683    4415.4585   -11550.027    128.02782   -258.41905   -416.36891   -736.81172    -173.8623    68.706338   -31.021278      46.7237      46.7237      46.7237           90           90           90     102002.7   -470.53323 
  963000       962496   -6480.9038    664.26615   -7145.1699    4404.1456   -11549.316     128.8136   -486.41329   -591.13643    -675.7579   -77.335089    -14.09948    14.950494      46.7237      46.7237      46.7237           90           90           90     102002.7   -584.43587 
  964000       963496     -6448.77    676.32684   -7125.0968    4408.6105   -11533.707    131.15239   -646.68763   -744.64749   -439.53054     34.71603    18.814481    75.980524      46.7237      46.7237      46.7237           90           90           90     102002.7   -610.28855 
  965000       964496   -6483.4073    663.99315   -7147.4005    4392.7162   -11540.117    128.76066   -640.65044   -285.04178   -615.40012    5.9401094    -293.7576    200.61706      46.7237      46.7237      46.7237           90           90           90     102002.7   -513.69744 
  966000       965496   -6435.4155      667.002   -7102.4175    4445.8086   -11548.226    129.34413   -1261.0384   -1064.6254   -585.25665   -75.821521    65.639433   -204.20719      46.7237      46.7237      46.7237           90           90           90     102002.7   -970.30681 
  967000       966496    -6472.343    657.50259   -7129.8456    4411.5006   -11541.346    127.50202   -169.42251   -504.89836   -699.25236   -25.390344   -38.438256    146.47876      46.7237      46.7237      46.7237           90           90           90     102002.7   -457.85775 
  968000       967496   -6472.9956    662.10972   -7135.1053    4402.6044    -11537.71    128.39543   -648.38273    -755.5354   -751.40279   -70.287449    146.54389    112.46656      46.7237      46.7237      46.7237           90           90           90     102002.7    -718.4403 
  969000       968496   -6459.9542    678.84531   -7138.7995    4388.2559   -11527.055    131.64077   -335.36758   -750.76457   -579.23062    37.136016    114.69943   -153.71938      46.7237      46.7237      46.7237           90           90           90     102002.7   -555.12093 
  970000       969496   -6479.3811    641.73428   -7121.1154    4433.0401   -11554.155    124.44425   -512.72417   -930.33589   -843.09037   -75.776551    95.977364    100.28563      46.7237      46.7237      46.7237           90           90           90     102002.7   -762.05014 
  971000       970496    -6480.521    654.84364   -7135.3646    4402.7182   -11538.083     126.9864   -742.09941   -174.07035   -1025.6638    61.797994   -259.03724   -63.714824      46.7237      46.7237      46.7237           90           90           90     102002.7   -647.27784 
  972000       971496   -6436.3213    685.22175    -7121.543    4417.0189   -11538.562    132.87728   -21.608212   -414.49804   -381.06695   -37.008758   -284.92473   -25.896563      46.7237      46.7237      46.7237           90           90           90     102002.7   -272.39107 
  973000       972496   -6459.0915    662.77041   -7121.8619    4422.0913   -11543.953    128.52355   -811.22602    -589.1373   -927.66262    173.63738   -84.143561    166.44312      46.7237      46.7237      46.7237           90           90           90     102002.7   -776.00864 
  974000       973496   -6412.4742    691.84188    -7104.316    4426.4002   -11530.716    134.16105   -755.63385   -599.88119   -632.82509   -67.773747    -153.1033    221.28135      46.7237      46.7237      46.7237           90           90           90     102002.7   -662.78004 
  975000       974496   -6434.4911    679.29563   -7113.7867     4433.111   -11546.898     131.7281   -241.14507   -492.60051   -794.15492   -210.99906   -91.666649    161.05275      46.7237      46.7237      46.7237           90           90           90     102002.7   -509.30016 
  976000       975496   -6463.3139     668.2402   -7131.5541    4405.9063    -11537.46    129.58424    -859.1084   -398.60935   -570.28955    58.558808    195.24789    61.824974      46.7237      46.7237      46.7237           90           90           90     102002.7   -609.33576 
  977000       976496   -6426.7274     685.4386    -7112.166    4425.9305   -11538.097    132.91933   -767.94379   -436.07295   -763.72856   -131.98631    84.640715   -198.54293      46.7237      46.7237      46.7237           90           90           90     102002.7    -655.9151 
  978000       977496   -6455.4842    671.67799   -7127.1622    4414.7828   -11541.945    130.25089   -349.40671   -472.78848   -512.83253   -250.29824   -243.18021     59.77855      46.7237      46.7237      46.7237           90           90           90     102002.7   -445.00924 
  979000       978496   -6429.9771    673.40934   -7103.3865    4442.9705   -11546.357    130.58664   -712.97756   -805.27934   -872.77736    259.79334    173.76286   -92.880019      46.7237      46.7237      46.7237           90           90           90     102002.7   -797.01142 
  980000       979496   -6473.3305    649.10182   -7122.4323    4444.6471   -11567.079    125.87295   -785.58629   -1040.6518   -527.46499    167.11206   -157.15961    2.7832423      46.7237      46.7237      46.7237           90           90           90     102002.7   -784.56769 
  981000       980496   -6442.6862    679.22475    -7121.911    4414.4036   -11536.315    131.71435   -541.27184   -578.74689    -953.4543   -124.13497    194.09979    18.043844      46.7237      46.7237      46.7237           90           90           90     102002.7   -691.15768 
  982000       981496   -6447.8726    678.12039   -7125.9929    4426.5558   -11552.549    131.50019   -958.18779   -932.83343   -733.46126   -95.288094   -21.042772    22.698159      46.7237      46.7237      46.7237           90           90           90     102002.7   -874.82749 
  983000       982496   -6436.5755    672.54778   -7109.1233    4434.2127   -11543.336    130.41956   -379.45391   -755.60433   -1315.1847   -29.149466   -86.986365   -28.285393      46.7237      46.7237      46.7237           90           90           90     102002.7   -816.74763 
  984000       983496   -6487.9552    655.76676   -7143.7219    4413.2865   -11557.008    127.16541   -779.63559   -546.00759    -753.5899   -92.611047    40.501225    156.00175      46.7237      46.7237      46.7237           90           90           90     102002.7   -693.07769 
  985000       984496   -6450.3743    685.21654   -7135.5908    4413.3084   -11548.899    132.87627   -608.70383   -886.66617   -604.29562   -175.96081     12.64125    71.301783      46.7237      46.7237      46.7237           90           90           90     102002.7   -699.88854 
  986000       985496   -6470.8151    657.90821   -7128.7233     4400.952   -11529.675    127.58068   -444.54179   -1178.6898   -738.12971   -67.073196    14.263809   -260.62699      46.7237      46.7237      46.7237           90           90           90     102002.7   -787.12044 
  987000       986496   -6469.9127    645.53785   -7115.4505     4445.695   -11561.145    125.18183   -376.64241   -101.15086   -668.76286   0.97881815    154.41677   -106.78535      46.7237      46.7237      46.7237           90           90           90     102002.7   -382.18538 
  988000       987496   -6422.8307    697.62746   -7120.4581    4430.4101   -11550.868    135.28298   -993.30894   -971.26134   -685.44636    24.576095    122.13548    -45.67923      46.7237      46.7237      46.7237           90           90           90     102002.7   -883.33888 
  989000       988496    -6463.687    674.08261   -7137.7696    4413.4023   -11551.172    130.71719   -799.81594   -865.19423   -597.81241    23.745985   -36.219114    49.949025      46.7237      46.7237      46.7237           90           90           90     102002.7   -754.27419 
  990000       989496   -6446.0185    664.43355   -7110.4521    4439.7972   -11550.249    128.84606   -974.12116   -1089.3955   -624.41796   -4.2117888    251.47818    19.677477      46.7237      46.7237      46.7237           90           90           90     102002.7   -895.97821 
  991000       990496   -6478.0689     660.6818   -7138.7507    4413.2694    -11552.02    128.11853   -1280.7416   -711.98163   -892.29063    38.228138    117.05328    35.827149      46.7237      46.7237      46.7237           90           90           90     102002.7   -961.67129 
  992000       991496   -6469.7344    659.96221   -7129.6966    4418.7462   -11548.443    127.97899   -905.89734   -397.84682   -944.62106    45.075501    54.729081    94.507263      46.7237      46.7237      46.7237           90           90           90     102002.7   -749.45507 
  993000       992496   -6450.2862    680.48836   -7130.7745    4418.9915   -11549.766    131.95939   -1005.8701   -795.49949    -762.5989   -269.60253   -62.002431    53.912995      46.7237      46.7237      46.7237           90           90           90     102002.7   -854.65615 
  994000       993496   -6477.0332    658.10939   -7135.1425    4404.5036   -11539.646    127.61969   -785.41241    -870.0597   -938.63808   -146.92404    -13.59228   -128.88379      46.7237      46.7237      46.7237           90           90           90     102002.7   -864.70339 
  995000       994496   -6461.5566    682.45221   -7144.0088    4399.7342   -11543.743    132.34022   -644.51302   -745.20531   -1150.5633    119.24955   -147.95593    -133.8616      46.7237      46.7237      46.7237           90           90           90     102002.7   -846.76053 
  996000       995496   -6458.1024    664.35791   -7122.4603    4416.4797    -11538.94    128.83139   -1043.3334   -797.66493   -1178.3006   -235.81348    223.65869    54.822518      46.7237      46.7237      46.7237           90           90           90     102002.7    -1006.433 
  997000       996496   -6459.2204    662.04646   -7121.2669    4426.9709   -11548.238    128.38316   -918.35697   -1285.4506    -762.8822   -167.45241    108.23056     79.52493      46.7237      46.7237      46.7237           90           90           90     102002.7   -988.89659 
  998000       997496   -6436.2193    675.21381   -7111.4331    4416.1868    -11527.62    130.93655   -939.84854   -866.43598   -766.97612   -24.245188   -105.86137   -2.5256958      46.7237      46.7237      46.7237           90           90           90     102002.7   -857.75354 
  999000       998496   -6461.6791    663.00368   -7124.6827    4432.2177     -11556.9    128.56878   -731.98568   -767.31078   -1028.8503   -254.25584    131.87658    156.45492      46.7237      46.7237      46.7237           90           90           90     102002.7    -842.7156 
 1000000       999496   -6445.2999    668.33004   -7113.6299    4442.5577   -11556.188    129.60166   -1091.0964   -582.57808   -436.53201    64.807719   -44.153923    7.7051845      46.7237      46.7237      46.7237           90           90           90     102002.7   -703.40216 
 1000504      1000000   -6421.8275     675.4102   -7097.2377    4444.7236   -11541.961    130.97464   -566.34595   -1152.0173   -451.02311   -47.633599   -135.78683   -81.852744      46.7237      46.7237      46.7237           90           90           90     102002.7   -723.12878 
Loop time of 1377.65 on 16 procs for 500000 steps with 1731 atoms

Performance: 31.358 ns/day, 0.765 hours/ns, 362.937 timesteps/s
99.9% CPU use with 16 MPI tasks x no OpenMP threads

MPI task timing breakdown:
Section |  min time  |  avg time  |  max time  |%varavg| %total
---------------------------------------------------------------
Pair    | 595.66     | 769.51     | 924.66     | 366.0 | 55.86
Bond    | 169.77     | 183.26     | 199.15     |  80.3 | 13.30
Neigh   | 3.8292     | 3.8523     | 3.8655     |   0.5 |  0.28
Comm    | 250.55     | 393.54     | 560.03     | 469.9 | 28.57
Output  | 0.097451   | 0.10225    | 0.10265    |   0.4 |  0.01
Modify  | 21.323     | 22.185     | 23.458     |  14.9 |  1.61
Other   |            | 5.201      |            |       |  0.38

Nlocal:    108.188 ave 135 max 85 min
Histogram: 2 0 4 0 4 1 1 2 1 1
Nghost:    2205.06 ave 2232 max 2180 min
Histogram: 2 1 1 3 1 2 3 1 0 2
Neighs:    11454.1 ave 16088 max 6670 min
Histogram: 2 0 0 1 5 2 4 1 0 1

Total # of neighbors = 183265
Ave neighs/atom = 105.872
Ave special neighs/atom = 6.65511
Neighbor list builds = 3416
Dangerous builds = 0
Total wall time: 0:44:03
