LAMMPS (30 Mar 2018)
Reading data file ...
  orthogonal box = (0 0 0) to (46.7237 46.7237 46.7237)
  2 by 2 by 4 MPI processor grid
  reading atoms ...
  1950 atoms
  scanning bonds ...
  5 = max bonds/atom
  scanning angles ...
  10 = max angles/atom
  scanning dihedrals ...
  32 = max dihedrals/atom
  scanning impropers ...
  3 = max impropers/atom
  reading bonds ...
  2064 bonds
  reading angles ...
  3696 angles
  reading dihedrals ...
  6240 dihedrals
  reading impropers ...
  1008 impropers
Finding 1-2 1-3 1-4 neighbors ...
  special bond factors lj:   0          0          0         
  special bond factors coul: 0          0          0         
  5 = max # of 1-2 neighbors
  8 = max # of 1-3 neighbors
  20 = max # of 1-4 neighbors
  19 = max # of special neighbors
Finding 1-2 1-3 1-4 neighbors ...
  special bond factors lj:   0          0          1         
  special bond factors coul: 1          1          1         
  5 = max # of 1-2 neighbors
  8 = max # of 1-3 neighbors
  19 = max # of special neighbors
WARNING: Using 'neigh_modify every 1 delay 0 check yes' setting during minimization (../min.cpp:168)
Neighbor list info ...
  update every 1 steps, delay 0 steps, check yes
  max neighbors/atom: 2000, page size: 100000
  master list distance cutoff = 16
  ghost atom cutoff = 16
  binsize = 8, bins = 6 6 6
  3 neighbor lists, perpetual/occasional/extra = 3 0 0
  (1) pair buck6d/coul/gauss/dsf, perpetual, skip from (3)
      attributes: half, newton on
      pair build: skip
      stencil: none
      bin: none
  (2) pair lj/cut, perpetual, skip from (3)
      attributes: half, newton on
      pair build: skip
      stencil: none
      bin: none
  (3) neighbor class addition, perpetual
      attributes: half, newton on
      pair build: half/bin/newton
      stencil: half/bin/3d/newton
      bin: standard
Setting up cg style minimization ...
  Unit style    : real
  Current step  : 0
WARNING: Inconsistent image flags (../domain.cpp:786)
Per MPI rank memory allocation (min/avg/max) = 22.9 | 23.36 | 23.81 Mbytes
Step Temp E_pair E_mol TotEng Press 
       0            0    -12217.49    6482.8914   -5734.5983    6094.3456 
     501            0   -12296.254    3731.9669   -8564.2873    -678.3201 
Loop time of 3.10837 on 16 procs for 501 steps with 1950 atoms

99.9% CPU use with 16 MPI tasks x no OpenMP threads

Minimization stats:
  Stopping criterion = max force evaluations
  Energy initial, next-to-last, final = 
        -5734.59825101     -8564.26711633     -8564.28732276
  Force two-norm initial, final = 2575.7 6.64439
  Force max component initial, final = 151.924 1.01389
  Final line search alpha, max atom move = 0.00862283 0.00874261
  Iterations, force evaluations = 501 1001

MPI task timing breakdown:
Section |  min time  |  avg time  |  max time  |%varavg| %total
---------------------------------------------------------------
Pair    | 1.3606     | 1.773      | 2.3792     |  21.1 | 57.04
Bond    | 0.28391    | 0.36104    | 0.42912    |   7.1 | 11.62
Neigh   | 0.020828   | 0.020958   | 0.021189   |   0.1 |  0.67
Comm    | 0.26531    | 0.91308    | 1.3374     |  29.1 | 29.37
Output  | 0          | 0          | 0          |   0.0 |  0.00
Modify  | 0          | 0          | 0          |   0.0 |  0.00
Other   |            | 0.04028    |            |       |  1.30

Nlocal:    121.875 ave 138 max 105 min
Histogram: 1 0 1 4 3 1 2 2 1 1
Nghost:    2393 ave 2406 max 2381 min
Histogram: 3 1 0 2 2 3 1 1 0 3
Neighs:    11461.4 ave 15402 max 8218 min
Histogram: 2 2 4 0 1 1 1 2 1 2

Total # of neighbors = 183382
Ave neighs/atom = 94.0421
Ave special neighs/atom = 5.90769
Neighbor list builds = 13
Dangerous builds = 0
Neighbor list info ...
  update every 1 steps, delay 10 steps, check yes
  max neighbors/atom: 2000, page size: 100000
  master list distance cutoff = 16
  ghost atom cutoff = 16
  binsize = 8, bins = 6 6 6
  3 neighbor lists, perpetual/occasional/extra = 3 0 0
  (1) pair buck6d/coul/gauss/dsf, perpetual, skip from (3)
      attributes: half, newton on
      pair build: skip
      stencil: none
      bin: none
  (2) pair lj/cut, perpetual, skip from (3)
      attributes: half, newton on
      pair build: skip
      stencil: none
      bin: none
  (3) neighbor class addition, perpetual
      attributes: half, newton on
      pair build: half/bin/newton
      stencil: half/bin/3d/newton
      bin: standard
Setting up Verlet run ...
  Unit style    : real
  Current step  : 501
  Time step     : 1
WARNING: Inconsistent image flags (../domain.cpp:786)
Per MPI rank memory allocation (min/avg/max) = 22.55 | 22.65 | 23.01 Mbytes
Step Temp PotEng TotEng Press Volume Lx Ly Lz 
     501           91   -8564.2873   -8035.6138   -441.39629     102002.7      46.7237      46.7237      46.7237 
    1000    76.219728   -8077.7825   -7634.9764   -581.83068     102002.7      46.7237      46.7237      46.7237 
    2000    98.895954   -8024.4216   -7449.8758   -737.41902     102002.7      46.7237      46.7237      46.7237 
    3000    89.392704   -8005.8249   -7486.4891     -996.464     102002.7      46.7237      46.7237      46.7237 
    4000    89.854449    -8023.052   -7501.0337   -558.94592     102002.7      46.7237      46.7237      46.7237 
    5000    93.792977   -8013.7955   -7468.8959   -686.55351     102002.7      46.7237      46.7237      46.7237 
    6000    90.547097   -8010.1037   -7484.0613   -657.71389     102002.7      46.7237      46.7237      46.7237 
    7000    88.933668   -8028.7746   -7512.1057    -639.6171     102002.7      46.7237      46.7237      46.7237 
    8000    91.842058   -8017.4245    -7483.859   -720.29795     102002.7      46.7237      46.7237      46.7237 
    9000    90.219222   -7999.6464   -7475.5089   -586.51088     102002.7      46.7237      46.7237      46.7237 
   10000    92.923577    -8006.463   -7466.6143   -658.76359     102002.7      46.7237      46.7237      46.7237 
   11000    87.464462   -8010.5039   -7502.3704   -844.81614     102002.7      46.7237      46.7237      46.7237 
   12000    91.326314   -8007.5226   -7476.9534   -447.71984     102002.7      46.7237      46.7237      46.7237 
   13000    88.716627   -8018.8207   -7503.4127   -559.43105     102002.7      46.7237      46.7237      46.7237 
   14000    88.342156   -8010.1658   -7496.9333   -732.85234     102002.7      46.7237      46.7237      46.7237 
   15000    90.418592   -7993.0154   -7467.7197   -892.81543     102002.7      46.7237      46.7237      46.7237 
   16000    90.694999   -8015.2897   -7488.3882   -512.63814     102002.7      46.7237      46.7237      46.7237 
   17000    89.466576   -8008.9744   -7489.2095   -609.85512     102002.7      46.7237      46.7237      46.7237 
   18000    90.270825   -8000.2013    -7475.764   -650.20201     102002.7      46.7237      46.7237      46.7237 
   19000    91.601702   -7996.8314   -7464.6622    -848.8547     102002.7      46.7237      46.7237      46.7237 
   20000    92.194109   -8004.2836   -7468.6728   -742.43157     102002.7      46.7237      46.7237      46.7237 
   21000    90.242211   -8023.6692   -7499.3981    -864.4011     102002.7      46.7237      46.7237      46.7237 
   22000    91.143101   -7998.1293   -7468.6244   -747.29037     102002.7      46.7237      46.7237      46.7237 
   23000    90.670512    -8013.118   -7486.3587   -661.42007     102002.7      46.7237      46.7237      46.7237 
   24000    90.187878   -8015.2082   -7491.2529   -788.47066     102002.7      46.7237      46.7237      46.7237 
   25000    90.511222    -8002.848   -7477.0142   -727.52978     102002.7      46.7237      46.7237      46.7237 
   26000    93.480934    -8015.364   -7472.2772   -687.97977     102002.7      46.7237      46.7237      46.7237 
   27000     89.19071   -8004.9441   -7486.7818   -687.85414     102002.7      46.7237      46.7237      46.7237 
   28000    93.975513   -8008.6114   -7462.6514   -796.64463     102002.7      46.7237      46.7237      46.7237 
   29000    94.183001   -8003.1637   -7455.9982   -821.72033     102002.7      46.7237      46.7237      46.7237 
   30000    88.653667   -8002.5071   -7487.4649     -593.792     102002.7      46.7237      46.7237      46.7237 
   31000    88.819146   -8009.5129   -7493.5093   -687.90976     102002.7      46.7237      46.7237      46.7237 
   32000    92.088301   -8006.2572   -7471.2611   -470.03361     102002.7      46.7237      46.7237      46.7237 
   33000    91.768008    -8010.801   -7477.6657   -978.87564     102002.7      46.7237      46.7237      46.7237 
   34000    89.486149   -7997.6043   -7477.7257   -996.26351     102002.7      46.7237      46.7237      46.7237 
   35000    91.643796   -7992.5014   -7460.0877   -931.65643     102002.7      46.7237      46.7237      46.7237 
   36000    92.539898   -7990.3377    -7452.718   -1028.8148     102002.7      46.7237      46.7237      46.7237 
   37000    90.216526   -8000.8497   -7476.7279    -681.8393     102002.7      46.7237      46.7237      46.7237 
   38000    87.314256   -7999.0183   -7491.7575   -832.66819     102002.7      46.7237      46.7237      46.7237 
   39000    94.294437   -7994.8122   -7446.9994   -941.60204     102002.7      46.7237      46.7237      46.7237 
   40000    89.777516   -8019.5369   -7497.9656   -670.19784     102002.7      46.7237      46.7237      46.7237 
   41000     92.32374   -8010.3621   -7473.9982   -778.73855     102002.7      46.7237      46.7237      46.7237 
   42000    90.430598   -8017.9678   -7492.6023   -1067.9607     102002.7      46.7237      46.7237      46.7237 
   43000    92.002327   -8004.3277   -7469.8311   -802.29878     102002.7      46.7237      46.7237      46.7237 
   44000    89.831973   -8014.8485   -7492.9608   -581.72276     102002.7      46.7237      46.7237      46.7237 
   45000    89.467667   -7996.3723   -7476.6011   -746.70862     102002.7      46.7237      46.7237      46.7237 
   46000    90.985294   -8010.5118   -7481.9237   -743.25071     102002.7      46.7237      46.7237      46.7237 
   47000    91.530152   -8005.2067   -7473.4533   -769.92015     102002.7      46.7237      46.7237      46.7237 
   48000      90.2961   -8001.5173   -7476.9332   -787.90434     102002.7      46.7237      46.7237      46.7237 
   49000    90.630254   -7998.8994    -7472.374   -528.52248     102002.7      46.7237      46.7237      46.7237 
   50000    93.107887    -7977.489   -7436.5695   -484.50266     102002.7      46.7237      46.7237      46.7237 
   51000    92.144156   -8011.1039   -7475.7833   -435.46263     102002.7      46.7237      46.7237      46.7237 
   52000    92.992494   -7989.9483   -7449.6992   -605.23326     102002.7      46.7237      46.7237      46.7237 
   53000    88.520818   -7988.5478   -7474.2773   -734.82981     102002.7      46.7237      46.7237      46.7237 
   54000     89.69319   -8014.0124    -7492.931   -416.29861     102002.7      46.7237      46.7237      46.7237 
   55000    88.669427   -7998.7841   -7483.6503   -705.54921     102002.7      46.7237      46.7237      46.7237 
   56000    91.396978   -8015.1265   -7484.1467   -837.38193     102002.7      46.7237      46.7237      46.7237 
   57000    89.056675   -8019.2351   -7501.8516   -813.93126     102002.7      46.7237      46.7237      46.7237 
   58000    88.840579   -8000.6323   -7484.5042   -816.13673     102002.7      46.7237      46.7237      46.7237 
   59000    91.333931    -7990.574   -7459.9605   -757.97892     102002.7      46.7237      46.7237      46.7237 
   60000    89.547058   -8009.4058   -7489.1733   -646.53534     102002.7      46.7237      46.7237      46.7237 
   61000    91.477852   -8003.5776   -7472.1279   -791.22173     102002.7      46.7237      46.7237      46.7237 
   62000    92.029947   -8012.6445   -7477.9874   -917.50551     102002.7      46.7237      46.7237      46.7237 
   63000    93.284854   -7991.8364   -7449.8888   -803.81803     102002.7      46.7237      46.7237      46.7237 
   64000    92.099951     -8013.41   -7478.3462   -733.97836     102002.7      46.7237      46.7237      46.7237 
   65000     90.13807   -7995.6464   -7471.9803   -835.63991     102002.7      46.7237      46.7237      46.7237 
   66000    89.422861   -8009.5425   -7490.0316   -717.25733     102002.7      46.7237      46.7237      46.7237 
   67000    87.235725   -7997.1589   -7490.3543    -949.9268     102002.7      46.7237      46.7237      46.7237 
   68000    94.307332   -7979.6887   -7431.8009   -828.32489     102002.7      46.7237      46.7237      46.7237 
   69000    89.742166   -8008.0561   -7486.6902   -808.33111     102002.7      46.7237      46.7237      46.7237 
   70000    88.910082   -8001.4021   -7484.8702   -740.95745     102002.7      46.7237      46.7237      46.7237 
   71000    88.679784   -7990.7672   -7475.5732    -761.0642     102002.7      46.7237      46.7237      46.7237 
   72000    94.102134   -7993.3986    -7446.703   -615.18922     102002.7      46.7237      46.7237      46.7237 
   73000    92.598649   -8017.2605   -7479.2995   -628.88059     102002.7      46.7237      46.7237      46.7237 
   74000    88.559544   -8006.6165   -7492.1211   -881.95933     102002.7      46.7237      46.7237      46.7237 
   75000    92.072792   -7992.1144   -7457.2085   -774.33858     102002.7      46.7237      46.7237      46.7237 
   76000    90.420671   -7994.5849   -7469.2771   -808.67991     102002.7      46.7237      46.7237      46.7237 
   77000    91.424034   -8007.6591   -7476.5222    -789.1389     102002.7      46.7237      46.7237      46.7237 
   78000    89.629335   -7992.8675    -7472.157   -963.21205     102002.7      46.7237      46.7237      46.7237 
   79000    90.198868   -8002.3121   -7478.2929   -771.07924     102002.7      46.7237      46.7237      46.7237 
   80000    89.208763   -7994.6255   -7476.3584   -936.38016     102002.7      46.7237      46.7237      46.7237 
   81000    91.817964   -7994.1588   -7460.7332    -838.9248     102002.7      46.7237      46.7237      46.7237 
   82000    92.092987   -8003.0426   -7468.0192   -746.59127     102002.7      46.7237      46.7237      46.7237 
   83000    90.380345   -8011.3108   -7486.2373   -830.83138     102002.7      46.7237      46.7237      46.7237 
   84000    90.927899    -7996.587   -7468.3324   -711.63867     102002.7      46.7237      46.7237      46.7237 
   85000    92.907954   -7987.0972   -7447.3392    -767.3271     102002.7      46.7237      46.7237      46.7237 
   86000    91.457066   -8008.8874   -7477.5585   -818.42408     102002.7      46.7237      46.7237      46.7237 
   87000     88.96482   -8014.9743   -7498.1244   -712.36091     102002.7      46.7237      46.7237      46.7237 
   88000    91.156934   -7998.9901   -7469.4049    -675.3256     102002.7      46.7237      46.7237      46.7237 
   89000    92.743091   -7999.9381   -7461.1379   -739.60076     102002.7      46.7237      46.7237      46.7237 
   90000    88.700856    -8003.429   -7488.1126   -590.01926     102002.7      46.7237      46.7237      46.7237 
   91000    86.033077   -8002.6688   -7502.8512   -652.63866     102002.7      46.7237      46.7237      46.7237 
   92000    91.128089   -7997.5318   -7468.1141   -524.99397     102002.7      46.7237      46.7237      46.7237 
   93000    91.798461   -8001.7222   -7468.4099   -850.34108     102002.7      46.7237      46.7237      46.7237 
   94000    91.160382   -8017.4505   -7487.8453   -973.96829     102002.7      46.7237      46.7237      46.7237 
   95000    89.258185    -7992.759   -7474.2047    -542.1434     102002.7      46.7237      46.7237      46.7237 
   96000    93.718321    -7989.302   -7444.8361   -670.37737     102002.7      46.7237      46.7237      46.7237 
   97000    91.867942   -8006.5791   -7472.8633   -702.31528     102002.7      46.7237      46.7237      46.7237 
   98000    90.094465   -8007.0171   -7483.6044   -898.91336     102002.7      46.7237      46.7237      46.7237 
   99000     90.69887   -8006.6385   -7479.7144   -801.80269     102002.7      46.7237      46.7237      46.7237 
  100000    87.835982   -7991.8277   -7481.5359   -605.41971     102002.7      46.7237      46.7237      46.7237 
  101000     90.07912   -8013.8855    -7490.562   -953.62385     102002.7      46.7237      46.7237      46.7237 
  102000    90.176852   -7997.6567   -7473.7653   -834.60542     102002.7      46.7237      46.7237      46.7237 
  103000    90.268278   -7988.4379   -7464.0154    -446.2225     102002.7      46.7237      46.7237      46.7237 
  104000    92.540167   -8006.1869   -7468.5656   -656.39515     102002.7      46.7237      46.7237      46.7237 
  105000    88.782228   -7986.3367   -7470.5475   -816.01335     102002.7      46.7237      46.7237      46.7237 
  106000    91.249636   -7993.1865   -7463.0627   -798.82448     102002.7      46.7237      46.7237      46.7237 
  107000    89.240235   -7972.2218   -7453.7719   -1197.6662     102002.7      46.7237      46.7237      46.7237 
  108000    92.190214   -7993.3359   -7457.7477   -730.85889     102002.7      46.7237      46.7237      46.7237 
  109000    93.018744    -7988.448   -7448.0464   -1019.6707     102002.7      46.7237      46.7237      46.7237 
  110000    90.504815   -8004.5406   -7478.7439   -894.16576     102002.7      46.7237      46.7237      46.7237 
  111000    93.439881   -7995.6965   -7452.8482   -726.95199     102002.7      46.7237      46.7237      46.7237 
  112000    92.861472   -7990.8133   -7451.3254   -903.14349     102002.7      46.7237      46.7237      46.7237 
  113000    90.066981   -7986.4927   -7463.2397   -782.62359     102002.7      46.7237      46.7237      46.7237 
  114000    91.256917   -8000.7919   -7470.6259   -828.07923     102002.7      46.7237      46.7237      46.7237 
  115000    87.512734   -7991.0464   -7482.6325   -785.97865     102002.7      46.7237      46.7237      46.7237 
  116000    89.966302   -8000.8695   -7478.2014   -791.76547     102002.7      46.7237      46.7237      46.7237 
  117000    88.198725   -7989.1459   -7476.7467    -907.0436     102002.7      46.7237      46.7237      46.7237 
  118000    89.816042   -7987.5004   -7465.7053   -963.81016     102002.7      46.7237      46.7237      46.7237 
  119000    92.434944   -8009.4263   -7472.4164   -877.24506     102002.7      46.7237      46.7237      46.7237 
  120000    91.637195   -7975.2125   -7442.8372   -972.79739     102002.7      46.7237      46.7237      46.7237 
  121000    91.454846   -8004.6556   -7473.3397   -615.06029     102002.7      46.7237      46.7237      46.7237 
  122000    89.732102   -8000.3172   -7479.0096   -643.97644     102002.7      46.7237      46.7237      46.7237 
  123000    89.626404   -7999.0349   -7478.3414   -810.62719     102002.7      46.7237      46.7237      46.7237 
  124000    91.194312    -7982.497   -7452.6947   -834.74454     102002.7      46.7237      46.7237      46.7237 
  125000    92.861532   -8003.6826   -7464.1944   -568.03248     102002.7      46.7237      46.7237      46.7237 
  126000    90.938512    -7995.853   -7467.5367   -650.45152     102002.7      46.7237      46.7237      46.7237 
  127000     90.58683   -7988.0437   -7461.7706   -752.54279     102002.7      46.7237      46.7237      46.7237 
  128000     89.94503   -7986.7975    -7464.253   -560.08322     102002.7      46.7237      46.7237      46.7237 
  129000    91.468179    -7996.834   -7465.4406   -796.90249     102002.7      46.7237      46.7237      46.7237 
  130000     87.97774    -8016.259   -7505.1436   -469.56385     102002.7      46.7237      46.7237      46.7237 
  131000     91.60432   -8002.0042   -7469.8198   -680.83787     102002.7      46.7237      46.7237      46.7237 
  132000    90.711273   -8001.5096   -7474.5135   -639.28502     102002.7      46.7237      46.7237      46.7237 
  133000    90.779683   -7979.9396   -7452.5461   -552.11888     102002.7      46.7237      46.7237      46.7237 
  134000    89.278111   -8008.1561   -7489.4861   -459.02884     102002.7      46.7237      46.7237      46.7237 
  135000    93.713741   -7999.3173   -7454.8781   -741.02415     102002.7      46.7237      46.7237      46.7237 
  136000    89.568393   -8003.5827   -7483.2262   -722.55117     102002.7      46.7237      46.7237      46.7237 
  137000    89.948899   -7999.8221   -7477.2551   -665.40017     102002.7      46.7237      46.7237      46.7237 
  138000    92.300295   -7987.2756   -7451.0479   -538.59372     102002.7      46.7237      46.7237      46.7237 
  139000    93.586182   -8008.0075   -7464.3093   -804.22891     102002.7      46.7237      46.7237      46.7237 
  140000    87.218275    -7989.225   -7482.5218   -806.84354     102002.7      46.7237      46.7237      46.7237 
  141000     95.89822   -7996.6152   -7439.4851   -715.85832     102002.7      46.7237      46.7237      46.7237 
  142000     87.14874   -7981.9092     -7475.61   -703.71152     102002.7      46.7237      46.7237      46.7237 
  143000    90.867355   -8015.6799   -7487.7771    -727.1776     102002.7      46.7237      46.7237      46.7237 
  144000    91.248008   -8006.9574   -7476.8431   -646.19128     102002.7      46.7237      46.7237      46.7237 
  145000     92.37563   -8008.0674    -7471.402   -839.37545     102002.7      46.7237      46.7237      46.7237 
  146000    89.576883   -8013.2818   -7492.8761   -780.71739     102002.7      46.7237      46.7237      46.7237 
  147000    93.766243   -8008.9805   -7464.2363   -1068.1885     102002.7      46.7237      46.7237      46.7237 
  148000    88.729981   -8002.9298   -7487.4442   -814.00775     102002.7      46.7237      46.7237      46.7237 
  149000    93.269106   -8010.0385   -7468.1824    -663.9516     102002.7      46.7237      46.7237      46.7237 
  150000    94.111107   -8003.0248    -7456.277   -1028.5906     102002.7      46.7237      46.7237      46.7237 
  151000    90.153373   -7985.5187   -7461.7638   -487.04559     102002.7      46.7237      46.7237      46.7237 
  152000    87.987387   -7999.0245   -7487.8531   -589.20739     102002.7      46.7237      46.7237      46.7237 
  153000    91.301707   -7997.2956   -7466.8693   -731.45539     102002.7      46.7237      46.7237      46.7237 
  154000    91.615127   -8010.3219   -7478.0748   -634.63021     102002.7      46.7237      46.7237      46.7237 
  155000    91.147077    -7992.243    -7462.715   -811.41507     102002.7      46.7237      46.7237      46.7237 
  156000    91.438093   -7998.1078   -7466.8891    -661.5787     102002.7      46.7237      46.7237      46.7237 
  157000    93.523019   -7994.6122    -7451.281   -900.63441     102002.7      46.7237      46.7237      46.7237 
  158000    92.817011   -8022.5931   -7483.3635   -872.59687     102002.7      46.7237      46.7237      46.7237 
  159000    85.903928   -8009.7694    -7510.702   -420.96666     102002.7      46.7237      46.7237      46.7237 
  160000    95.781831     -8020.21   -7463.7559   -607.02795     102002.7      46.7237      46.7237      46.7237 
  161000    91.837615   -8015.5984   -7482.0587   -837.70309     102002.7      46.7237      46.7237      46.7237 
  162000    91.580546   -8024.6758   -7492.6296    -654.9775     102002.7      46.7237      46.7237      46.7237 
  163000      90.9623   -8000.9168   -7472.4623   -822.90179     102002.7      46.7237      46.7237      46.7237 
  164000    92.468324   -8007.1117   -7469.9078   -963.88326     102002.7      46.7237      46.7237      46.7237 
  165000    90.664507   -8001.3136   -7474.5892   -725.33994     102002.7      46.7237      46.7237      46.7237 
  166000    92.033746   -7997.5237   -7462.8446   -912.73604     102002.7      46.7237      46.7237      46.7237 
  167000    93.875081   -7994.2742   -7448.8976   -939.13455     102002.7      46.7237      46.7237      46.7237 
  168000    90.011559   -8008.1892   -7485.2582   -576.16066     102002.7      46.7237      46.7237      46.7237 
  169000    94.758452   -8004.7885     -7454.28   -828.62017     102002.7      46.7237      46.7237      46.7237 
  170000    89.066852   -7994.0456   -7476.6029   -644.53692     102002.7      46.7237      46.7237      46.7237 
  171000     89.98307   -7993.8038   -7471.0383   -771.07842     102002.7      46.7237      46.7237      46.7237 
  172000    91.294099   -8009.2914   -7478.9093   -619.12177     102002.7      46.7237      46.7237      46.7237 
  173000    91.705004   -7983.9603    -7451.191   -863.36007     102002.7      46.7237      46.7237      46.7237 
  174000    89.851958   -8005.2223   -7483.2185   -811.56871     102002.7      46.7237      46.7237      46.7237 
  175000    93.194497   -7995.0295   -7453.6069   -770.51787     102002.7      46.7237      46.7237      46.7237 
  176000    91.026913   -8005.7819   -7476.9521   -744.08977     102002.7      46.7237      46.7237      46.7237 
  177000    92.350519   -8006.3267   -7469.8073   -656.38907     102002.7      46.7237      46.7237      46.7237 
  178000    90.243813    -8008.615   -7484.3346   -897.40945     102002.7      46.7237      46.7237      46.7237 
  179000    89.804188   -8016.2102   -7494.4839   -859.14268     102002.7      46.7237      46.7237      46.7237 
  180000    91.796739   -7999.6591   -7466.3569   -539.97816     102002.7      46.7237      46.7237      46.7237 
  181000     92.48887   -8002.2445   -7464.9213   -585.12472     102002.7      46.7237      46.7237      46.7237 
  182000    92.430707   -7990.2823    -7453.297   -563.75699     102002.7      46.7237      46.7237      46.7237 
  183000    92.237759   -8008.6799   -7472.8155   -874.99238     102002.7      46.7237      46.7237      46.7237 
  184000    90.188592   -8014.3061   -7490.3465   -550.08116     102002.7      46.7237      46.7237      46.7237 
  185000    91.034967    -7983.737   -7454.8604   -596.73533     102002.7      46.7237      46.7237      46.7237 
  186000     86.32928   -7998.5553   -7497.0168   -852.96129     102002.7      46.7237      46.7237      46.7237 
  187000    91.912875   -8007.7102   -7473.7332    -629.6035     102002.7      46.7237      46.7237      46.7237 
  188000    90.988198   -8002.8899    -7474.285   -944.21767     102002.7      46.7237      46.7237      46.7237 
  189000    91.771272   -8013.0867   -7479.9325   -689.61023     102002.7      46.7237      46.7237      46.7237 
  190000    92.334797   -8015.8399   -7479.4118   -661.52099     102002.7      46.7237      46.7237      46.7237 
  191000    89.448991   -7993.4139   -7473.7512   -844.85328     102002.7      46.7237      46.7237      46.7237 
  192000    91.886073    -8001.233   -7467.4118   -515.23119     102002.7      46.7237      46.7237      46.7237 
  193000    91.509015    -8003.444   -7471.8133   -958.02314     102002.7      46.7237      46.7237      46.7237 
  194000    88.278753   -7998.6819   -7485.8177   -690.71449     102002.7      46.7237      46.7237      46.7237 
  195000    88.937285   -7989.3367   -7472.6467   -889.09355     102002.7      46.7237      46.7237      46.7237 
  196000    91.446501   -8005.7689   -7474.5014   -769.30594     102002.7      46.7237      46.7237      46.7237 
  197000    89.653975   -7986.1738   -7465.3202   -598.20075     102002.7      46.7237      46.7237      46.7237 
  198000    90.284764   -8003.8498   -7479.3315   -785.08859     102002.7      46.7237      46.7237      46.7237 
  199000    93.474672   -7990.0716   -7447.0213   -972.67344     102002.7      46.7237      46.7237      46.7237 
  200000    89.633448    -8009.361   -7488.6266   -651.32718     102002.7      46.7237      46.7237      46.7237 
  201000    89.058539   -7985.7632   -7468.3688   -784.66871     102002.7      46.7237      46.7237      46.7237 
  202000    93.539693   -7993.0482   -7449.6201   -690.84136     102002.7      46.7237      46.7237      46.7237 
  203000    91.022547   -8014.1767   -7485.3722   -889.59136     102002.7      46.7237      46.7237      46.7237 
  204000    92.595765   -7998.6457   -7460.7015   -988.26758     102002.7      46.7237      46.7237      46.7237 
  205000    92.610483    -7987.347   -7449.3172   -629.28141     102002.7      46.7237      46.7237      46.7237 
  206000    91.434016   -8008.7979    -7477.603   -1019.2917     102002.7      46.7237      46.7237      46.7237 
  207000    89.624597   -7990.9406   -7470.2576   -854.06624     102002.7      46.7237      46.7237      46.7237 
  208000    91.869506   -7998.7589   -7465.0339    -681.0921     102002.7      46.7237      46.7237      46.7237 
  209000    91.455631   -7990.0723   -7458.7518   -668.71279     102002.7      46.7237      46.7237      46.7237 
  210000    91.504242   -8007.6231   -7476.0202   -594.63815     102002.7      46.7237      46.7237      46.7237 
  211000    92.109728   -8015.6952   -7480.5747   -1000.8914     102002.7      46.7237      46.7237      46.7237 
  212000     91.60912   -8008.7977   -7476.5854   -714.11345     102002.7      46.7237      46.7237      46.7237 
  213000    91.284673    -7987.588   -7457.2607   -668.62522     102002.7      46.7237      46.7237      46.7237 
  214000    89.872703   -7994.3089   -7472.1845   -959.56849     102002.7      46.7237      46.7237      46.7237 
  215000    91.434092   -8013.5456   -7482.3502   -917.08862     102002.7      46.7237      46.7237      46.7237 
  216000    91.765862   -7992.8918    -7459.769   -912.18271     102002.7      46.7237      46.7237      46.7237 
  217000    91.588066   -8015.4724   -7483.3825   -877.85247     102002.7      46.7237      46.7237      46.7237 
  218000    87.322425    -7997.412   -7490.1037    -679.7793     102002.7      46.7237      46.7237      46.7237 
  219000    91.803204   -7989.7452   -7456.4055   -671.34082     102002.7      46.7237      46.7237      46.7237 
  220000    92.832391   -8003.0696   -7463.7506   -709.91567     102002.7      46.7237      46.7237      46.7237 
  221000    88.867797   -8006.1593   -7489.8731   -649.72048     102002.7      46.7237      46.7237      46.7237 
  222000    92.304757   -8012.6071   -7476.3535     -900.884     102002.7      46.7237      46.7237      46.7237 
  223000    92.281082    -7992.774   -7456.6579   -657.63254     102002.7      46.7237      46.7237      46.7237 
  224000    89.036451   -7985.8607   -7468.5947   -580.97136     102002.7      46.7237      46.7237      46.7237 
  225000    91.938751   -7997.4338   -7463.3066   -773.79904     102002.7      46.7237      46.7237      46.7237 
  226000    91.404534   -8010.6061   -7479.5824   -865.41841     102002.7      46.7237      46.7237      46.7237 
  227000    89.555128   -7989.7946   -7469.5153    -873.1751     102002.7      46.7237      46.7237      46.7237 
  228000      93.6075   -7990.2772   -7446.4552   -910.16694     102002.7      46.7237      46.7237      46.7237 
  229000    90.518068   -7978.9848   -7453.1112   -1048.3867     102002.7      46.7237      46.7237      46.7237 
  230000    91.319468   -7998.2149   -7467.6855   -992.86361     102002.7      46.7237      46.7237      46.7237 
  231000    93.486626   -7993.8121   -7450.6923   -953.01682     102002.7      46.7237      46.7237      46.7237 
  232000    91.243193   -8000.1159   -7470.0295   -1160.8907     102002.7      46.7237      46.7237      46.7237 
  233000    88.521668   -8003.4687   -7489.1934   -1044.9061     102002.7      46.7237      46.7237      46.7237 
  234000    90.446316   -7983.3925   -7457.9357    -595.0038     102002.7      46.7237      46.7237      46.7237 
  235000    91.408689   -8010.1777   -7479.1299    -813.0313     102002.7      46.7237      46.7237      46.7237 
  236000    92.047282   -8004.5441   -7469.7863   -1012.2089     102002.7      46.7237      46.7237      46.7237 
  237000    90.534505   -8026.0294   -7500.0602   -680.20155     102002.7      46.7237      46.7237      46.7237 
  238000    90.610421    -8015.773   -7489.3629   -891.68966     102002.7      46.7237      46.7237      46.7237 
  239000    87.170564    -7984.631    -7478.205   -720.00842     102002.7      46.7237      46.7237      46.7237 
  240000    91.943409   -8003.9633    -7469.809   -766.81139     102002.7      46.7237      46.7237      46.7237 
  241000     89.92454   -7997.9082   -7475.4827   -744.59451     102002.7      46.7237      46.7237      46.7237 
  242000    87.609864   -7985.4183   -7476.4401   -635.96836     102002.7      46.7237      46.7237      46.7237 
  243000    91.262387   -7989.9042   -7459.7063   -752.34055     102002.7      46.7237      46.7237      46.7237 
  244000     92.61745   -8006.7032   -7468.6329   -897.26538     102002.7      46.7237      46.7237      46.7237 
  245000    90.032836   -7997.3539   -7474.2993   -803.24321     102002.7      46.7237      46.7237      46.7237 
  246000    89.327854   -7974.3954   -7455.4364   -844.40946     102002.7      46.7237      46.7237      46.7237 
  247000     92.67523   -8013.5119    -7475.106   -665.57432     102002.7      46.7237      46.7237      46.7237 
  248000    90.491286   -8015.7664   -7490.0484   -923.35163     102002.7      46.7237      46.7237      46.7237 
  249000    88.914046   -7998.1469   -7481.5919   -909.10862     102002.7      46.7237      46.7237      46.7237 
  250000    92.617071    -8008.133    -7470.065   -804.13266     102002.7      46.7237      46.7237      46.7237 
  251000    91.601888   -7996.3133   -7464.1431   -770.97143     102002.7      46.7237      46.7237      46.7237 
  252000    90.228075   -8001.0428   -7476.8539   -684.56538     102002.7      46.7237      46.7237      46.7237 
  253000    88.906401   -7983.8872   -7467.3767   -578.03038     102002.7      46.7237      46.7237      46.7237 
  254000    90.849871   -7985.5153    -7457.714   -621.77269     102002.7      46.7237      46.7237      46.7237 
  255000    90.921442   -8008.0106   -7479.7935   -764.90088     102002.7      46.7237      46.7237      46.7237 
  256000    90.847679   -7997.2982   -7469.5097   -355.25125     102002.7      46.7237      46.7237      46.7237 
  257000    91.220274   -7970.7344   -7440.7812   -937.81305     102002.7      46.7237      46.7237      46.7237 
  258000    88.704678   -7987.3396    -7472.001    -469.6892     102002.7      46.7237      46.7237      46.7237 
  259000    91.437343   -8001.1983    -7469.984   -532.67336     102002.7      46.7237      46.7237      46.7237 
  260000    89.429461   -7997.2835   -7477.7342    -695.3415     102002.7      46.7237      46.7237      46.7237 
  261000    88.766405   -7994.6944   -7478.9972   -552.41614     102002.7      46.7237      46.7237      46.7237 
  262000    93.942937   -7993.3259   -7447.5551   -704.41921     102002.7      46.7237      46.7237      46.7237 
  263000    92.455424    -8002.086   -7464.9571   -672.74626     102002.7      46.7237      46.7237      46.7237 
  264000    93.201359   -8017.5423   -7476.0798   -710.33424     102002.7      46.7237      46.7237      46.7237 
  265000    88.859106   -7999.6318   -7483.3961   -796.46295     102002.7      46.7237      46.7237      46.7237 
  266000    91.965178   -7999.9121   -7465.6313   -805.48939     102002.7      46.7237      46.7237      46.7237 
  267000    89.038366   -8009.6065   -7492.3294   -866.21707     102002.7      46.7237      46.7237      46.7237 
  268000    90.928464   -7998.1918   -7469.9339   -965.92855     102002.7      46.7237      46.7237      46.7237 
  269000    91.003229   -7998.2574   -7469.5652   -855.73646     102002.7      46.7237      46.7237      46.7237 
  270000    91.701534   -7992.2593   -7459.5102   -921.53126     102002.7      46.7237      46.7237      46.7237 
  271000     91.74499   -8017.2972   -7484.2956   -864.43712     102002.7      46.7237      46.7237      46.7237 
  272000     87.75684   -8009.9584   -7500.1264   -824.30602     102002.7      46.7237      46.7237      46.7237 
  273000    89.039985   -8017.0255   -7499.7389   -831.72371     102002.7      46.7237      46.7237      46.7237 
  274000    91.582838   -8001.6143   -7469.5547   -663.02975     102002.7      46.7237      46.7237      46.7237 
  275000    90.483951   -8017.1581   -7491.4827   -590.25087     102002.7      46.7237      46.7237      46.7237 
  276000    89.570957   -7991.6408   -7471.2694   -678.87341     102002.7      46.7237      46.7237      46.7237 
  277000    92.052746   -8005.0736    -7470.284   -791.61177     102002.7      46.7237      46.7237      46.7237 
  278000    92.235017   -7980.5557   -7444.7073    -1105.225     102002.7      46.7237      46.7237      46.7237 
  279000    91.452793   -8001.7709   -7470.4668   -722.55778     102002.7      46.7237      46.7237      46.7237 
  280000    89.081098   -8005.9284    -7488.403   -906.35951     102002.7      46.7237      46.7237      46.7237 
  281000    91.459131   -7997.6486   -7466.3078   -824.21824     102002.7      46.7237      46.7237      46.7237 
  282000    93.454626   -7984.7091   -7441.7752   -939.92958     102002.7      46.7237      46.7237      46.7237 
  283000    89.804643   -7987.8272   -7466.0983   -754.91739     102002.7      46.7237      46.7237      46.7237 
  284000    92.601408   -7989.9792   -7452.0021   -851.97971     102002.7      46.7237      46.7237      46.7237 
  285000    92.531482    -7998.569   -7460.9982    -978.5395     102002.7      46.7237      46.7237      46.7237 
  286000    88.021374   -7989.6351   -7478.2662   -645.26881     102002.7      46.7237      46.7237      46.7237 
  287000    91.513038   -7985.7524   -7454.0984   -637.33727     102002.7      46.7237      46.7237      46.7237 
  288000    90.629345   -7996.0147   -7469.4946   -935.14251     102002.7      46.7237      46.7237      46.7237 
  289000    91.227696    -8021.984   -7491.9877   -841.93485     102002.7      46.7237      46.7237      46.7237 
  290000    92.036901   -8001.6259   -7466.9285   -884.13182     102002.7      46.7237      46.7237      46.7237 
  291000    92.124351   -7997.7085    -7462.503   -847.52684     102002.7      46.7237      46.7237      46.7237 
  292000    89.971652   -8002.4197   -7479.7205   -1013.2007     102002.7      46.7237      46.7237      46.7237 
  293000    94.351458   -8003.2268   -7455.0827   -984.28659     102002.7      46.7237      46.7237      46.7237 
  294000    88.093727   -7998.4855   -7486.6962   -1038.2329     102002.7      46.7237      46.7237      46.7237 
  295000    90.293836    -7998.235    -7473.664   -724.11325     102002.7      46.7237      46.7237      46.7237 
  296000    89.600377   -7998.6026   -7478.0604   -975.70046     102002.7      46.7237      46.7237      46.7237 
  297000    92.223547    -7987.081   -7451.2992   -649.31313     102002.7      46.7237      46.7237      46.7237 
  298000    89.149617   -7992.6352   -7474.7117   -812.11521     102002.7      46.7237      46.7237      46.7237 
  299000    90.671065   -7994.3317   -7467.5692   -707.86257     102002.7      46.7237      46.7237      46.7237 
  300000    89.703327   -7995.1492   -7474.0089   -426.26055     102002.7      46.7237      46.7237      46.7237 
  301000    88.954288     -7977.29   -7460.5013   -1000.7068     102002.7      46.7237      46.7237      46.7237 
  302000    90.932685   -7980.8636   -7452.5812   -794.86808     102002.7      46.7237      46.7237      46.7237 
  303000    91.634606   -7996.2824   -7463.9221   -787.73796     102002.7      46.7237      46.7237      46.7237 
  304000    92.250007   -8005.5432   -7469.6077   -797.46282     102002.7      46.7237      46.7237      46.7237 
  305000    90.483095   -7991.0787   -7465.4083   -884.82958     102002.7      46.7237      46.7237      46.7237 
  306000    92.610235   -7986.2549   -7448.2266   -1094.7816     102002.7      46.7237      46.7237      46.7237 
  307000    92.568082   -7979.6213   -7441.8379      -862.27     102002.7      46.7237      46.7237      46.7237 
  308000    91.578842   -7996.8375   -7464.8011   -863.66657     102002.7      46.7237      46.7237      46.7237 
  309000    90.536026   -7996.0198   -7470.0418   -700.91498     102002.7      46.7237      46.7237      46.7237 
  310000    90.331727   -8008.1629   -7483.3718   -667.75789     102002.7      46.7237      46.7237      46.7237 
  311000    92.625368    -8004.978   -7466.8618   -727.04049     102002.7      46.7237      46.7237      46.7237 
  312000    92.381817   -7981.4344   -7444.7331   -721.39234     102002.7      46.7237      46.7237      46.7237 
  313000    89.681368   -7996.6481   -7475.6353   -609.35806     102002.7      46.7237      46.7237      46.7237 
  314000     93.85529    -7990.637   -7445.3754   -914.61947     102002.7      46.7237      46.7237      46.7237 
  315000     93.55922   -8002.2704   -7458.7289   -848.22457     102002.7      46.7237      46.7237      46.7237 
  316000     90.59478   -7997.0944   -7470.7751   -1043.8761     102002.7      46.7237      46.7237      46.7237 
  317000    90.372723   -8019.3999   -7494.3706    -868.3352     102002.7      46.7237      46.7237      46.7237 
  318000    91.811879   -7991.8239   -7458.4337   -914.59271     102002.7      46.7237      46.7237      46.7237 
  319000    91.581815   -8009.4266    -7477.373   -805.51907     102002.7      46.7237      46.7237      46.7237 
  320000    90.362693   -7987.8748   -7462.9038   -826.34783     102002.7      46.7237      46.7237      46.7237 
  321000    89.401619    -7996.869   -7477.4815   -936.60216     102002.7      46.7237      46.7237      46.7237 
  322000    90.397712   -8000.7172   -7475.5428   -741.15025     102002.7      46.7237      46.7237      46.7237 
  323000    91.389735   -7964.6945   -7433.7568   -727.60583     102002.7      46.7237      46.7237      46.7237 
  324000    92.032001   -8003.2103   -7468.5413    -619.3324     102002.7      46.7237      46.7237      46.7237 
  325000    90.425304   -7992.1533   -7466.8185   -851.18137     102002.7      46.7237      46.7237      46.7237 
  326000    89.412404   -7984.6851   -7465.2349   -710.89215     102002.7      46.7237      46.7237      46.7237 
  327000    92.175186   -8009.3961   -7473.8952   -743.99198     102002.7      46.7237      46.7237      46.7237 
  328000     93.02882   -7999.0008   -7458.5406   -807.25688     102002.7      46.7237      46.7237      46.7237 
  329000    90.737538   -7995.6248   -7468.4761   -610.75091     102002.7      46.7237      46.7237      46.7237 
  330000    93.612103   -7999.6366   -7455.7878   -708.41965     102002.7      46.7237      46.7237      46.7237 
  331000    89.369136   -7996.5571   -7477.3583   -787.19258     102002.7      46.7237      46.7237      46.7237 
  332000    90.884854   -7994.2845     -7466.28   -571.30749     102002.7      46.7237      46.7237      46.7237 
  333000    91.815917   -7986.0404   -7452.6267   -746.63852     102002.7      46.7237      46.7237      46.7237 
  334000    87.424577   -7986.1587    -7478.257   -581.78571     102002.7      46.7237      46.7237      46.7237 
  335000    92.603822   -8006.6221   -7468.6311   -759.44719     102002.7      46.7237      46.7237      46.7237 
  336000    90.682603   -8004.6198   -7477.7902   -618.17797     102002.7      46.7237      46.7237      46.7237 
  337000    90.314439   -7994.9509   -7470.2603   -769.99757     102002.7      46.7237      46.7237      46.7237 
  338000    88.784838   -8005.1829   -7489.3787    -1034.295     102002.7      46.7237      46.7237      46.7237 
  339000    91.090687   -7994.1141   -7464.9138   -791.92766     102002.7      46.7237      46.7237      46.7237 
  340000    88.703223   -7988.5202   -7473.1901   -730.26755     102002.7      46.7237      46.7237      46.7237 
  341000     91.88021   -8010.4009   -7476.6138   -641.81189     102002.7      46.7237      46.7237      46.7237 
  342000    93.962449   -7988.7614   -7442.8773   -512.82133     102002.7      46.7237      46.7237      46.7237 
  343000    91.878821   -8010.8946   -7477.1156   -878.84083     102002.7      46.7237      46.7237      46.7237 
  344000    92.141114   -8018.1267   -7482.8238   -869.01437     102002.7      46.7237      46.7237      46.7237 
  345000    93.794209   -8000.1417    -7455.235   -887.57627     102002.7      46.7237      46.7237      46.7237 
  346000    91.173207   -7999.6574   -7469.9776   -694.46515     102002.7      46.7237      46.7237      46.7237 
  347000    89.873285   -8004.1183   -7481.9906    -643.4285     102002.7      46.7237      46.7237      46.7237 
  348000    89.950018   -8000.0948   -7477.5213   -683.23019     102002.7      46.7237      46.7237      46.7237 
  349000    94.352892   -7998.7032   -7450.5508   -720.44518     102002.7      46.7237      46.7237      46.7237 
  350000    88.763285   -7993.4313   -7477.7522    -834.2704     102002.7      46.7237      46.7237      46.7237 
  351000    88.544015    -7999.523   -7485.1178   -843.84868     102002.7      46.7237      46.7237      46.7237 
  352000    92.338925   -7998.3919   -7461.9398    -575.7476     102002.7      46.7237      46.7237      46.7237 
  353000    92.748077   -7986.8701    -7448.041   -915.85569     102002.7      46.7237      46.7237      46.7237 
  354000    89.678953   -8012.4295   -7491.4307   -601.25955     102002.7      46.7237      46.7237      46.7237 
  355000    90.704774   -8002.9534    -7475.995    -705.7874     102002.7      46.7237      46.7237      46.7237 
  356000    93.004111   -8011.5487   -7471.2321   -971.25321     102002.7      46.7237      46.7237      46.7237 
  357000    91.819248   -8015.0986   -7481.6656   -653.21901     102002.7      46.7237      46.7237      46.7237 
  358000     92.22836   -8011.2115   -7475.4017   -633.84542     102002.7      46.7237      46.7237      46.7237 
  359000    92.211048   -8006.7468   -7471.0376   -799.79767     102002.7      46.7237      46.7237      46.7237 
  360000    89.084105   -8003.7845   -7486.2416   -855.68515     102002.7      46.7237      46.7237      46.7237 
  361000    92.534378   -8002.9762   -7465.3886   -811.65585     102002.7      46.7237      46.7237      46.7237 
  362000    89.750542   -7999.6488   -7478.2341   -759.24578     102002.7      46.7237      46.7237      46.7237 
  363000    93.820497   -8010.4108   -7465.3513   -743.05535     102002.7      46.7237      46.7237      46.7237 
  364000    92.931583   -7997.7814   -7457.8861   -732.37552     102002.7      46.7237      46.7237      46.7237 
  365000     89.11963   -7994.6772    -7476.928   -876.89004     102002.7      46.7237      46.7237      46.7237 
  366000    87.147543   -7999.7654   -7493.4731   -610.97254     102002.7      46.7237      46.7237      46.7237 
  367000    91.475293   -7993.4845   -7462.0497   -914.55948     102002.7      46.7237      46.7237      46.7237 
  368000    86.940313    -7995.487   -7490.3987    -910.6227     102002.7      46.7237      46.7237      46.7237 
  369000    92.031137   -8009.2979   -7474.6339   -660.42896     102002.7      46.7237      46.7237      46.7237 
  370000    92.342725   -7987.4923   -7451.0182   -588.86583     102002.7      46.7237      46.7237      46.7237 
  371000    88.434164   -8000.5966   -7486.8296   -584.42249     102002.7      46.7237      46.7237      46.7237 
  372000    91.225125   -8003.4762   -7473.4949   -454.87522     102002.7      46.7237      46.7237      46.7237 
  373000    91.028306   -7980.2626   -7451.4246   -672.39633     102002.7      46.7237      46.7237      46.7237 
  374000    90.218104   -8000.7217   -7476.5907   -649.52535     102002.7      46.7237      46.7237      46.7237 
  375000    91.827691   -7993.8979   -7460.4159   -755.15709     102002.7      46.7237      46.7237      46.7237 
  376000    88.087973   -8004.8352   -7493.0794   -948.23359     102002.7      46.7237      46.7237      46.7237 
  377000    92.374558   -7990.4542   -7453.7951    -790.4943     102002.7      46.7237      46.7237      46.7237 
  378000    92.211355   -8002.3222   -7466.6112   -872.36282     102002.7      46.7237      46.7237      46.7237 
  379000    88.014967   -7999.2516     -7487.92   -879.54979     102002.7      46.7237      46.7237      46.7237 
  380000    91.033565   -8010.4261   -7481.5576   -590.13517     102002.7      46.7237      46.7237      46.7237 
  381000     91.44699   -7984.2847   -7453.0144   -850.08005     102002.7      46.7237      46.7237      46.7237 
  382000    90.472781   -7998.7207   -7473.1101   -945.75058     102002.7      46.7237      46.7237      46.7237 
  383000    89.863968   -8012.6847   -7490.6111   -804.20839     102002.7      46.7237      46.7237      46.7237 
  384000    90.582065   -8002.6143   -7476.3689   -849.42617     102002.7      46.7237      46.7237      46.7237 
  385000    90.045551   -8013.2692   -7490.1406   -821.49053     102002.7      46.7237      46.7237      46.7237 
  386000    88.593124   -7985.2582   -7470.5677   -1024.0097     102002.7      46.7237      46.7237      46.7237 
  387000    91.656526   -7996.4151   -7463.9274   -822.76958     102002.7      46.7237      46.7237      46.7237 
  388000    93.303116   -8014.6095   -7472.5558   -561.71584     102002.7      46.7237      46.7237      46.7237 
  389000    91.849535   -8001.1328   -7467.5238   -762.54632     102002.7      46.7237      46.7237      46.7237 
  390000    91.815985   -7988.1635   -7454.7494   -286.80546     102002.7      46.7237      46.7237      46.7237 
  391000    89.938475   -7985.1715   -7462.6651   -661.87011     102002.7      46.7237      46.7237      46.7237 
  392000    89.547418    -7992.432   -7472.1974   -686.58289     102002.7      46.7237      46.7237      46.7237 
  393000    91.160418    -7990.398   -7460.7925   -597.52548     102002.7      46.7237      46.7237      46.7237 
  394000    90.794839    -7998.095   -7470.6134     -867.164     102002.7      46.7237      46.7237      46.7237 
  395000    90.990424   -8005.7238   -7477.1059   -590.69288     102002.7      46.7237      46.7237      46.7237 
  396000    90.732695   -7999.9707   -7472.8502    -760.4223     102002.7      46.7237      46.7237      46.7237 
  397000    92.853076   -8004.3304   -7464.8913   -570.44579     102002.7      46.7237      46.7237      46.7237 
  398000    91.464737   -7979.3635     -7447.99   -630.14357     102002.7      46.7237      46.7237      46.7237 
  399000    94.313837   -8002.9457   -7455.0201   -833.92307     102002.7      46.7237      46.7237      46.7237 
  400000    91.657576   -8003.2178    -7470.724   -379.42011     102002.7      46.7237      46.7237      46.7237 
  401000    86.397114   -8020.1996    -7518.267   -775.86708     102002.7      46.7237      46.7237      46.7237 
  402000    89.293559   -7973.6371   -7454.8774    -624.9656     102002.7      46.7237      46.7237      46.7237 
  403000    90.895601   -7985.0457   -7456.9787   -695.17782     102002.7      46.7237      46.7237      46.7237 
  404000    91.028295   -7991.4235   -7462.5856   -688.47979     102002.7      46.7237      46.7237      46.7237 
  405000     92.22426   -7997.6582   -7461.8722   -396.36357     102002.7      46.7237      46.7237      46.7237 
  406000    90.839955   -7976.0637     -7448.32    -651.2875     102002.7      46.7237      46.7237      46.7237 
  407000    91.136043   -7980.2685   -7450.8047   -626.72072     102002.7      46.7237      46.7237      46.7237 
  408000    89.831733   -7989.5163     -7467.63    -905.5492     102002.7      46.7237      46.7237      46.7237 
  409000    88.530247    -7994.657   -7480.3318   -650.09483     102002.7      46.7237      46.7237      46.7237 
  410000    93.721738   -7997.5562   -7453.0705   -648.80275     102002.7      46.7237      46.7237      46.7237 
  411000    90.201454   -7992.6345   -7468.6002   -518.24087     102002.7      46.7237      46.7237      46.7237 
  412000    90.654823   -7999.1008   -7472.4326   -743.98032     102002.7      46.7237      46.7237      46.7237 
  413000    90.698834   -7995.6516   -7468.7278   -671.31803     102002.7      46.7237      46.7237      46.7237 
  414000     91.05461   -7986.9273   -7457.9365   -824.55659     102002.7      46.7237      46.7237      46.7237 
  415000    95.064404    -8001.873   -7449.5869   -892.99154     102002.7      46.7237      46.7237      46.7237 
  416000     90.04359    -8020.714   -7497.5969   -1013.2551     102002.7      46.7237      46.7237      46.7237 
  417000    91.635864   -7992.6442   -7460.2766   -634.18558     102002.7      46.7237      46.7237      46.7237 
  418000    91.375136   -7996.7667   -7465.9138    -791.5655     102002.7      46.7237      46.7237      46.7237 
  419000    90.111041   -7999.9175   -7476.4085    -432.3161     102002.7      46.7237      46.7237      46.7237 
  420000    92.730076   -8008.5399   -7469.8153   -661.25481     102002.7      46.7237      46.7237      46.7237 
  421000    92.854227   -8005.7676   -7466.3218   -629.96315     102002.7      46.7237      46.7237      46.7237 
  422000    91.597449   -7978.4995    -7446.355   -781.40471     102002.7      46.7237      46.7237      46.7237 
  423000    89.936104   -7993.1551   -7470.6624   -638.66976     102002.7      46.7237      46.7237      46.7237 
  424000    89.022224   -7985.3282   -7468.1448   -1111.6093     102002.7      46.7237      46.7237      46.7237 
  425000    90.303988   -7991.4555   -7466.8256   -767.22186     102002.7      46.7237      46.7237      46.7237 
  426000    93.860324   -8002.1368    -7456.846   -741.21375     102002.7      46.7237      46.7237      46.7237 
  427000    93.178798   -8016.2409   -7474.9094   -664.12733     102002.7      46.7237      46.7237      46.7237 
  428000    89.537696   -7995.5926   -7475.4145   -1075.4859     102002.7      46.7237      46.7237      46.7237 
  429000    91.282034   -7985.8463   -7455.5343   -974.24206     102002.7      46.7237      46.7237      46.7237 
  430000     90.51211   -7992.6765   -7466.8375   -629.24554     102002.7      46.7237      46.7237      46.7237 
  431000    88.516158    -8002.221   -7487.9776   -860.76449     102002.7      46.7237      46.7237      46.7237 
  432000    89.718115   -7985.4325   -7464.2063   -771.53795     102002.7      46.7237      46.7237      46.7237 
  433000    89.569993   -7986.6902   -7466.3245   -797.49383     102002.7      46.7237      46.7237      46.7237 
  434000    90.967637    -7982.608   -7454.1225   -838.79542     102002.7      46.7237      46.7237      46.7237 
  435000    89.993599    -7949.211   -7426.3843   -638.59034     102002.7      46.7237      46.7237      46.7237 
  436000    91.260291   -8000.0015   -7469.8158   -724.63724     102002.7      46.7237      46.7237      46.7237 
  437000    88.525428   -7985.5678   -7471.2706   -667.08744     102002.7      46.7237      46.7237      46.7237 
  438000    90.253755     -8005.03   -7480.6919   -458.47759     102002.7      46.7237      46.7237      46.7237 
  439000    91.667969   -7988.5701   -7456.0159   -700.08265     102002.7      46.7237      46.7237      46.7237 
  440000    91.396743   -7978.1795   -7447.2011   -585.01346     102002.7      46.7237      46.7237      46.7237 
  441000    89.752344   -7983.3079   -7461.8828   -643.98072     102002.7      46.7237      46.7237      46.7237 
  442000    89.356002   -8025.0171   -7505.8945   -637.26917     102002.7      46.7237      46.7237      46.7237 
  443000    92.167738   -7985.7505   -7450.2929   -1008.8689     102002.7      46.7237      46.7237      46.7237 
  444000    90.949851   -7974.8583   -7446.4762   -958.04539     102002.7      46.7237      46.7237      46.7237 
  445000    87.663613   -8003.3145   -7494.0241    -767.4715     102002.7      46.7237      46.7237      46.7237 
  446000    93.221266   -8019.2278   -7477.6497   -1021.1139     102002.7      46.7237      46.7237      46.7237 
  447000    90.588538   -7981.3005   -7455.0175   -779.43375     102002.7      46.7237      46.7237      46.7237 
  448000    89.386378    -7989.821    -7470.522   -732.81884     102002.7      46.7237      46.7237      46.7237 
  449000    91.985391   -8000.6804   -7466.2821   -812.72682     102002.7      46.7237      46.7237      46.7237 
  450000    89.345039   -7997.7079   -7478.6491   -690.81727     102002.7      46.7237      46.7237      46.7237 
  451000    91.585673    -8004.735    -7472.659   -623.98325     102002.7      46.7237      46.7237      46.7237 
  452000    91.334041    -8011.595   -7480.9809   -738.17973     102002.7      46.7237      46.7237      46.7237 
  453000    90.590705   -7992.1235   -7465.8278   -611.39251     102002.7      46.7237      46.7237      46.7237 
  454000    90.058279   -7979.0957   -7455.8933   -888.56787     102002.7      46.7237      46.7237      46.7237 
  455000    92.232333    -8011.702   -7475.8691   -930.22199     102002.7      46.7237      46.7237      46.7237 
  456000    91.194971   -7997.5671   -7467.7609   -735.73697     102002.7      46.7237      46.7237      46.7237 
  457000      96.2928    -8009.321   -7449.8985    -804.8496     102002.7      46.7237      46.7237      46.7237 
  458000     91.97549    -7999.743   -7465.4023   -624.81175     102002.7      46.7237      46.7237      46.7237 
  459000    89.225106    -8012.612   -7494.2499   -845.86893     102002.7      46.7237      46.7237      46.7237 
  460000    92.883787   -8000.1441   -7460.5266   -772.72259     102002.7      46.7237      46.7237      46.7237 
  461000    88.714169   -8005.4732   -7490.0795   -813.45142     102002.7      46.7237      46.7237      46.7237 
  462000    93.346681   -8005.3683   -7463.0616   -807.97508     102002.7      46.7237      46.7237      46.7237 
  463000    92.157245   -8027.5794   -7492.1828   -557.72777     102002.7      46.7237      46.7237      46.7237 
  464000    91.772344   -7981.0582   -7447.8977   -968.42792     102002.7      46.7237      46.7237      46.7237 
  465000    90.262966   -7986.8283   -7462.4366   -583.68256     102002.7      46.7237      46.7237      46.7237 
  466000    89.258855   -8010.4844   -7491.9263   -809.37475     102002.7      46.7237      46.7237      46.7237 
  467000    91.013054   -7992.9754   -7464.2261   -629.54737     102002.7      46.7237      46.7237      46.7237 
  468000    90.573785   -7989.6215   -7463.4242   -906.01915     102002.7      46.7237      46.7237      46.7237 
  469000    90.409507   -8018.6078   -7493.3648   -801.57266     102002.7      46.7237      46.7237      46.7237 
  470000    89.773317   -7979.5448   -7457.9979   -657.75184     102002.7      46.7237      46.7237      46.7237 
  471000    88.804317   -8002.9062   -7486.9887   -676.50263     102002.7      46.7237      46.7237      46.7237 
  472000    89.731644   -8007.8022   -7486.4974   -667.04013     102002.7      46.7237      46.7237      46.7237 
  473000     90.96151   -7996.0397   -7467.5898   -665.35428     102002.7      46.7237      46.7237      46.7237 
  474000    88.047223   -7998.9854   -7487.4664   -670.14764     102002.7      46.7237      46.7237      46.7237 
  475000    92.361853   -8008.0364   -7471.4511   -733.79567     102002.7      46.7237      46.7237      46.7237 
  476000    93.291976   -7985.6916   -7443.7026   -829.45988     102002.7      46.7237      46.7237      46.7237 
  477000    93.575856   -7997.2744   -7453.6362   -726.68013     102002.7      46.7237      46.7237      46.7237 
  478000    91.176528   -7990.9683   -7461.2692   -887.57793     102002.7      46.7237      46.7237      46.7237 
  479000    87.823517   -7992.0966   -7481.8772   -984.92728     102002.7      46.7237      46.7237      46.7237 
  480000    90.625596   -7993.9256   -7467.4273   -781.48704     102002.7      46.7237      46.7237      46.7237 
  481000    91.525628    -8009.207   -7477.4799   -767.20803     102002.7      46.7237      46.7237      46.7237 
  482000    91.817431   -7983.3551   -7449.9327   -580.42662     102002.7      46.7237      46.7237      46.7237 
  483000    90.611717   -7994.5249   -7468.1071   -877.81876     102002.7      46.7237      46.7237      46.7237 
  484000    89.921006   -7978.6262   -7456.2213   -581.06954     102002.7      46.7237      46.7237      46.7237 
  485000    90.334796   -7985.4732   -7460.6643    -570.6976     102002.7      46.7237      46.7237      46.7237 
  486000    93.287566   -7985.6045   -7443.6411   -834.09083     102002.7      46.7237      46.7237      46.7237 
  487000    88.994962   -7999.5615   -7482.5364   -533.90521     102002.7      46.7237      46.7237      46.7237 
  488000    92.547608   -8000.8626   -7463.1981   -703.05299     102002.7      46.7237      46.7237      46.7237 
  489000    90.417661    -8007.255   -7481.9647   -569.02542     102002.7      46.7237      46.7237      46.7237 
  490000    91.267087   -7993.1643   -7462.9391   -720.57378     102002.7      46.7237      46.7237      46.7237 
  491000    91.933969   -7991.5679   -7457.4684   -808.75891     102002.7      46.7237      46.7237      46.7237 
  492000    91.759226   -8008.0198   -7474.9356    -640.7751     102002.7      46.7237      46.7237      46.7237 
  493000    93.355763   -7997.7003   -7455.3408   -769.89799     102002.7      46.7237      46.7237      46.7237 
  494000    87.643992   -8005.7507   -7496.5743   -690.39106     102002.7      46.7237      46.7237      46.7237 
  495000    92.027017   -8012.8525   -7478.2125   -659.99662     102002.7      46.7237      46.7237      46.7237 
  496000    91.867731   -8006.7759   -7473.0612   -746.10213     102002.7      46.7237      46.7237      46.7237 
  497000    90.883667   -7996.1999   -7468.2022   -582.69547     102002.7      46.7237      46.7237      46.7237 
  498000    91.694765   -8007.5248    -7474.815   -798.06909     102002.7      46.7237      46.7237      46.7237 
  499000     88.97197   -8011.6764   -7494.7849   -863.01653     102002.7      46.7237      46.7237      46.7237 
  500000    88.779711   -7987.2642   -7471.4897     -914.491     102002.7      46.7237      46.7237      46.7237 
  500501    93.968052   -8004.6872   -7458.7705   -683.10265     102002.7      46.7237      46.7237      46.7237 
Loop time of 1329.46 on 16 procs for 500000 steps with 1950 atoms

Performance: 32.494 ns/day, 0.739 hours/ns, 376.092 timesteps/s
99.8% CPU use with 16 MPI tasks x no OpenMP threads

MPI task timing breakdown:
Section |  min time  |  avg time  |  max time  |%varavg| %total
---------------------------------------------------------------
Pair    | 550.74     | 745.81     | 917.86     | 455.5 | 56.10
Bond    | 164.67     | 174.51     | 183.73     |  39.3 | 13.13
Neigh   | 5.6244     | 5.6583     | 5.7191     |   1.4 |  0.43
Comm    | 221.99     | 389.89     | 586.4      | 614.6 | 29.33
Output  | 0.020465   | 0.020805   | 0.023484   |   0.5 |  0.00
Modify  | 7.1695     | 8.1836     | 8.8387     |  21.7 |  0.62
Other   |            | 5.389      |            |       |  0.41

Nlocal:    121.875 ave 142 max 101 min
Histogram: 3 2 0 2 0 1 2 1 4 1
Nghost:    2453.69 ave 2481 max 2430 min
Histogram: 3 1 3 1 2 1 0 1 1 3
Neighs:    11456.5 ave 15072 max 7100 min
Histogram: 2 2 1 0 2 3 1 0 0 5

Total # of neighbors = 183304
Ave neighs/atom = 94.0021
Ave special neighs/atom = 5.90769
Neighbor list builds = 3821
Dangerous builds = 0
Neighbor list info ...
  update every 1 steps, delay 10 steps, check yes
  max neighbors/atom: 2000, page size: 100000
  master list distance cutoff = 16
  ghost atom cutoff = 16
  binsize = 8, bins = 6 6 6
  3 neighbor lists, perpetual/occasional/extra = 3 0 0
  (1) pair buck6d/coul/gauss/dsf, perpetual, skip from (3)
      attributes: half, newton on
      pair build: skip
      stencil: none
      bin: none
  (2) pair lj/cut, perpetual, skip from (3)
      attributes: half, newton on
      pair build: skip
      stencil: none
      bin: none
  (3) neighbor class addition, perpetual
      attributes: half, newton on
      pair build: half/bin/newton
      stencil: half/bin/3d/newton
      bin: standard
Setting up Verlet run ...
  Unit style    : real
  Current step  : 500501
  Time step     : 1
WARNING: Inconsistent image flags (../domain.cpp:786)
Per MPI rank memory allocation (min/avg/max) = 23.08 | 23.31 | 23.35 Mbytes
Step Time TotEng KinEng PotEng E_mol E_pair Temp Pxx Pyy Pzz Pxy Pxz Pyz Cella Cellb Cellc CellAlpha CellBeta CellGamma Volume Press 
  500501       500000   -7458.7705    545.91668   -8004.6872     4196.445   -12201.132    93.968052   -604.48218   -925.26338   -519.56238    103.81981   -185.34229   -226.62386      46.7237      46.7237      46.7237           90           90           90     102002.7   -683.10265 
  501000       500499   -7491.1784    527.30518   -8018.4836    4179.2074   -12197.691    90.764475   -470.73333    -645.5629   -717.76665   -74.137818   -139.02523    19.025983      46.7237      46.7237      46.7237           90           90           90     102002.7   -611.35429 
  502000       501499   -7459.8691    529.33709   -7989.2062    4204.0784   -12193.285    91.114225   -789.61365   -586.59512   -556.75248    49.088998   -44.609029   -153.15443      46.7237      46.7237      46.7237           90           90           90     102002.7   -644.32042 
  503000       502499   -7496.5994    524.80835   -8021.4078    4179.2655   -12200.673    90.334698   -450.73441   -1071.2036    -906.8583   -100.21808    26.154341    37.636568      46.7237      46.7237      46.7237           90           90           90     102002.7   -809.59876 
  504000       503499   -7478.7418    522.73414   -8001.4759    4200.7741    -12202.25    89.977666   -1033.2161   -1025.1432   -247.53975    5.9558514   -42.691415   -252.34558      46.7237      46.7237      46.7237           90           90           90     102002.7   -768.63301 
  505000       504499   -7443.6738     554.4079   -7998.0817    4196.4934   -12194.575    95.429636    -669.2476   -1213.7174   -509.06486   -38.276915     136.8152    89.044058      46.7237      46.7237      46.7237           90           90           90     102002.7   -797.34327 
  506000       505499   -7484.9067    530.31578   -8015.2225    4212.9761   -12228.199    91.282685   -924.87574   -1054.2048   -869.64608    305.40884   0.60240683   -74.341649      46.7237      46.7237      46.7237           90           90           90     102002.7   -949.57553 
  507000       506499   -7483.7951     519.7309    -8003.526    4190.9692   -12194.495    89.460721   -878.34502    -313.4115   -918.79309     112.4282     153.5337   -56.420993      46.7237      46.7237      46.7237           90           90           90     102002.7   -703.51654 
  508000       507499   -7469.5248    530.00089   -7999.5256    4198.3372   -12197.863    91.228484   -597.13366    -770.1051   -741.52703    33.572471   -50.285681   -166.28031      46.7237      46.7237      46.7237           90           90           90     102002.7   -702.92193 
  509000       508499   -7471.4392    538.08658   -8009.5258     4206.734    -12216.26    92.620264   -1003.7491   -685.59807   -129.81794   -134.96728    9.0383597    328.18474      46.7237      46.7237      46.7237           90           90           90     102002.7   -606.38835 
  510000       509499   -7472.9356     528.4978   -8001.4334     4206.515   -12207.948    90.969758   -621.49937    -967.7018   -637.77715   -100.96117    215.73479    46.807477      46.7237      46.7237      46.7237           90           90           90     102002.7   -742.32611 
  511000       510499   -7477.6892    522.10375   -7999.7929    4199.8809   -12199.674    89.869158    -572.5204   -690.51144   -572.97428   -68.862485    200.50193    4.0980525      46.7237      46.7237      46.7237           90           90           90     102002.7   -612.00204 
  512000       511499   -7482.2251    508.95295    -7991.178    4203.4458   -12194.624    87.605525   -839.64323   -549.70939   -803.89415    83.398792    121.52576    111.49939      46.7237      46.7237      46.7237           90           90           90     102002.7   -731.08226 
  513000       512499   -7436.1664      551.967   -7988.1334    4207.4846   -12195.618    95.009487   -1121.0105   -202.74091   -515.71724    68.054097   -74.627977    219.97811      46.7237      46.7237      46.7237           90           90           90     102002.7   -613.15621 
  514000       513499   -7485.0977    532.39793   -8017.4957    4181.1331   -12198.629    91.641084   -687.76747   -532.04638   -379.65944    218.95818    -140.3011    35.999902      46.7237      46.7237      46.7237           90           90           90     102002.7   -533.15776 
  515000       514499   -7442.0586    542.61804   -7984.6767    4200.9222   -12185.599     93.40026   -956.77229   -285.51368   -518.16083    9.8108396    21.702145   -178.44944      46.7237      46.7237      46.7237           90           90           90     102002.7    -586.8156 
  516000       515499   -7480.6971    526.24615   -8006.9433    4195.1354   -12202.079    90.582185   -851.55185   -209.34314   -630.83891    3.0382055   -130.00652    112.84693      46.7237      46.7237      46.7237           90           90           90     102002.7    -563.9113 
  517000       516499   -7476.2513    520.61528   -7996.8666    4204.8469   -12201.713    89.612949   -752.71648   -842.57896   -557.52847    11.301978   -123.59124    127.96991      46.7237      46.7237      46.7237           90           90           90     102002.7   -717.60797 
  518000       517499   -7458.4526    547.23927   -8005.6918    4207.3237   -12213.016    94.195708   -790.82786   -266.07366   -806.88828    31.617984    20.622318    220.13226      46.7237      46.7237      46.7237           90           90           90     102002.7   -621.26327 
  519000       518499   -7486.4851    526.55528   -8013.0404    4192.7985   -12205.839    90.635395   -624.67222   -627.34436   -583.03197   -264.63584    183.43137    171.81053      46.7237      46.7237      46.7237           90           90           90     102002.7   -611.68285 
  520000       519499   -7494.0682    534.55142   -8028.6196    4203.3691   -12231.989    92.011763   -1071.0341   -788.32815   -861.68538    139.55407    -94.18202   -120.94869      46.7237      46.7237      46.7237           90           90           90     102002.7   -907.01587 
  521000       520499   -7488.3793    510.65406   -7999.0333    4206.3928   -12205.426    87.898335   -1166.5251   -655.30782   -393.84991   -249.83511   -125.51168    -243.7219      46.7237      46.7237      46.7237           90           90           90     102002.7   -738.56095 
  522000       521499   -7490.9544    518.46213   -8009.4165    4200.2053   -12209.622     89.24233   -451.37925   -375.84469   -779.29606   -62.412762    218.83506   -9.2508832      46.7237      46.7237      46.7237           90           90           90     102002.7   -535.50667 
  523000       522499    -7465.371     534.5879   -7999.9589    4190.7051   -12190.664    92.018041   -865.78015   -681.19114   -907.34575   -267.38545    210.20904    46.201856      46.7237      46.7237      46.7237           90           90           90     102002.7   -818.10568 
  524000       523499   -7478.9651    525.86015   -8004.8253    4207.8416   -12212.667    90.515743   -990.12064   -277.44876   -940.60171   -21.105819   -40.425665   -167.65835      46.7237      46.7237      46.7237           90           90           90     102002.7   -736.05704 
  525000       524499   -7463.4035    526.36364   -7989.7671    4190.2618   -12180.029    90.602408   -813.96855   -846.72368   -610.54642   -130.80714   -70.552967    44.637561      46.7237      46.7237      46.7237           90           90           90     102002.7   -757.07955 
  526000       525499   -7478.6665    525.96197   -8004.6285    4183.6191   -12188.248     90.53327   -831.06471   -257.45868   -403.37488   -134.51591    72.758694    56.671627      46.7237      46.7237      46.7237           90           90           90     102002.7   -497.29942 
  527000       526499   -7458.9562    535.86253   -7994.8187    4192.2081   -12187.027    92.237441   -697.32454   -760.86266   -779.12185   -50.115277    139.98416   -67.297956      46.7237      46.7237      46.7237           90           90           90     102002.7   -745.76968 
  528000       527499    -7492.626    516.06822   -8008.6942    4188.7961    -12197.49    88.830269   -1105.9028   -1027.6667   -609.61398   -36.963502   -176.10587   -69.146521      46.7237      46.7237      46.7237           90           90           90     102002.7   -914.39448 
  529000       528499   -7473.8911    536.00597   -8009.8971    4195.7247   -12205.622    92.262131   -531.79924   -392.56956   -894.58777   -64.812933    8.2059388   -110.02967      46.7237      46.7237      46.7237           90           90           90     102002.7   -606.31885 
  530000       529499    -7481.294    515.76365   -7997.0577     4192.208   -12189.266    88.777844   -752.65894   -911.86551    -790.6773    75.014094   -48.920327   -15.333788      46.7237      46.7237      46.7237           90           90           90     102002.7   -818.40058 
  531000       530499   -7498.6333    517.09263   -8015.7259    4177.7782   -12193.504    89.006598   -826.47713   -383.91687   -916.33973    125.69824   -31.066953    74.425875      46.7237      46.7237      46.7237           90           90           90     102002.7   -708.91125 
  532000       531499   -7463.3659     524.2482   -7987.6141    4209.0286   -12196.643     90.23828   -465.47163   -300.89157   -496.60558    9.1875975    159.64068    64.213392      46.7237      46.7237      46.7237           90           90           90     102002.7    -420.9896 
  533000       532499   -7441.5514    541.28753   -7982.8389    4218.8097   -12201.649    93.171242   -457.03954   -250.37036   -863.55135   -78.731694    54.930673    122.07926      46.7237      46.7237      46.7237           90           90           90     102002.7   -523.65375 
  534000       533499   -7467.2953    527.59287   -7994.8882     4197.482    -12192.37    90.813995   -372.92538   -521.93984   -713.87195   -252.14383    69.487831    131.85053      46.7237      46.7237      46.7237           90           90           90     102002.7   -536.24573 
  535000       534499   -7470.5369    524.80576   -7995.3426    4197.4544   -12192.797    90.334252   -677.72831   -532.34519   -703.65434    40.352918    -60.00146   -35.542406      46.7237      46.7237      46.7237           90           90           90     102002.7   -637.90928 
  536000       535499   -7453.8785    538.16575   -7992.0442    4212.0951   -12204.139    92.633892   -659.15303   -471.39683   -824.65461    226.47725   -161.78117   -62.947325      46.7237      46.7237      46.7237           90           90           90     102002.7   -651.73482 
  537000       536499   -7466.0185     526.1883   -7992.2068    4213.6067   -12205.813    90.572226   -655.35677   -498.77843   -685.69264    119.07787   -36.011784    176.89436      46.7237      46.7237      46.7237           90           90           90     102002.7   -613.27594 
  538000       537499   -7472.1732    533.93461   -8006.1079    4207.1673   -12213.275    91.905591    -724.8043    -469.1889   -696.18974    18.161606    101.40559    -37.30121      46.7237      46.7237      46.7237           90           90           90     102002.7   -630.06098 
  539000       538499   -7456.7374    529.80899   -7986.5464    4203.4246   -12189.971    91.195452   -283.37956   -512.39503   -570.13134    99.226225    152.10557   -133.95003      46.7237      46.7237      46.7237           90           90           90     102002.7   -455.30198 
  540000       539499   -7475.4709    531.77276   -8007.2437    4185.2716   -12192.515    91.533474   -572.16799   -61.558693   -323.55224   -188.91903    85.890809    151.52546      46.7237      46.7237      46.7237           90           90           90     102002.7   -319.09297 
  541000       540499   -7505.0759    497.65384   -8002.7297    4212.8059   -12215.536     85.66062   -490.99196   -531.12076   -730.56707    164.68772   -47.524306   -23.978479      46.7237      46.7237      46.7237           90           90           90     102002.7    -584.2266 
  542000       541499   -7451.0484    540.44957   -7991.4979    4197.0911   -12188.589    93.027004   -392.46525    -528.1312   -418.99956   -168.47434     120.4258    139.29192      46.7237      46.7237      46.7237           90           90           90     102002.7     -446.532 
  543000       542499   -7466.1158    524.16926    -7990.285    4211.6979   -12201.983    90.224692   -959.83118   -637.44618   -321.82346    19.229009   -119.35926   -349.09757      46.7237      46.7237      46.7237           90           90           90     102002.7   -639.70027 
  544000       543499   -7492.7003    531.81496   -8024.5152     4183.768   -12208.283    91.540738   -554.68973   -417.06585   -828.67511    142.91212   -173.93404   -136.41032      46.7237      46.7237      46.7237           90           90           90     102002.7   -600.14357 
  545000       544499   -7466.8062    534.46642   -8001.2726    4209.0537   -12210.326    91.997131   -256.65784   -700.28278   -774.98936    182.85676    71.737194     286.9478      46.7237      46.7237      46.7237           90           90           90     102002.7   -577.30999 
  546000       545499   -7490.1983    524.28718   -8014.4855    4189.7855   -12204.271     90.24499    -809.8039   -870.61349   -574.76489    158.26172   -249.80781   -3.9237728      46.7237      46.7237      46.7237           90           90           90     102002.7   -751.72742 
  547000       546499   -7474.5824    525.93393   -8000.5164    4185.3837     -12185.9    90.528443    -608.1074   -404.77146   -1015.6256   -198.75581   -238.15654   -125.89095      46.7237      46.7237      46.7237           90           90           90     102002.7   -676.16814 
  548000       547499   -7461.0313    547.58402   -8008.6153    4206.3186   -12214.934    94.255049   -779.76521   -628.98273   -574.82515    96.164294   -200.51455    53.155481      46.7237      46.7237      46.7237           90           90           90     102002.7   -661.19103 
  549000       548499   -7495.8899    512.08076   -8007.9707    4191.6682   -12199.639    88.143912    -706.6586   -665.40092   -1106.4415   -344.83948    87.723355    166.80124      46.7237      46.7237      46.7237           90           90           90     102002.7   -826.16702 
  550000       549499   -7460.6319    526.65825   -7987.2901    4203.9606   -12191.251     90.65312   -1108.0101   -951.00661   -740.85093   -112.22271   -183.70509    210.80793      46.7237      46.7237      46.7237           90           90           90     102002.7   -933.28921 
  551000       550499   -7474.9023    530.14296   -8005.0453    4188.6348    -12193.68    91.252938   -1120.6392   -541.15395   -715.58687    99.126094   -195.08032    74.990082      46.7237      46.7237      46.7237           90           90           90     102002.7   -792.46002 
  552000       551499   -7500.0104    507.11946   -8007.1299    4191.2971   -12198.427    87.289928   -827.84996   -865.33582    -1022.564   -203.33889  -0.82734109    89.397128      46.7237      46.7237      46.7237           90           90           90     102002.7   -905.24993 
  553000       552499   -7471.1939      527.405   -7998.5989    4200.3554   -12198.954    90.781656   -910.59146   -984.44517    -1096.919   -85.711014   -55.259652   -273.98282      46.7237      46.7237      46.7237           90           90           90     102002.7   -997.31854 
  554000       553499   -7497.0134    511.93291   -8008.9463     4193.165   -12202.111    88.118461   -677.50335   -946.84935   -869.59649   -99.888404   -211.78269    33.071627      46.7237      46.7237      46.7237           90           90           90     102002.7   -831.31639 
  555000       554499   -7483.4715     531.4665    -8014.938    4181.3057   -12196.244    91.480758   -698.37598   -996.69504   -1382.9713   -102.46531   -51.850337    138.82755      46.7237      46.7237      46.7237           90           90           90     102002.7   -1026.0141 
[...]
  936000       935499   -7474.2676    523.55642    -7997.824    4209.9802   -12207.804    90.119204   -1000.7834   -682.02627   -1249.1944     33.57455    60.702877   -116.87538      46.7237      46.7237      46.7237           90           90           90     102002.7   -977.33468 
  937000       936499   -7469.8079    532.58201   -8002.3899    4194.2883   -12196.678    91.672769   -370.23253   -812.15637   -663.59742    -14.64322    22.314104   -90.916308      46.7237      46.7237      46.7237           90           90           90     102002.7   -615.32877 
  938000       937499   -7465.2953    533.13476   -7998.4301    4197.0111   -12195.441    91.767913   -877.64335   -778.01835   -872.71699   -193.92932   -5.6060886   -123.75402      46.7237      46.7237      46.7237           90           90           90     102002.7    -842.7929 
  939000       938499   -7450.0935    539.23752    -7989.331    4194.1882   -12183.519    92.818374   -804.21059   -496.48677   -992.86538   -214.82855    23.787879   -65.666141      46.7237      46.7237      46.7237           90           90           90     102002.7   -764.52091 
  940000       939499   -7468.8416    519.69187   -7988.5335    4204.9795   -12193.513    89.454003   -1141.7364   -900.81401   -775.47529   -106.33074    -56.91485    92.524099      46.7237      46.7237      46.7237           90           90           90     102002.7   -939.34191 
  941000       940499   -7440.9153    525.19033   -7966.1057    4215.8571   -12181.963    90.400447   -1096.1301   -798.34002   -1147.6683   -22.716164   -35.050279    12.961253      46.7237      46.7237      46.7237           90           90           90     102002.7   -1014.0462 
  942000       941499   -7468.2412    531.18491   -7999.4261    4200.5496   -12199.976    91.432288   -671.99672   -382.31293   -651.00416    105.78961   -6.6191391    78.289911      46.7237      46.7237      46.7237           90           90           90     102002.7   -568.43794 
  943000       942499   -7460.8997    545.78926   -8006.6889    4184.6536   -12191.343     93.94612   -949.40363   -742.63404   -243.85406    15.994632    26.780367    173.77194      46.7237      46.7237      46.7237           90           90           90     102002.7   -645.29724 
  944000       943499   -7453.0286    535.31604   -7988.3446     4201.958   -12190.303    92.143376   -753.82179   -501.00637   -469.81051    20.473663   -159.48235    197.06455      46.7237      46.7237      46.7237           90           90           90     102002.7   -574.87956 
  945000       944499   -7484.3476    511.57471   -7995.9223    4207.6371   -12203.559    88.056806   -845.19173   -677.66468   -890.72746   -15.048256   -12.691371   -100.26812      46.7237      46.7237      46.7237           90           90           90     102002.7   -804.52796 
  946000       945499    -7433.901    545.79415   -7979.6951     4222.424   -12202.119    93.946961   -787.64011   -805.33762     -797.909   -211.24757   -149.40199   -48.900936      46.7237      46.7237      46.7237           90           90           90     102002.7   -796.96224 
  947000       946499    -7458.743    523.49413   -7982.2372    4219.5865   -12201.824    90.108482    -897.6271   -854.12431   -913.35205   -22.400509    225.91484   -237.98936      46.7237      46.7237      46.7237           90           90           90     102002.7   -888.36782 
  948000       947499   -7485.5594    528.84691   -8014.4063    4194.1489   -12208.555    91.029851   -568.56281   -878.11475   -689.88228    -131.1382    13.666001    11.623452      46.7237      46.7237      46.7237           90           90           90     102002.7   -712.18661 
  949000       948499   -7465.4397    540.40469   -8005.8444    4196.7066   -12202.551     93.01928   -1295.9411   -515.25574   -763.73764    101.64228   -1.0113254   -101.21733      46.7237      46.7237      46.7237           90           90           90     102002.7    -858.3115 
  950000       949499   -7468.7454    523.24326   -7991.9887    4222.1212    -12214.11      90.0653   -823.75267   -1018.4164    -1035.416    163.75554    37.262279   -52.939676      46.7237      46.7237      46.7237           90           90           90     102002.7   -959.19502 
  951000       950499   -7478.7071    532.83672   -8011.5438    4206.8402   -12218.384    91.716612   -973.90856   -920.81842   -750.11686    -4.511666     3.271889    72.739393      46.7237      46.7237      46.7237           90           90           90     102002.7   -881.61461 
  952000       951499   -7482.4761     535.5768   -8018.0529    4178.8076   -12196.861    92.188259   -702.91725   -904.10749   -837.01688    196.46985   -284.78394    132.29273      46.7237      46.7237      46.7237           90           90           90     102002.7   -814.68054 
  953000       952499   -7468.8851    514.07657   -7982.9617    4227.0808   -12210.043    88.487449   -557.19198   -729.49236   -872.63094   -115.70151   -91.935661    244.17563      46.7237      46.7237      46.7237           90           90           90     102002.7   -719.77176 
  954000       953499   -7471.8528    537.47346   -8009.3263    4201.3835    -12210.71     92.51473   -734.99643   -833.76615   -457.18752   -79.824679   -24.856932    -108.3892      46.7237      46.7237      46.7237           90           90           90     102002.7    -675.3167 
  955000       954499   -7469.1029    531.45618   -8000.5591    4201.4674   -12202.026    91.478982   -580.26071   -1109.7046   -925.97232   -51.655935    96.147985    134.89618      46.7237      46.7237      46.7237           90           90           90     102002.7   -871.97922 
  956000       955499   -7482.3325    535.59124   -8017.9237    4188.4043   -12206.328    92.190745   -730.88381    -923.5686   -979.37987    91.422129   -91.611353   -155.37122      46.7237      46.7237      46.7237           90           90           90     102002.7   -877.94409 
  957000       956499   -7481.9049    523.83151   -8005.7364    4201.7012   -12207.438    90.166555   -684.66162   -953.49602   -1080.2925    40.340085    179.24266   -108.86329      46.7237      46.7237      46.7237           90           90           90     102002.7   -906.15005 
  958000       957499    -7482.465    529.32415   -8011.7892    4191.4981   -12203.287    91.111997   -822.00575   -622.03257   -955.21511    113.50851   -27.266639   -80.906557      46.7237      46.7237      46.7237           90           90           90     102002.7   -799.75114 
  959000       958499   -7467.5368      530.934   -7998.4708    4199.1284   -12197.599    91.389099   -665.11394   -950.13362    -1001.053   -42.708023   -164.53203   -72.862586      46.7237      46.7237      46.7237           90           90           90     102002.7   -872.10017 
  960000       959499   -7488.3732    514.88817   -8003.2614    4206.4776   -12209.739    88.627147   -459.99635   -1160.4443   -996.21741    174.54744   -66.631375    83.079474      46.7237      46.7237      46.7237           90           90           90     102002.7   -872.21935 
  961000       960499   -7468.4841     535.0896   -8003.5737    4212.4924   -12216.066    92.104398   -557.74135   -1038.2471   -752.71703   -75.908948    178.55728   -235.94247      46.7237      46.7237      46.7237           90           90           90     102002.7   -782.90182 
  962000       961499   -7487.8119      523.741   -8011.5529    4193.4306   -12204.983    90.150977   -405.76275     -803.381   -563.23834   -259.63398    133.43608   -30.290116      46.7237      46.7237      46.7237           90           90           90     102002.7   -590.79403 
  963000       962499   -7483.7214    525.22606   -8008.9475    4203.5551   -12212.503    90.406598   -479.83024   -995.04919   -819.87711   -110.22038   -5.8233912   -61.845649      46.7237      46.7237      46.7237           90           90           90     102002.7   -764.91884 
  964000       963499   -7477.0313    541.20156   -8018.2329    4184.1247   -12202.358    93.156443   -519.99374   -720.56162   -869.58785   -182.60011    129.71711    88.124609      46.7237      46.7237      46.7237           90           90           90     102002.7   -703.38107 
  965000       964499   -7489.8785     511.1559   -8001.0344    4217.0653     -12218.1    87.984716   -855.67705   -459.49861   -861.96394   -50.707512    38.435372   -58.493716      46.7237      46.7237      46.7237           90           90           90     102002.7    -725.7132 
  966000       965499   -7458.6361    534.76866   -7993.4047    4199.0177   -12192.422    92.049154   -902.28664   -508.54335   -557.03084   -25.082756    11.148597      27.1992      46.7237      46.7237      46.7237           90           90           90     102002.7   -655.95361 
  967000       966499   -7459.5356    545.41547    -8004.951    4192.5907   -12197.542    93.881779   -952.93357    -688.2111   -782.03271    82.676988    274.80424     270.3107      46.7237      46.7237      46.7237           90           90           90     102002.7   -807.72579 
  968000       967499   -7473.1532    519.16897   -7992.3221    4203.5238   -12195.846    89.363998   -1419.1718   -627.31545   -785.40371    55.888834   -40.967628    -89.17842      46.7237      46.7237      46.7237           90           90           90     102002.7   -943.96365 
  969000       968499   -7489.5999    524.38536   -8013.9852    4194.2148     -12208.2    90.261888    -499.1849   -838.66253   -790.27674   -145.84988   -161.13318    50.034705      46.7237      46.7237      46.7237           90           90           90     102002.7   -709.37472 
  970000       969499    -7466.175    526.82862   -7993.0036    4200.5321   -12193.536    90.682444   -316.41206   -227.03899   -1010.1198    160.68533     84.28099    29.896701      46.7237      46.7237      46.7237           90           90           90     102002.7   -517.85694 
  971000       970499   -7478.1957    531.09247   -8009.2882     4193.714   -12203.002    91.416376   -820.71289   -1098.9071   -767.08706   -133.47645   -74.031267    25.339519      46.7237      46.7237      46.7237           90           90           90     102002.7   -895.56902 
  972000       971499   -7473.9485    532.04961   -8005.9981    4202.3396   -12208.338    91.581128   -497.14916   -713.31106   -645.53979   -42.512338    113.08525    -44.56276      46.7237      46.7237      46.7237           90           90           90     102002.7   -618.66667 
  973000       972499   -7477.1205    524.38436   -8001.5048    4207.5074   -12209.012    90.261717   -935.85905   -706.02289   -892.08719   -146.33709   -283.87958   -226.57774      46.7237      46.7237      46.7237           90           90           90     102002.7   -844.65638 
  974000       973499   -7448.1247    538.28115   -7986.4058    4204.5948   -12191.001    92.653757   -835.79034   -800.75698   -694.12008    224.38022     212.0069   -31.146305      46.7237      46.7237      46.7237           90           90           90     102002.7   -776.88913 
  975000       974499    -7468.687    526.63024   -7995.3172    4190.0131    -12185.33    90.648298   -676.43476   -572.33287   -611.18979   -7.3819351   -63.150223       95.597      46.7237      46.7237      46.7237           90           90           90     102002.7   -619.98581 
  976000       975499   -7484.3824    519.10684   -8003.4892      4201.54   -12205.029    89.353302   -737.26456   -868.42815   -855.97062   -48.262875   -133.41888    177.32734      46.7237      46.7237      46.7237           90           90           90     102002.7   -820.55444 
  977000       976499   -7472.5063     543.3283   -8015.8346    4193.1266   -12208.961    93.522516   -956.16108   -678.57128   -425.29284    100.16062   -34.699603    11.721633      46.7237      46.7237      46.7237           90           90           90     102002.7   -686.67507 
  978000       977499   -7472.4506     519.8713   -7992.3219    4196.9944   -12189.316    89.484888   -511.24398   -776.43939   -1137.0818   -165.34561    119.78508   -56.305242      46.7237      46.7237      46.7237           90           90           90     102002.7   -808.25507 
  979000       978499   -7465.4272    536.93407   -8002.3613    4186.9477   -12189.309    92.421884   -590.75337   -515.28533    -903.7909   -40.742436    70.858901    8.8076898      46.7237      46.7237      46.7237           90           90           90     102002.7    -669.9432 
  980000       979499   -7484.0309    522.83691   -8006.8678    4198.1839   -12205.052    89.995355   -1093.9571   -1064.1167   -303.22904   -249.70245   -85.833117    23.351822      46.7237      46.7237      46.7237           90           90           90     102002.7   -820.43428 
  981000       980499   -7475.3989    525.14943   -8000.5483    4204.2468   -12204.795    90.393408   -1208.5084   -353.94829   -1173.3741   -83.723042    11.494106   -181.81855      46.7237      46.7237      46.7237           90           90           90     102002.7   -911.94361 
  982000       981499   -7443.6815    543.77344   -7987.4549    4214.0096   -12201.465    93.599138   -886.89872   -1004.0431   -648.13505    72.266201   -95.569166   -165.69627      46.7237      46.7237      46.7237           90           90           90     102002.7   -846.35897 
  983000       982499   -7463.7403    525.42285   -7989.1631    4201.0481   -12190.211    90.440472   -611.28228   -957.61324   -966.20581    284.15774    297.89632   -324.74274      46.7237      46.7237      46.7237           90           90           90     102002.7   -845.03377 
  984000       983499   -7471.4053    525.69129   -7997.0966    4206.4154   -12203.512    90.486677   -586.98758   -1089.2877   -604.79949    29.836429   -42.807733    -176.8131      46.7237      46.7237      46.7237           90           90           90     102002.7   -760.35825 
  985000       984499   -7478.2085    532.31832   -8010.5269    4209.8406   -12220.367    91.627381   -986.06943   -1067.3589   -773.20366   -75.930786   -40.499988    74.016559      46.7237      46.7237      46.7237           90           90           90     102002.7   -942.21067 
  986000       985499   -7479.2267    519.80798   -7999.0347    4190.3684   -12189.403     89.47399   -699.58008   -533.51396   -1086.1793    7.5078489     119.0088    99.113174      46.7237      46.7237      46.7237           90           90           90     102002.7    -773.0911 
  987000       986499   -7460.4096    522.36642    -7982.776    4206.1391   -12188.915    89.914371   -345.66532   -744.20336   -926.53806   -174.97368   -77.538364    215.52013      46.7237      46.7237      46.7237           90           90           90     102002.7   -672.13558 
  988000       987499   -7470.9851    536.61312   -8007.5982    4196.9034   -12204.502     92.36664     -391.323   -801.96132   -1086.6678    157.51129    159.38771   -213.60063      46.7237      46.7237      46.7237           90           90           90     102002.7   -759.98404 
  989000       988499   -7454.6788    536.05298   -7990.7318    4214.3839   -12205.116    92.270224   -1193.7241   -939.71313   -740.96307    116.19222   -126.41401   -14.970884      46.7237      46.7237      46.7237           90           90           90     102002.7   -958.13343 
  990000       989499   -7474.9082    517.02983    -7991.938    4214.6621     -12206.6    88.995789   -603.67948   -848.17822   -696.98107   -110.56394    198.31933   -173.93124      46.7237      46.7237      46.7237           90           90           90     102002.7   -716.27959 
  991000       990499   -7483.6653    528.00211   -8011.6674     4178.538   -12190.205    90.884436   -794.45779    -933.9474   -695.33244    67.426906    43.887285   -103.07717      46.7237      46.7237      46.7237           90           90           90     102002.7   -807.91254 
  992000       991499   -7468.9103    525.74549   -7994.6558    4215.2739    -12209.93    90.496006   -543.28775   -702.92341   -656.82815   -317.61489   -14.477403   -165.91181      46.7237      46.7237      46.7237           90           90           90     102002.7   -634.34644 
  993000       992499   -7450.6824    545.49149   -7996.1738    4211.4907   -12207.665    93.894864   -711.42374    -526.8838   -943.54781    244.60713    244.16693   -9.4606981      46.7237      46.7237      46.7237           90           90           90     102002.7   -727.28511 
  994000       993499   -7479.5398    525.11055   -8004.6504    4203.2715   -12207.922    90.386716   -976.89627   -523.52748   -1015.3055    125.73844    180.54976   -222.06906      46.7237      46.7237      46.7237           90           90           90     102002.7   -838.57641 
  995000       994499    -7490.295    509.00374   -7999.2987    4212.9659   -12212.265    87.614267   -840.73295   -526.01818   -599.53155    -78.19219   -216.61769   -54.534002      46.7237      46.7237      46.7237           90           90           90     102002.7   -655.42756 
  996000       995499   -7469.1749    523.08691   -7992.2618    4225.0167   -12217.279    90.038388    -1068.698   -1063.3914   -971.22679   -22.603857   -94.083503   -13.950586      46.7237      46.7237      46.7237           90           90           90     102002.7   -1034.4387 
  997000       996499   -7473.5841    516.97916   -7990.5632    4195.8106   -12186.374    88.987068   -645.91227   -990.20009   -659.12168    33.896495    5.3278956     93.52276      46.7237      46.7237      46.7237           90           90           90     102002.7   -765.07801 
  998000       997499   -7468.4557    539.93528   -8008.3909    4212.4659   -12220.857     92.93848   -1025.1001   -693.66377    -829.2858    66.885769   -111.52768    20.942092      46.7237      46.7237      46.7237           90           90           90     102002.7    -849.3499 
  999000       998499   -7479.8912    524.03059   -8003.9218    4203.3743   -12207.296    90.200822   -707.13925   -907.88108   -1005.0185   -23.781572    25.388142    130.44048      46.7237      46.7237      46.7237           90           90           90     102002.7   -873.34629 
 1000000       999499   -7441.5582    536.64486    -7978.203    4213.7036   -12191.907    92.372104   -786.61871    -855.3567   -1109.4525   -260.57171    149.57257   -224.88087      46.7237      46.7237      46.7237           90           90           90     102002.7   -917.14264 
 1000501      1000000   -7446.0174    539.86488   -7985.8823    4211.1601   -12197.042    92.926363   -946.50915   -589.69738   -750.41147    293.70905    215.30701   -33.797491      46.7237      46.7237      46.7237           90           90           90     102002.7     -762.206 
Loop time of 1555.33 on 16 procs for 500000 steps with 1950 atoms

Performance: 27.775 ns/day, 0.864 hours/ns, 321.475 timesteps/s
99.8% CPU use with 16 MPI tasks x no OpenMP threads

MPI task timing breakdown:
Section |  min time  |  avg time  |  max time  |%varavg| %total
---------------------------------------------------------------
Pair    | 610.51     | 862.08     | 1105.1     | 591.2 | 55.43
Bond    | 171.95     | 183.79     | 196.68     |  54.0 | 11.82
Neigh   | 5.6689     | 5.7019     | 5.7657     |   1.5 |  0.37
Comm    | 221.9      | 475.76     | 736.02     | 822.8 | 30.59
Output  | 0.11025    | 0.11544    | 0.11588    |   0.4 |  0.01
Modify  | 21.256     | 22.489     | 23.311     |  14.9 |  1.45
Other   |            | 5.383      |            |       |  0.35

Nlocal:    121.875 ave 146 max 79 min
Histogram: 1 0 1 1 1 2 3 1 3 3
Nghost:    2439.19 ave 2480 max 2414 min
Histogram: 2 3 4 2 0 2 0 0 1 2
Neighs:    11462.8 ave 16792 max 5695 min
Histogram: 1 1 2 4 0 1 2 2 1 2

Total # of neighbors = 183404
Ave neighs/atom = 94.0533
Ave special neighs/atom = 5.90769
Neighbor list builds = 3807
Dangerous builds = 0
Total wall time: 0:48:08
