LAMMPS (30 Mar 2018)
Reading data file ...
  orthogonal box = (0 0 0) to (46.7237 46.7237 46.7237)
  2 by 2 by 4 MPI processor grid
  reading atoms ...
  3302 atoms
  scanning bonds ...
  5 = max bonds/atom
  scanning angles ...
  10 = max angles/atom
  scanning dihedrals ...
  32 = max dihedrals/atom
  scanning impropers ...
  3 = max impropers/atom
  reading bonds ...
  2064 bonds
  reading angles ...
  3696 angles
  reading dihedrals ...
  6240 dihedrals
  reading impropers ...
  1008 impropers
Finding 1-2 1-3 1-4 neighbors ...
  special bond factors lj:   0          0          0         
  special bond factors coul: 0          0          0         
  5 = max # of 1-2 neighbors
  8 = max # of 1-3 neighbors
  20 = max # of 1-4 neighbors
  19 = max # of special neighbors
Finding 1-2 1-3 1-4 neighbors ...
  special bond factors lj:   0          0          1         
  special bond factors coul: 1          1          1         
  5 = max # of 1-2 neighbors
  8 = max # of 1-3 neighbors
  19 = max # of special neighbors
WARNING: Using 'neigh_modify every 1 delay 0 check yes' setting during minimization (../min.cpp:168)
Neighbor list info ...
  update every 1 steps, delay 0 steps, check yes
  max neighbors/atom: 2000, page size: 100000
  master list distance cutoff = 16
  ghost atom cutoff = 16
  binsize = 8, bins = 6 6 6
  3 neighbor lists, perpetual/occasional/extra = 3 0 0
  (1) pair buck6d/coul/gauss/dsf, perpetual, skip from (3)
      attributes: half, newton on
      pair build: skip
      stencil: none
      bin: none
  (2) pair lj/cut, perpetual, skip from (3)
      attributes: half, newton on
      pair build: skip
      stencil: none
      bin: none
  (3) neighbor class addition, perpetual
      attributes: half, newton on
      pair build: half/bin/newton
      stencil: half/bin/3d/newton
      bin: standard
Setting up cg style minimization ...
  Unit style    : real
  Current step  : 0
WARNING: Inconsistent image flags (../domain.cpp:786)
Per MPI rank memory allocation (min/avg/max) = 23.02 | 23.48 | 23.92 Mbytes
Step Temp E_pair E_mol TotEng Press 
       0            0   -15919.321    6482.8914     -9436.43    6518.8525 
     500            0   -16301.017    3790.2929   -12510.724   -1406.5125 
Loop time of 4.79645 on 16 procs for 500 steps with 3302 atoms

99.8% CPU use with 16 MPI tasks x no OpenMP threads

Minimization stats:
  Stopping criterion = max force evaluations
  Energy initial, next-to-last, final = 
        -9436.43000592     -12510.6864004     -12510.7240576
  Force two-norm initial, final = 2575.03 9.03978
  Force max component initial, final = 152.024 0.85011
  Final line search alpha, max atom move = 0.0105655 0.0089818
  Iterations, force evaluations = 500 1000

MPI task timing breakdown:
Section |  min time  |  avg time  |  max time  |%varavg| %total
---------------------------------------------------------------
Pair    | 2.5661     | 3.0946     | 3.9175     |  20.4 | 64.52
Bond    | 0.25741    | 0.35943    | 0.4276     |   7.8 |  7.49
Neigh   | 0.029799   | 0.029938   | 0.030203   |   0.1 |  0.62
Comm    | 0.37435    | 1.2665     | 1.7955     |  33.7 | 26.41
Output  | 0          | 0          | 0          |   0.0 |  0.00
Modify  | 0          | 0          | 0          |   0.0 |  0.00
Other   |            | 0.04599    |            |       |  0.96

Nlocal:    206.375 ave 247 max 182 min
Histogram: 2 2 2 3 4 0 1 1 0 1
Nghost:    4138.31 ave 4174 max 4092 min
Histogram: 1 0 0 2 4 3 2 0 3 1
Neighs:    11497.2 ave 19856 max 7900 min
Histogram: 3 6 2 0 1 2 1 0 0 1

Total # of neighbors = 183956
Ave neighs/atom = 55.7105
Ave special neighs/atom = 3.48879
Neighbor list builds = 8
Dangerous builds = 0
Neighbor list info ...
  update every 1 steps, delay 10 steps, check yes
  max neighbors/atom: 2000, page size: 100000
  master list distance cutoff = 16
  ghost atom cutoff = 16
  binsize = 8, bins = 6 6 6
  3 neighbor lists, perpetual/occasional/extra = 3 0 0
  (1) pair buck6d/coul/gauss/dsf, perpetual, skip from (3)
      attributes: half, newton on
      pair build: skip
      stencil: none
      bin: none
  (2) pair lj/cut, perpetual, skip from (3)
      attributes: half, newton on
      pair build: skip
      stencil: none
      bin: none
  (3) neighbor class addition, perpetual
      attributes: half, newton on
      pair build: half/bin/newton
      stencil: half/bin/3d/newton
      bin: standard
Setting up Verlet run ...
  Unit style    : real
  Current step  : 500
  Time step     : 1
WARNING: Inconsistent image flags (../domain.cpp:786)
Per MPI rank memory allocation (min/avg/max) = 22.67 | 22.77 | 23.14 Mbytes
Step Temp PotEng TotEng Press Volume Lx Ly Lz 
     500           91   -12510.724   -11615.316   -1005.2372     102002.7      46.7237      46.7237      46.7237 
    1000    74.729308   -11749.739   -11014.429    276.94252     102002.7      46.7237      46.7237      46.7237 
    2000    90.889132   -11603.204   -10708.886    385.77296     102002.7      46.7237      46.7237      46.7237 
    3000    90.298381   -11660.863   -10772.358    383.05034     102002.7      46.7237      46.7237      46.7237 
    4000    89.184136   -11648.775   -10771.234    495.03223     102002.7      46.7237      46.7237      46.7237 
    5000    90.753167   -11639.519   -10746.539    390.30753     102002.7      46.7237      46.7237      46.7237 
    6000    88.478644   -11651.975   -10781.375    395.01572     102002.7      46.7237      46.7237      46.7237 
    7000    91.079889   -11641.767   -10745.572     96.75068     102002.7      46.7237      46.7237      46.7237 
    8000    89.606283   -11667.224    -10785.53    69.879854     102002.7      46.7237      46.7237      46.7237 
    9000    92.229922   -11667.476   -10759.966    327.72429     102002.7      46.7237      46.7237      46.7237 
   10000    90.020353   -11653.547   -10767.778    162.19042     102002.7      46.7237      46.7237      46.7237 
   11000    89.920986   -11670.423   -10785.632    163.38658     102002.7      46.7237      46.7237      46.7237 
   12000    92.760621   -11661.126   -10748.394    280.13741     102002.7      46.7237      46.7237      46.7237 
   13000    90.735021   -11668.705   -10775.903    190.31621     102002.7      46.7237      46.7237      46.7237 
   14000    90.894954   -11672.091   -10777.716    406.55659     102002.7      46.7237      46.7237      46.7237 
   15000    92.146577   -11664.668   -10757.978    365.52712     102002.7      46.7237      46.7237      46.7237 
   16000    90.858128   -11656.282    -10762.27    257.88767     102002.7      46.7237      46.7237      46.7237 
   17000    89.854749    -11675.35    -10791.21    263.68015     102002.7      46.7237      46.7237      46.7237 
   18000    90.742192   -11647.739   -10754.867     353.3992     102002.7      46.7237      46.7237      46.7237 
   19000    91.684926   -11643.287   -10741.139    304.10573     102002.7      46.7237      46.7237      46.7237 
   20000    91.536073   -11670.108   -10769.425    243.40939     102002.7      46.7237      46.7237      46.7237 
   21000    92.403423   -11665.158    -10755.94   -27.530583     102002.7      46.7237      46.7237      46.7237 
   22000    91.658827   -11680.989   -10779.098   -82.771963     102002.7      46.7237      46.7237      46.7237 
   23000    91.830631   -11682.913   -10779.331    415.95344     102002.7      46.7237      46.7237      46.7237 
   24000     88.26555   -11672.591   -10804.089    154.88773     102002.7      46.7237      46.7237      46.7237 
   25000    89.342795   -11679.087   -10799.985    301.94671     102002.7      46.7237      46.7237      46.7237 
   26000    90.758085   -11677.316   -10784.288    422.37283     102002.7      46.7237      46.7237      46.7237 
   27000    91.202306   -11644.869   -10747.469    624.78705     102002.7      46.7237      46.7237      46.7237 
   28000    93.136405   -11694.196   -10777.766    604.04698     102002.7      46.7237      46.7237      46.7237 
   29000    89.863196   -11668.027   -10783.804    103.67638     102002.7      46.7237      46.7237      46.7237 
   30000    89.570489   -11687.447   -10806.104    342.98885     102002.7      46.7237      46.7237      46.7237 
   31000    89.347955   -11668.428   -10789.275    94.649821     102002.7      46.7237      46.7237      46.7237 
   32000    88.722963   -11687.891   -10814.887    130.63301     102002.7      46.7237      46.7237      46.7237 
   33000    90.606429   -11686.443   -10794.907     195.2834     102002.7      46.7237      46.7237      46.7237 
   34000    92.816062   -11685.576   -10772.299    331.88575     102002.7      46.7237      46.7237      46.7237 
   35000    90.693054   -11665.838    -10773.45     500.3519     102002.7      46.7237      46.7237      46.7237 
   36000    89.886221   -11667.859   -10783.409    546.63715     102002.7      46.7237      46.7237      46.7237 
   37000    92.441508    -11670.78   -10761.188    541.88819     102002.7      46.7237      46.7237      46.7237 
   38000    89.925858   -11699.917   -10815.078    482.47554     102002.7      46.7237      46.7237      46.7237 
   39000    91.822892   -11681.768   -10778.263    389.79427     102002.7      46.7237      46.7237      46.7237 
   40000    90.714123   -11682.138   -10789.542    571.86418     102002.7      46.7237      46.7237      46.7237 
   41000    89.188721   -11701.023   -10823.437    618.78538     102002.7      46.7237      46.7237      46.7237 
   42000    90.581726   -11660.976   -10769.683    348.85627     102002.7      46.7237      46.7237      46.7237 
   43000    90.985215   -11657.353    -10762.09    562.49912     102002.7      46.7237      46.7237      46.7237 
   44000    88.824563   -11669.166   -10795.163    662.95568     102002.7      46.7237      46.7237      46.7237 
   45000    92.679838   -11660.068    -10748.13    450.16568     102002.7      46.7237      46.7237      46.7237 
   46000     92.56277   -11666.343   -10755.557    145.45623     102002.7      46.7237      46.7237      46.7237 
   47000    92.099311   -11668.169   -10761.944    356.22359     102002.7      46.7237      46.7237      46.7237 
   48000    90.536344   -11654.808   -10763.962     395.8483     102002.7      46.7237      46.7237      46.7237 
   49000     89.40072   -11659.756   -10780.083    478.97431     102002.7      46.7237      46.7237      46.7237 
   50000    92.012555   -11657.874   -10752.503    537.85775     102002.7      46.7237      46.7237      46.7237 
   51000    90.130567    -11686.62   -10799.766    204.37702     102002.7      46.7237      46.7237      46.7237 
   52000    91.636751   -11684.203   -10782.529    589.77042     102002.7      46.7237      46.7237      46.7237 
   53000    92.020237   -11679.902   -10774.455    514.18883     102002.7      46.7237      46.7237      46.7237 
   54000    90.564087   -11680.659   -10789.539    461.52126     102002.7      46.7237      46.7237      46.7237 
   55000    92.643819    -11675.41   -10763.827    779.18443     102002.7      46.7237      46.7237      46.7237 
   56000    91.733463   -11683.664   -10781.038    669.71436     102002.7      46.7237      46.7237      46.7237 
   57000    92.563645   -11678.035    -10767.24    317.07957     102002.7      46.7237      46.7237      46.7237 
   58000    89.310223   -11669.749   -10790.967     511.8549     102002.7      46.7237      46.7237      46.7237 
   59000    89.498305   -11665.072   -10784.439     240.5489     102002.7      46.7237      46.7237      46.7237 
   60000    91.554286   -11664.013    -10763.15    100.20721     102002.7      46.7237      46.7237      46.7237 
   61000    90.424531   -11657.008   -10767.262    546.57035     102002.7      46.7237      46.7237      46.7237 
   62000    90.671073   -11675.502    -10783.33    205.80521     102002.7      46.7237      46.7237      46.7237 
   63000    91.449788    -11692.38   -10792.546    411.91503     102002.7      46.7237      46.7237      46.7237 
   64000    90.451193   -11703.669   -10813.661    315.07987     102002.7      46.7237      46.7237      46.7237 
   65000    93.155121   -11685.625    -10769.01    22.861451     102002.7      46.7237      46.7237      46.7237 
   66000     90.47114   -11673.073   -10782.868    500.77725     102002.7      46.7237      46.7237      46.7237 
   67000    91.149575   -11698.793   -10801.913    438.57276     102002.7      46.7237      46.7237      46.7237 
   68000    92.276556   -11689.163   -10781.194    411.39083     102002.7      46.7237      46.7237      46.7237 
   69000    91.084494   -11679.291   -10783.052    447.95394     102002.7      46.7237      46.7237      46.7237 
   70000    93.402605   -11687.912   -10768.862    303.80031     102002.7      46.7237      46.7237      46.7237 
   71000    88.939495   -11675.954    -10800.82    381.20038     102002.7      46.7237      46.7237      46.7237 
   72000    90.643615   -11678.465   -10786.564     417.3301     102002.7      46.7237      46.7237      46.7237 
   73000    89.520694   -11671.179   -10790.326    132.63127     102002.7      46.7237      46.7237      46.7237 
   74000    87.508327   -11703.143   -10842.091    303.35165     102002.7      46.7237      46.7237      46.7237 
   75000    90.831528   -11689.035   -10795.284    197.89936     102002.7      46.7237      46.7237      46.7237 
   76000    88.208762   -11668.154    -10800.21    113.26709     102002.7      46.7237      46.7237      46.7237 
   77000    92.270837    -11693.73   -10785.817    309.33318     102002.7      46.7237      46.7237      46.7237 
   78000    90.149782   -11679.559   -10792.516    140.06084     102002.7      46.7237      46.7237      46.7237 
   79000    93.026264   -11690.843   -10775.497    652.34938     102002.7      46.7237      46.7237      46.7237 
   80000    90.581936    -11706.19   -10814.895    467.92371     102002.7      46.7237      46.7237      46.7237 
   81000    90.659136   -11701.493   -10809.439    409.44607     102002.7      46.7237      46.7237      46.7237 
   82000    91.472414   -11688.286   -10788.229    54.273761     102002.7      46.7237      46.7237      46.7237 
   83000    89.137637   -11696.469   -10819.386   -197.04817     102002.7      46.7237      46.7237      46.7237 
   84000    91.545968     -11711.9    -10811.12    198.56797     102002.7      46.7237      46.7237      46.7237 
   85000    92.621507    -11706.36   -10794.996    169.33416     102002.7      46.7237      46.7237      46.7237 
   86000    92.492717    -11680.42   -10770.324    392.91856     102002.7      46.7237      46.7237      46.7237 
   87000    89.761429   -11698.286   -10815.065    367.37454     102002.7      46.7237      46.7237      46.7237 
   88000    90.711765   -11696.158   -10803.586    347.94564     102002.7      46.7237      46.7237      46.7237 
   89000    91.279831   -11684.601   -10786.439    316.28539     102002.7      46.7237      46.7237      46.7237 
   90000      91.8599   -11669.841   -10765.971    337.52631     102002.7      46.7237      46.7237      46.7237 
   91000     91.39135   -11700.761   -10801.501    241.95354     102002.7      46.7237      46.7237      46.7237 
   92000    90.256782   -11684.111   -10796.015     272.8156     102002.7      46.7237      46.7237      46.7237 
   93000    89.948353   -11701.313   -10816.252    539.24914     102002.7      46.7237      46.7237      46.7237 
   94000    91.748292   -11699.662   -10796.891    522.91732     102002.7      46.7237      46.7237      46.7237 
   95000    91.834872     -11684.2   -10780.576    411.28169     102002.7      46.7237      46.7237      46.7237 
   96000    92.796271   -11703.927   -10790.844    532.98109     102002.7      46.7237      46.7237      46.7237 
   97000    90.057359   -11709.153    -10823.02    84.078756     102002.7      46.7237      46.7237      46.7237 
   98000    92.487639   -11678.432   -10768.385     333.9781     102002.7      46.7237      46.7237      46.7237 
   99000     92.56096   -11709.909   -10799.141    375.79092     102002.7      46.7237      46.7237      46.7237 
  100000    94.445621   -11711.817   -10782.505    226.83469     102002.7      46.7237      46.7237      46.7237 
  101000     91.45342   -11694.041   -10794.171      664.131     102002.7      46.7237      46.7237      46.7237 
  102000    88.490996   -11708.448   -10837.727    362.11794     102002.7      46.7237      46.7237      46.7237 
  103000    88.765546    -11683.94   -10810.517    201.42591     102002.7      46.7237      46.7237      46.7237 
  104000    91.012317   -11703.941   -10808.411    486.32408     102002.7      46.7237      46.7237      46.7237 
  105000    90.126027   -11725.964   -10839.155    22.160382     102002.7      46.7237      46.7237      46.7237 
  106000    91.490078   -11687.828   -10787.597    351.90712     102002.7      46.7237      46.7237      46.7237 
  107000    90.962841   -11704.992   -10809.949     484.4073     102002.7      46.7237      46.7237      46.7237 
  108000    92.824831   -11671.228   -10757.864     286.5922     102002.7      46.7237      46.7237      46.7237 
  109000    92.704728   -11712.674   -10800.492    468.84523     102002.7      46.7237      46.7237      46.7237 
  110000    94.684953   -11697.273   -10765.605    215.81915     102002.7      46.7237      46.7237      46.7237 
  111000    88.939372   -11698.803   -10823.671    334.35703     102002.7      46.7237      46.7237      46.7237 
  112000    90.712619   -11684.625   -10792.044    452.01926     102002.7      46.7237      46.7237      46.7237 
  113000    91.009665   -11700.411   -10804.907    25.465888     102002.7      46.7237      46.7237      46.7237 
  114000    91.529283   -11702.738   -10802.122    236.48632     102002.7      46.7237      46.7237      46.7237 
  115000     90.29128   -11705.666   -10817.231     516.9139     102002.7      46.7237      46.7237      46.7237 
  116000    89.706047   -11714.054   -10831.378    331.50595     102002.7      46.7237      46.7237      46.7237 
  117000    91.046954   -11693.821   -10797.951    377.63389     102002.7      46.7237      46.7237      46.7237 
  118000    90.609441   -11698.784   -10807.218    290.54474     102002.7      46.7237      46.7237      46.7237 
  119000    89.427847   -11691.592   -10811.653    141.46183     102002.7      46.7237      46.7237      46.7237 
  120000     92.67763   -11701.885   -10789.969    558.68604     102002.7      46.7237      46.7237      46.7237 
  121000    91.120709   -11695.178   -10798.582     327.6008     102002.7      46.7237      46.7237      46.7237 
  122000    90.235233   -11698.743    -10810.86    97.632897     102002.7      46.7237      46.7237      46.7237 
  123000    89.904149   -11714.234   -10829.608    417.80694     102002.7      46.7237      46.7237      46.7237 
  124000     90.52084    -11704.55   -10813.857    237.54564     102002.7      46.7237      46.7237      46.7237 
  125000     89.62333   -11673.197   -10791.334    484.26825     102002.7      46.7237      46.7237      46.7237 
  126000    89.597664   -11703.031   -10821.421     736.0414     102002.7      46.7237      46.7237      46.7237 
  127000    89.234958    -11683.01   -10804.968    482.16828     102002.7      46.7237      46.7237      46.7237 
  128000    92.914154   -11702.724    -10788.48    256.36196     102002.7      46.7237      46.7237      46.7237 
  129000    91.374263   -11718.923   -10819.832    283.63472     102002.7      46.7237      46.7237      46.7237 
  130000    92.310182   -11688.529   -10780.229    577.03798     102002.7      46.7237      46.7237      46.7237 
  131000    92.441339   -11722.255   -10812.664    302.29425     102002.7      46.7237      46.7237      46.7237 
  132000    91.837809    -11699.71   -10796.058    204.22198     102002.7      46.7237      46.7237      46.7237 
  133000    89.207713   -11701.458   -10823.685    77.713642     102002.7      46.7237      46.7237      46.7237 
  134000    88.299871   -11714.426   -10845.586    262.23954     102002.7      46.7237      46.7237      46.7237 
  135000    92.946581   -11733.883   -10819.321    57.818276     102002.7      46.7237      46.7237      46.7237 
  136000    92.824209   -11687.265   -10773.907    599.26946     102002.7      46.7237      46.7237      46.7237 
  137000    93.245896   -11710.837    -10793.33     416.4558     102002.7      46.7237      46.7237      46.7237 
  138000    91.177605   -11706.267   -10809.111    379.75172     102002.7      46.7237      46.7237      46.7237 
  139000    93.156145   -11708.436   -10791.812    287.38045     102002.7      46.7237      46.7237      46.7237 
  140000    92.483706    -11705.84   -10795.833   -169.98792     102002.7      46.7237      46.7237      46.7237 
  141000    89.408399   -11692.573   -10812.826     565.1193     102002.7      46.7237      46.7237      46.7237 
  142000    91.277347   -11725.533   -10827.395     259.0876     102002.7      46.7237      46.7237      46.7237 
  143000    91.199181   -11693.492   -10796.124    284.87035     102002.7      46.7237      46.7237      46.7237 
  144000    92.851394   -11690.319   -10776.693    362.08277     102002.7      46.7237      46.7237      46.7237 
  145000    91.877247   -11696.389   -10792.349     271.1558     102002.7      46.7237      46.7237      46.7237 
  146000    92.674824   -11706.426   -10794.537    103.35914     102002.7      46.7237      46.7237      46.7237 
  147000    89.745893   -11707.017   -10823.948    260.43474     102002.7      46.7237      46.7237      46.7237 
  148000    90.217451   -11689.515   -10801.807    257.68889     102002.7      46.7237      46.7237      46.7237 
  149000    88.888718   -11723.458   -10848.823    206.94472     102002.7      46.7237      46.7237      46.7237 
  150000    91.056357   -11689.682   -10793.719    265.73946     102002.7      46.7237      46.7237      46.7237 
  151000    91.245893    -11686.25   -10788.422    176.94594     102002.7      46.7237      46.7237      46.7237 
  152000    89.304944   -11716.564   -10837.834    54.181992     102002.7      46.7237      46.7237      46.7237 
  153000    91.113618    -11704.52   -10807.994   -36.218667     102002.7      46.7237      46.7237      46.7237 
  154000     87.73606   -11692.915   -10829.622    262.41523     102002.7      46.7237      46.7237      46.7237 
  155000    91.706978   -11706.182   -10803.817    257.42479     102002.7      46.7237      46.7237      46.7237 
  156000    93.621656   -11717.622   -10796.417    168.73575     102002.7      46.7237      46.7237      46.7237 
  157000    91.733234   -11717.084   -10814.461    195.65912     102002.7      46.7237      46.7237      46.7237 
  158000    91.498794   -11700.315   -10799.999     243.7912     102002.7      46.7237      46.7237      46.7237 
  159000    90.693605   -11709.855   -10817.461    774.16158     102002.7      46.7237      46.7237      46.7237 
  160000    92.344063   -11693.033   -10784.399    444.11752     102002.7      46.7237      46.7237      46.7237 
  161000    90.804884   -11713.779   -10820.291    119.65176     102002.7      46.7237      46.7237      46.7237 
  162000    93.521044   -11710.132   -10789.917    100.57506     102002.7      46.7237      46.7237      46.7237 
  163000    89.970396   -11705.466   -10820.188    247.36877     102002.7      46.7237      46.7237      46.7237 
  164000    91.226976   -11709.239   -10811.597    361.52903     102002.7      46.7237      46.7237      46.7237 
  165000    91.450877   -11707.386   -10807.541    315.30557     102002.7      46.7237      46.7237      46.7237 
  166000    90.341956   -11697.663    -10808.73     251.5237     102002.7      46.7237      46.7237      46.7237 
  167000    90.778479   -11711.494   -10818.266    544.05185     102002.7      46.7237      46.7237      46.7237 
  168000    90.751765    -11706.91   -10813.944    216.29333     102002.7      46.7237      46.7237      46.7237 
  169000    92.513041   -11713.168   -10802.872    331.10513     102002.7      46.7237      46.7237      46.7237 
  170000    89.746427    -11699.03   -10815.957      248.157     102002.7      46.7237      46.7237      46.7237 
  171000    88.587254   -11684.201   -10812.533    220.96384     102002.7      46.7237      46.7237      46.7237 
  172000    89.378302   -11716.362    -10836.91     387.6976     102002.7      46.7237      46.7237      46.7237 
  173000    92.181563   -11707.053   -10800.019    404.57365     102002.7      46.7237      46.7237      46.7237 
  174000     88.39971    -11714.54   -10844.718    215.37028     102002.7      46.7237      46.7237      46.7237 
  175000    91.647929   -11697.978   -10796.194    484.25433     102002.7      46.7237      46.7237      46.7237 
  176000    90.533346   -11707.477    -10816.66    322.65893     102002.7      46.7237      46.7237      46.7237 
  177000    90.735152   -11718.231   -10825.428    200.49374     102002.7      46.7237      46.7237      46.7237 
  178000    91.297774   -11697.462   -10799.124    166.70687     102002.7      46.7237      46.7237      46.7237 
  179000    91.847575   -11711.571   -10807.823    418.53977     102002.7      46.7237      46.7237      46.7237 
  180000    93.462753   -11715.387   -10795.746    349.62013     102002.7      46.7237      46.7237      46.7237 
  181000    89.788055   -11684.813    -10801.33    308.85382     102002.7      46.7237      46.7237      46.7237 
  182000    93.058521   -11701.704   -10786.041    277.43684     102002.7      46.7237      46.7237      46.7237 
  183000    93.243787   -11728.753   -10811.266     313.5685     102002.7      46.7237      46.7237      46.7237 
  184000    91.240646   -11704.169   -10806.393    185.68942     102002.7      46.7237      46.7237      46.7237 
  185000    91.242861   -11696.877   -10799.078    144.58155     102002.7      46.7237      46.7237      46.7237 
  186000    90.363895   -11725.669   -10836.519    381.81589     102002.7      46.7237      46.7237      46.7237 
  187000    90.223248   -11701.996    -10814.23    123.48441     102002.7      46.7237      46.7237      46.7237 
  188000    89.363217    -11704.23   -10824.927    217.11143     102002.7      46.7237      46.7237      46.7237 
  189000    91.761616   -11702.199   -10799.296    319.77145     102002.7      46.7237      46.7237      46.7237 
  190000    92.001571   -11706.906   -10801.643    258.35333     102002.7      46.7237      46.7237      46.7237 
  191000    92.010142   -11720.431   -10815.083     171.4695     102002.7      46.7237      46.7237      46.7237 
  192000     92.24915   -11689.202   -10781.502    381.32107     102002.7      46.7237      46.7237      46.7237 
  193000    89.538242   -11705.051   -10824.026    480.94335     102002.7      46.7237      46.7237      46.7237 
  194000    90.699271   -11687.428   -10794.978    464.70879     102002.7      46.7237      46.7237      46.7237 
  195000    92.082726   -11705.209   -10799.146    439.00432     102002.7      46.7237      46.7237      46.7237 
  196000    90.145997   -11711.698   -10824.693    225.89964     102002.7      46.7237      46.7237      46.7237 
  197000    91.357872   -11692.261   -10793.331    215.51601     102002.7      46.7237      46.7237      46.7237 
  198000    90.951743   -11698.813    -10803.88    279.12036     102002.7      46.7237      46.7237      46.7237 
  199000    91.353789   -11689.891   -10791.001    467.45745     102002.7      46.7237      46.7237      46.7237 
  200000     93.00405   -11698.448    -10783.32    497.41636     102002.7      46.7237      46.7237      46.7237 
  201000    90.708633   -11692.214   -10799.673     287.2529     102002.7      46.7237      46.7237      46.7237 
  202000    90.005396   -11703.677   -10818.055    395.75462     102002.7      46.7237      46.7237      46.7237 
  203000     92.10656   -11708.409   -10802.112     477.8968     102002.7      46.7237      46.7237      46.7237 
  204000    92.008678    -11719.56   -10814.226    529.68989     102002.7      46.7237      46.7237      46.7237 
  205000     91.27329   -11702.171   -10804.073    450.98691     102002.7      46.7237      46.7237      46.7237 
  206000    92.354509   -11723.861   -10815.124    248.03651     102002.7      46.7237      46.7237      46.7237 
  207000    90.360102   -11695.295   -10806.183    412.77648     102002.7      46.7237      46.7237      46.7237 
  208000    90.299072   -11686.763   -10798.251    882.14111     102002.7      46.7237      46.7237      46.7237 
  209000    89.675146   -11708.804   -10826.431    474.20636     102002.7      46.7237      46.7237      46.7237 
  210000    92.121692   -11702.775   -10796.329    393.87032     102002.7      46.7237      46.7237      46.7237 
  211000    91.447591   -11704.196   -10804.383    336.62683     102002.7      46.7237      46.7237      46.7237 
  212000    89.620867   -11727.297   -10845.458    100.38075     102002.7      46.7237      46.7237      46.7237 
  213000    91.958739   -11703.697   -10798.855    78.490788     102002.7      46.7237      46.7237      46.7237 
  214000    90.871391   -11696.194   -10802.051    277.29864     102002.7      46.7237      46.7237      46.7237 
  215000    91.359229   -11691.594   -10792.651    20.855485     102002.7      46.7237      46.7237      46.7237 
  216000    89.309299   -11707.605   -10828.832    80.720609     102002.7      46.7237      46.7237      46.7237 
  217000    92.262739   -11708.648   -10800.814    4.7610486     102002.7      46.7237      46.7237      46.7237 
  218000    90.852531   -11722.205   -10828.248      279.727     102002.7      46.7237      46.7237      46.7237 
  219000    88.886368   -11719.311   -10844.699    399.45054     102002.7      46.7237      46.7237      46.7237 
  220000    91.405989   -11696.735   -10797.332    136.68962     102002.7      46.7237      46.7237      46.7237 
  221000    89.636701   -11716.359   -10834.365    277.02096     102002.7      46.7237      46.7237      46.7237 
  222000    88.127306   -11683.806   -10816.664    331.11771     102002.7      46.7237      46.7237      46.7237 
  223000    92.152141   -11713.904   -10807.159    36.645341     102002.7      46.7237      46.7237      46.7237 
  224000    89.422284   -11716.455   -10836.571    301.49304     102002.7      46.7237      46.7237      46.7237 
  225000    91.088119   -11719.873   -10823.597    364.96584     102002.7      46.7237      46.7237      46.7237 
  226000    89.043258   -11686.884   -10810.729    15.564502     102002.7      46.7237      46.7237      46.7237 
  227000    89.606561   -11696.349   -10814.652    211.50899     102002.7      46.7237      46.7237      46.7237 
  228000    89.329606    -11695.37   -10816.397    238.62517     102002.7      46.7237      46.7237      46.7237 
  229000    95.439903    -11689.99   -10750.894    415.33667     102002.7      46.7237      46.7237      46.7237 
  230000    91.436141   -11721.797   -10822.097    439.35051     102002.7      46.7237      46.7237      46.7237 
  231000    92.034121   -11712.896   -10807.312    197.97691     102002.7      46.7237      46.7237      46.7237 
  232000    89.365607   -11700.991   -10821.664    112.05699     102002.7      46.7237      46.7237      46.7237 
  233000    90.773738   -11707.816   -10814.634    41.157043     102002.7      46.7237      46.7237      46.7237 
  234000    89.607111   -11696.736   -10815.033    203.58154     102002.7      46.7237      46.7237      46.7237 
  235000    89.007222   -11714.591   -10838.791    423.35321     102002.7      46.7237      46.7237      46.7237 
  236000    92.889393   -11696.914   -10782.914    318.52831     102002.7      46.7237      46.7237      46.7237 
  237000    89.802702   -11708.819   -10825.191    11.030842     102002.7      46.7237      46.7237      46.7237 
  238000    88.864047   -11717.084   -10842.693    418.61817     102002.7      46.7237      46.7237      46.7237 
  239000    89.799715   -11698.491   -10814.893    296.39389     102002.7      46.7237      46.7237      46.7237 
  240000    89.506316   -11706.496   -10825.785    240.66745     102002.7      46.7237      46.7237      46.7237 
  241000     91.75741   -11709.473   -10806.612    339.27772     102002.7      46.7237      46.7237      46.7237 
  242000    92.566371   -11719.139   -10808.317    413.59376     102002.7      46.7237      46.7237      46.7237 
  243000    91.673271   -11683.884   -10781.851    413.05984     102002.7      46.7237      46.7237      46.7237 
  244000    88.764085   -11698.687   -10825.279    355.47484     102002.7      46.7237      46.7237      46.7237 
  245000    92.456109   -11707.985   -10798.249    347.10775     102002.7      46.7237      46.7237      46.7237 
  246000    90.218584    -11708.68    -10820.96   -27.258622     102002.7      46.7237      46.7237      46.7237 
  247000    91.505138   -11722.466   -10822.087    317.34802     102002.7      46.7237      46.7237      46.7237 
  248000    91.351057   -11714.238   -10815.376    215.16208     102002.7      46.7237      46.7237      46.7237 
  249000    91.027204   -11722.618   -10826.942     198.3421     102002.7      46.7237      46.7237      46.7237 
  250000     92.91443   -11713.218   -10798.972    465.17699     102002.7      46.7237      46.7237      46.7237 
  251000    90.046234   -11705.541   -10819.517    235.68597     102002.7      46.7237      46.7237      46.7237 
  252000    90.254941   -11679.751   -10791.674     219.6819     102002.7      46.7237      46.7237      46.7237 
  253000    89.526498   -11700.326   -10819.416    426.16354     102002.7      46.7237      46.7237      46.7237 
  254000    90.984111   -11709.396   -10814.144    112.73969     102002.7      46.7237      46.7237      46.7237 
  255000    89.865168   -11705.493   -10821.251    358.24298     102002.7      46.7237      46.7237      46.7237 
  256000    91.798625   -11708.245   -10804.979    216.50484     102002.7      46.7237      46.7237      46.7237 
  257000    91.755995   -11698.805   -10795.958    316.72899     102002.7      46.7237      46.7237      46.7237 
  258000    91.182553   -11719.024    -10821.82    112.95246     102002.7      46.7237      46.7237      46.7237 
  259000    88.440325   -11697.762   -10827.539    380.79079     102002.7      46.7237      46.7237      46.7237 
  260000    90.978268   -11686.296   -10791.101    546.24844     102002.7      46.7237      46.7237      46.7237 
  261000    91.225472   -11683.014   -10785.387    577.01391     102002.7      46.7237      46.7237      46.7237 
  262000    90.543503   -11704.124   -10813.207    621.40822     102002.7      46.7237      46.7237      46.7237 
  263000    91.950769   -11710.757   -10805.993    298.59863     102002.7      46.7237      46.7237      46.7237 
  264000    90.574505   -11701.262    -10810.04    365.79295     102002.7      46.7237      46.7237      46.7237 
  265000    92.431906   -11677.134   -10767.636    600.01891     102002.7      46.7237      46.7237      46.7237 
  266000     91.88086   -11719.385    -10815.31    176.38154     102002.7      46.7237      46.7237      46.7237 
  267000    89.252706   -11721.089   -10842.874    146.23034     102002.7      46.7237      46.7237      46.7237 
  268000    90.881662   -11705.988   -10811.744    474.26363     102002.7      46.7237      46.7237      46.7237 
  269000    90.906713   -11692.828   -10798.337    25.150366     102002.7      46.7237      46.7237      46.7237 
  270000    90.836267   -11691.114   -10797.317     221.2997     102002.7      46.7237      46.7237      46.7237 
  271000    91.506155   -11706.552   -10806.163     582.4007     102002.7      46.7237      46.7237      46.7237 
  272000    92.397636   -11708.229   -10799.068    369.90826     102002.7      46.7237      46.7237      46.7237 
  273000     90.89889   -11724.167   -10829.753    427.02688     102002.7      46.7237      46.7237      46.7237 
  274000    91.383858   -11696.117   -10796.932    251.53287     102002.7      46.7237      46.7237      46.7237 
  275000    89.307377   -11704.112   -10825.359   -95.212901     102002.7      46.7237      46.7237      46.7237 
  276000     89.95673   -11681.644   -10796.501    321.86228     102002.7      46.7237      46.7237      46.7237 
  277000    90.444967   -11691.107    -10801.16    453.97884     102002.7      46.7237      46.7237      46.7237 
  278000     87.76596   -11698.309   -10834.722    440.31773     102002.7      46.7237      46.7237      46.7237 
  279000    94.155864   -11703.771   -10777.309    295.06667     102002.7      46.7237      46.7237      46.7237 
  280000    90.552968   -11689.412   -10798.402     364.2922     102002.7      46.7237      46.7237      46.7237 
  281000    91.883796   -11715.238   -10811.133    272.22744     102002.7      46.7237      46.7237      46.7237 
  282000    92.473133   -11684.939   -10775.036    201.68171     102002.7      46.7237      46.7237      46.7237 
  283000     92.39672   -11689.303   -10780.151    425.80582     102002.7      46.7237      46.7237      46.7237 
  284000     90.99825   -11709.826   -10814.435    429.79238     102002.7      46.7237      46.7237      46.7237 
  285000    89.865653   -11727.171   -10842.925    389.21628     102002.7      46.7237      46.7237      46.7237 
  286000    89.736535   -11700.161   -10817.184    243.72467     102002.7      46.7237      46.7237      46.7237 
  287000    89.918622   -11713.101   -10828.333    79.480567     102002.7      46.7237      46.7237      46.7237 
  288000    87.839534   -11692.348   -10828.038    444.49885     102002.7      46.7237      46.7237      46.7237 
  289000    91.492762   -11701.547    -10801.29     435.4669     102002.7      46.7237      46.7237      46.7237 
  290000    90.956083   -11716.072   -10821.096     347.1937     102002.7      46.7237      46.7237      46.7237 
  291000    90.807371   -11690.894   -10797.381    475.39833     102002.7      46.7237      46.7237      46.7237 
  292000    88.668457   -11718.165   -10845.698    324.10012     102002.7      46.7237      46.7237      46.7237 
  293000     89.94779   -11685.149   -10800.094    591.96565     102002.7      46.7237      46.7237      46.7237 
  294000    92.302457   -11711.168   -10802.944    411.92071     102002.7      46.7237      46.7237      46.7237 
  295000    91.499459   -11711.775   -10811.452    250.16796     102002.7      46.7237      46.7237      46.7237 
  296000    89.075121   -11680.735   -10804.267    393.66927     102002.7      46.7237      46.7237      46.7237 
  297000    89.893197   -11706.288    -10821.77    281.58902     102002.7      46.7237      46.7237      46.7237 
  298000    90.563273   -11683.019   -10791.908    338.64351     102002.7      46.7237      46.7237      46.7237 
  299000    92.493899   -11678.599   -10768.491    209.67295     102002.7      46.7237      46.7237      46.7237 
  300000    91.502737   -11705.267   -10804.912    215.09927     102002.7      46.7237      46.7237      46.7237 
  301000    90.155259   -11664.955   -10777.859    314.42163     102002.7      46.7237      46.7237      46.7237 
  302000    92.292651   -11696.549   -10788.421    607.01485     102002.7      46.7237      46.7237      46.7237 
  303000    89.853827   -11711.911   -10827.781    105.52227     102002.7      46.7237      46.7237      46.7237 
  304000    89.579844   -11696.035     -10814.6    404.62951     102002.7      46.7237      46.7237      46.7237 
  305000    91.123338   -11704.095   -10807.473    431.15424     102002.7      46.7237      46.7237      46.7237 
  306000    88.093772   -11696.246   -10829.434    361.75932     102002.7      46.7237      46.7237      46.7237 
  307000    92.611119   -11712.961   -10801.699    627.82707     102002.7      46.7237      46.7237      46.7237 
  308000    89.527748   -11713.402    -10832.48    719.83671     102002.7      46.7237      46.7237      46.7237 
  309000    89.457357   -11697.303   -10817.073    306.47671     102002.7      46.7237      46.7237      46.7237 
  310000    92.227041   -11725.494   -10818.012    359.05813     102002.7      46.7237      46.7237      46.7237 
  311000    89.962589   -11712.996   -10827.795    425.63465     102002.7      46.7237      46.7237      46.7237 
  312000    91.474783   -11700.694   -10800.613     27.35133     102002.7      46.7237      46.7237      46.7237 
  313000    91.123329     -11702.2   -10805.578    342.08564     102002.7      46.7237      46.7237      46.7237 
  314000    92.122418   -11730.405   -10823.952    398.01591     102002.7      46.7237      46.7237      46.7237 
  315000    89.564459   -11702.831   -10821.548    243.66901     102002.7      46.7237      46.7237      46.7237 
  316000     89.42668   -11705.402   -10825.475    186.01449     102002.7      46.7237      46.7237      46.7237 
  317000    89.970568   -11705.036   -10819.756    329.89297     102002.7      46.7237      46.7237      46.7237 
  318000     90.77054   -11714.513   -10821.363    574.58553     102002.7      46.7237      46.7237      46.7237 
  319000    93.145452   -11722.269    -10805.75    237.07909     102002.7      46.7237      46.7237      46.7237 
  320000    89.763573   -11715.197   -10831.955    523.85779     102002.7      46.7237      46.7237      46.7237 
  321000    89.882231    -11686.52   -10802.109    382.82878     102002.7      46.7237      46.7237      46.7237 
  322000    91.522546   -11687.424   -10786.874    283.17808     102002.7      46.7237      46.7237      46.7237 
  323000    91.149065   -11711.443   -10814.567    408.69443     102002.7      46.7237      46.7237      46.7237 
  324000    89.089226   -11731.039   -10854.432    26.351828     102002.7      46.7237      46.7237      46.7237 
  325000    90.221083   -11672.942   -10785.197    278.35102     102002.7      46.7237      46.7237      46.7237 
  326000    90.827812    -11703.01   -10809.296    672.06017     102002.7      46.7237      46.7237      46.7237 
  327000    90.592571   -11684.002   -10792.602    96.266313     102002.7      46.7237      46.7237      46.7237 
  328000    90.305965   -11706.471   -10817.891    361.00874     102002.7      46.7237      46.7237      46.7237 
  329000    90.331498   -11701.825   -10812.995    335.17902     102002.7      46.7237      46.7237      46.7237 
  330000    92.936528   -11713.683   -10799.219    330.43372     102002.7      46.7237      46.7237      46.7237 
  331000    91.133512   -11693.895   -10797.173    305.44057     102002.7      46.7237      46.7237      46.7237 
  332000    92.542426   -11711.974   -10801.388     310.2397     102002.7      46.7237      46.7237      46.7237 
  333000    89.046998    -11693.95   -10817.759    573.70702     102002.7      46.7237      46.7237      46.7237 
  334000    90.428551   -11733.667   -10843.881    442.08873     102002.7      46.7237      46.7237      46.7237 
  335000    88.244935   -11707.121   -10838.822    507.62972     102002.7      46.7237      46.7237      46.7237 
  336000    90.298582   -11700.606   -10812.099    420.67356     102002.7      46.7237      46.7237      46.7237 
  337000    93.278593   -11716.606   -10798.777     649.8779     102002.7      46.7237      46.7237      46.7237 
  338000    89.433075   -11720.025   -10840.035     369.0642     102002.7      46.7237      46.7237      46.7237 
  339000    92.051674   -11731.148   -10825.391    476.26668     102002.7      46.7237      46.7237      46.7237 
  340000    89.278535   -11706.909   -10828.439    514.30062     102002.7      46.7237      46.7237      46.7237 
  341000    90.881445   -11698.532    -10804.29    520.16803     102002.7      46.7237      46.7237      46.7237 
  342000    91.109807   -11718.797   -10822.308    294.38172     102002.7      46.7237      46.7237      46.7237 
  343000    93.717496   -11699.348     -10777.2    687.05285     102002.7      46.7237      46.7237      46.7237 
  344000     90.87494   -11708.978     -10814.8    137.57835     102002.7      46.7237      46.7237      46.7237 
  345000    90.198278   -11711.888   -10824.368    21.406588     102002.7      46.7237      46.7237      46.7237 
  346000    91.689815   -11712.099   -10809.903    292.76412     102002.7      46.7237      46.7237      46.7237 
  347000    92.065379   -11698.258   -10792.367    340.04935     102002.7      46.7237      46.7237      46.7237 
  348000    90.326469   -11710.356   -10821.575    148.49779     102002.7      46.7237      46.7237      46.7237 
  349000    93.021674   -11711.368   -10796.067    193.15786     102002.7      46.7237      46.7237      46.7237 
  350000    90.127494   -11728.545   -10841.722   -89.369487     102002.7      46.7237      46.7237      46.7237 
  351000    91.233394   -11731.752   -10834.047   -28.619747     102002.7      46.7237      46.7237      46.7237 
  352000    92.662157   -11721.026   -10809.263    62.784202     102002.7      46.7237      46.7237      46.7237 
  353000    91.777606   -11698.776   -10795.716    216.91358     102002.7      46.7237      46.7237      46.7237 
  354000    91.142976   -11691.473   -10794.657    236.85802     102002.7      46.7237      46.7237      46.7237 
  355000    91.323739   -11716.203   -10817.609    227.59063     102002.7      46.7237      46.7237      46.7237 
  356000    91.668249    -11721.05   -10819.066    181.30783     102002.7      46.7237      46.7237      46.7237 
  357000    91.340992   -11705.044    -10806.28    296.80465     102002.7      46.7237      46.7237      46.7237 
  358000    90.298412    -11715.33   -10826.825    318.52495     102002.7      46.7237      46.7237      46.7237 
  359000    92.656232   -11691.491   -10779.786    388.90593     102002.7      46.7237      46.7237      46.7237 
  360000    90.037547   -11710.031   -10824.092    363.59838     102002.7      46.7237      46.7237      46.7237 
  361000    90.574682    -11703.92   -10812.697    182.75819     102002.7      46.7237      46.7237      46.7237 
  362000    88.839445   -11719.666   -10845.516    223.24882     102002.7      46.7237      46.7237      46.7237 
  363000    92.726645    -11715.88   -10803.482    367.93278     102002.7      46.7237      46.7237      46.7237 
  364000    90.344371   -11709.216   -10820.258    207.93708     102002.7      46.7237      46.7237      46.7237 
  365000    90.670733   -11691.428   -10799.259    124.72788     102002.7      46.7237      46.7237      46.7237 
  366000    92.918891   -11695.447   -10781.157    306.46069     102002.7      46.7237      46.7237      46.7237 
  367000    91.005599   -11729.575   -10834.112    342.49202     102002.7      46.7237      46.7237      46.7237 
  368000    92.119472   -11691.792   -10785.369    664.27753     102002.7      46.7237      46.7237      46.7237 
  369000    90.058341   -11696.345   -10810.202     354.6944     102002.7      46.7237      46.7237      46.7237 
  370000    90.016612   -11697.132   -10811.399    291.72811     102002.7      46.7237      46.7237      46.7237 
  371000    91.617204   -11676.096   -10774.614     225.3092     102002.7      46.7237      46.7237      46.7237 
  372000    89.185034   -11706.382   -10828.832    382.00026     102002.7      46.7237      46.7237      46.7237 
  373000    89.622686   -11690.197   -10808.341    386.52824     102002.7      46.7237      46.7237      46.7237 
  374000    91.247595   -11707.258   -10809.413    381.44597     102002.7      46.7237      46.7237      46.7237 
  375000    92.211355   -11704.916   -10797.588     485.5671     102002.7      46.7237      46.7237      46.7237 
  376000    90.325206   -11709.486   -10820.718    305.02345     102002.7      46.7237      46.7237      46.7237 
  377000    89.562629   -11713.075   -10831.809    444.13677     102002.7      46.7237      46.7237      46.7237 
  378000    89.974178   -11714.119   -10828.804    299.22807     102002.7      46.7237      46.7237      46.7237 
  379000    89.187848   -11728.521   -10850.944    25.753134     102002.7      46.7237      46.7237      46.7237 
  380000    92.390575   -11710.367   -10801.276    528.17153     102002.7      46.7237      46.7237      46.7237 
  381000    91.736558   -11704.717   -10802.061    231.47003     102002.7      46.7237      46.7237      46.7237 
  382000    88.944242   -11691.646   -10816.465    271.03668     102002.7      46.7237      46.7237      46.7237 
  383000    92.191674   -11699.553   -10792.418    570.42972     102002.7      46.7237      46.7237      46.7237 
  384000    89.536541   -11703.817   -10822.809    376.72107     102002.7      46.7237      46.7237      46.7237 
  385000    90.639343   -11719.691   -10827.831    131.72081     102002.7      46.7237      46.7237      46.7237 
  386000    91.080275   -11721.386   -10825.188    360.21058     102002.7      46.7237      46.7237      46.7237 
  387000    91.922682   -11720.533   -10816.046    236.52183     102002.7      46.7237      46.7237      46.7237 
  388000    90.350969   -11700.253   -10811.231    410.07743     102002.7      46.7237      46.7237      46.7237 
  389000    91.310582   -11698.261   -10799.796    315.86395     102002.7      46.7237      46.7237      46.7237 
  390000    92.295997   -11704.139   -10795.978    126.58996     102002.7      46.7237      46.7237      46.7237 
  391000    88.848282   -11709.846    -10835.61    314.31647     102002.7      46.7237      46.7237      46.7237 
  392000    90.528282   -11702.571   -10811.804    269.58987     102002.7      46.7237      46.7237      46.7237 
  393000    91.301704   -11711.524   -10813.147    279.18538     102002.7      46.7237      46.7237      46.7237 
  394000    90.414925   -11690.043   -10800.391    422.33018     102002.7      46.7237      46.7237      46.7237 
  395000    91.425489    -11728.95   -10829.355    331.36896     102002.7      46.7237      46.7237      46.7237 
  396000    91.827348   -11704.014   -10800.464    705.60555     102002.7      46.7237      46.7237      46.7237 
  397000    91.419867    -11718.83    -10819.29    415.18603     102002.7      46.7237      46.7237      46.7237 
  398000    92.658884   -11689.308   -10777.577    605.20066     102002.7      46.7237      46.7237      46.7237 
  399000     90.28821   -11687.002   -10798.597    316.24098     102002.7      46.7237      46.7237      46.7237 
  400000    90.649341   -11704.754   -10812.796    392.41744     102002.7      46.7237      46.7237      46.7237 
  401000    91.685532   -11701.198   -10799.044    291.84303     102002.7      46.7237      46.7237      46.7237 
  402000    90.081306   -11709.176   -10822.808     418.2536     102002.7      46.7237      46.7237      46.7237 
  403000    89.095192   -11692.725   -10816.059     322.2232     102002.7      46.7237      46.7237      46.7237 
  404000    93.579246   -11703.711   -10782.923    244.83372     102002.7      46.7237      46.7237      46.7237 
  405000      89.9381   -11701.004   -10816.044    360.43741     102002.7      46.7237      46.7237      46.7237 
  406000     92.66551   -11697.277   -10785.481     306.1622     102002.7      46.7237      46.7237      46.7237 
  407000    92.332022   -11717.295    -10808.78    518.15659     102002.7      46.7237      46.7237      46.7237 
  408000    90.635992    -11710.29   -10818.463    276.36323     102002.7      46.7237      46.7237      46.7237 
  409000    92.387815   -11700.529   -10791.465    515.97588     102002.7      46.7237      46.7237      46.7237 
  410000    89.437042   -11716.181   -10836.151    164.82423     102002.7      46.7237      46.7237      46.7237 
  411000      90.5577   -11724.482   -10833.426    213.42749     102002.7      46.7237      46.7237      46.7237 
  412000    90.822641   -11705.603    -10811.94    386.09556     102002.7      46.7237      46.7237      46.7237 
  413000     91.71072   -11717.805   -10815.403    271.66736     102002.7      46.7237      46.7237      46.7237 
  414000    92.387963   -11688.154   -10779.088    285.57371     102002.7      46.7237      46.7237      46.7237 
  415000    90.705091   -11720.786   -10828.279    362.37788     102002.7      46.7237      46.7237      46.7237 
  416000    89.636967   -11720.926   -10838.929    213.19426     102002.7      46.7237      46.7237      46.7237 
  417000    91.844087    -11707.03   -10803.316    345.80848     102002.7      46.7237      46.7237      46.7237 
  418000    91.888845   -11719.136   -10814.982     560.3941     102002.7      46.7237      46.7237      46.7237 
  419000    91.940875   -11709.286    -10804.62    349.22159     102002.7      46.7237      46.7237      46.7237 
  420000    92.698232   -11723.394   -10811.275    476.81023     102002.7      46.7237      46.7237      46.7237 
  421000    90.200884   -11698.307   -10810.762    212.62585     102002.7      46.7237      46.7237      46.7237 
  422000    91.329008   -11693.372   -10794.727    278.92209     102002.7      46.7237      46.7237      46.7237 
  423000    89.610969   -11706.556   -10824.815    455.15243     102002.7      46.7237      46.7237      46.7237 
  424000    92.935054    -11717.57   -10803.121    231.50114     102002.7      46.7237      46.7237      46.7237 
  425000    90.705061     -11723.9   -10831.394    310.29477     102002.7      46.7237      46.7237      46.7237 
  426000    89.538493   -11704.177   -10823.149    367.24305     102002.7      46.7237      46.7237      46.7237 
  427000    89.699998   -11698.262   -10815.645    331.49907     102002.7      46.7237      46.7237      46.7237 
  428000    90.859251   -11691.098   -10797.074     366.4206     102002.7      46.7237      46.7237      46.7237 
  429000    92.227248   -11695.592   -10788.108    347.22418     102002.7      46.7237      46.7237      46.7237 
  430000    91.302663   -11711.564   -10813.177    421.08096     102002.7      46.7237      46.7237      46.7237 
  431000    91.698399   -11723.692   -10821.411    314.17766     102002.7      46.7237      46.7237      46.7237 
  432000     89.65588   -11717.285   -10835.102    418.29528     102002.7      46.7237      46.7237      46.7237 
  433000     92.84946   -11723.681   -10810.075    327.62837     102002.7      46.7237      46.7237      46.7237 
  434000    91.994606   -11711.648   -10806.453    630.09496     102002.7      46.7237      46.7237      46.7237 
  435000    91.108567    -11690.89   -10794.414     209.3208     102002.7      46.7237      46.7237      46.7237 
  436000    90.865949   -11703.007   -10808.918    185.63688     102002.7      46.7237      46.7237      46.7237 
  437000    90.636933   -11710.577   -10818.741    488.71022     102002.7      46.7237      46.7237      46.7237 
  438000     90.34276    -11707.41   -10818.468    149.38822     102002.7      46.7237      46.7237      46.7237 
  439000    90.855389   -11716.965    -10822.98    249.71468     102002.7      46.7237      46.7237      46.7237 
  440000    90.977091   -11704.488   -10809.305    257.78689     102002.7      46.7237      46.7237      46.7237 
  441000    92.563116   -11723.659    -10812.87     334.6753     102002.7      46.7237      46.7237      46.7237 
  442000    90.977814    -11714.93    -10819.74    135.11355     102002.7      46.7237      46.7237      46.7237 
  443000    92.958995   -11709.651   -10794.967    587.82588     102002.7      46.7237      46.7237      46.7237 
  444000    90.223562   -11708.844   -10821.075      328.412     102002.7      46.7237      46.7237      46.7237 
  445000    91.349326    -11704.31   -10805.464    183.42484     102002.7      46.7237      46.7237      46.7237 
  446000    89.458797   -11710.633   -10830.389    173.58619     102002.7      46.7237      46.7237      46.7237 
  447000    93.301369   -11707.176   -10789.123    44.988753     102002.7      46.7237      46.7237      46.7237 
  448000    90.531491   -11722.762   -10831.964    168.12004     102002.7      46.7237      46.7237      46.7237 
  449000    91.017657   -11727.386   -10831.803    310.94504     102002.7      46.7237      46.7237      46.7237 
  450000    91.670792   -11684.253   -10782.244    358.73921     102002.7      46.7237      46.7237      46.7237 
  451000    90.217687   -11725.518   -10837.807    189.60723     102002.7      46.7237      46.7237      46.7237 
  452000    91.273731   -11719.504   -10821.402    306.36308     102002.7      46.7237      46.7237      46.7237 
  453000    91.453896   -11711.839   -10811.965    200.41632     102002.7      46.7237      46.7237      46.7237 
  454000    93.233053   -11743.052   -10825.671     378.3032     102002.7      46.7237      46.7237      46.7237 
  455000        93.01   -11699.318   -10784.132    572.40668     102002.7      46.7237      46.7237      46.7237 
  456000     92.61315   -11719.242    -10807.96    469.02369     102002.7      46.7237      46.7237      46.7237 
  457000    90.322139   -11708.732   -10819.994    304.34405     102002.7      46.7237      46.7237      46.7237 
  458000    89.480929   -11709.478   -10829.016    402.03829     102002.7      46.7237      46.7237      46.7237 
  459000    89.387578   -11710.732   -10831.189    441.61651     102002.7      46.7237      46.7237      46.7237 
  460000      89.2041    -11738.74   -10861.003      348.067     102002.7      46.7237      46.7237      46.7237 
  461000    91.052573   -11704.789   -10808.864     135.7187     102002.7      46.7237      46.7237      46.7237 
  462000      90.8916   -11712.733   -10818.391    353.84953     102002.7      46.7237      46.7237      46.7237 
  463000    90.614952   -11688.924   -10797.305    177.03705     102002.7      46.7237      46.7237      46.7237 
  464000     90.12947   -11702.514   -10815.672    282.29956     102002.7      46.7237      46.7237      46.7237 
  465000    91.911951   -11722.466   -10818.085    250.87877     102002.7      46.7237      46.7237      46.7237 
  466000    91.424923   -11713.279    -10813.69    181.75665     102002.7      46.7237      46.7237      46.7237 
  467000    90.659296   -11729.864   -10837.808     290.4723     102002.7      46.7237      46.7237      46.7237 
  468000    93.786911    -11707.52   -10784.689    54.277562     102002.7      46.7237      46.7237      46.7237 
  469000    89.866924   -11705.553   -10821.294    314.21711     102002.7      46.7237      46.7237      46.7237 
  470000    89.637581   -11689.662   -10807.659    468.50419     102002.7      46.7237      46.7237      46.7237 
  471000    91.683813   -11701.107    -10798.97    352.04114     102002.7      46.7237      46.7237      46.7237 
  472000    88.551312   -11699.127   -10827.812    246.67499     102002.7      46.7237      46.7237      46.7237 
  473000    91.154872   -11699.656   -10802.723     236.6139     102002.7      46.7237      46.7237      46.7237 
  474000    91.672286   -11719.212   -10817.188    136.37614     102002.7      46.7237      46.7237      46.7237 
  475000    90.707965   -11714.802   -10822.267    336.49832     102002.7      46.7237      46.7237      46.7237 
  476000    90.601579   -11714.186   -10822.698    332.75149     102002.7      46.7237      46.7237      46.7237 
  477000    91.548005   -11710.065   -10809.265    137.70103     102002.7      46.7237      46.7237      46.7237 
  478000    89.151201   -11707.869   -10830.652    316.21147     102002.7      46.7237      46.7237      46.7237 
  479000    93.040579   -11716.472   -10800.985    158.66474     102002.7      46.7237      46.7237      46.7237 
  480000    92.271959   -11713.475   -10805.551    99.360918     102002.7      46.7237      46.7237      46.7237 
  481000    91.127427   -11711.062   -10814.399    337.93728     102002.7      46.7237      46.7237      46.7237 
  482000    90.953284   -11705.437   -10810.489    131.51766     102002.7      46.7237      46.7237      46.7237 
  483000    92.538323   -11663.594   -10753.049    641.99698     102002.7      46.7237      46.7237      46.7237 
  484000    91.481916    -11728.12    -10827.97    155.90454     102002.7      46.7237      46.7237      46.7237 
  485000    93.862346   -11698.508   -10774.935    201.07151     102002.7      46.7237      46.7237      46.7237 
  486000     92.42467   -11719.006   -10809.579     516.0102     102002.7      46.7237      46.7237      46.7237 
  487000    92.835619   -11715.902   -10802.432      401.925     102002.7      46.7237      46.7237      46.7237 
  488000     91.39445   -11733.571   -10834.281    379.95187     102002.7      46.7237      46.7237      46.7237 
  489000    90.239643   -11702.027     -10814.1    484.81382     102002.7      46.7237      46.7237      46.7237 
  490000       88.989   -11719.222   -10843.601    309.15358     102002.7      46.7237      46.7237      46.7237 
  491000    91.350983   -11709.226   -10810.364    262.59662     102002.7      46.7237      46.7237      46.7237 
  492000    92.166275   -11725.802   -10818.918    307.13165     102002.7      46.7237      46.7237      46.7237 
  493000    92.104358   -11720.218   -10813.943    240.98431     102002.7      46.7237      46.7237      46.7237 
  494000    92.029029   -11713.485   -10807.951     342.8463     102002.7      46.7237      46.7237      46.7237 
  495000    90.275957   -11706.609   -10818.324     399.9434     102002.7      46.7237      46.7237      46.7237 
  496000    89.886098   -11709.657   -10825.208    383.03331     102002.7      46.7237      46.7237      46.7237 
  497000    89.780551    -11710.27   -10826.861     554.0305     102002.7      46.7237      46.7237      46.7237 
  498000    92.861032   -11694.213   -10780.493    88.111072     102002.7      46.7237      46.7237      46.7237 
  499000    92.569889   -11706.521   -10795.665   -10.042962     102002.7      46.7237      46.7237      46.7237 
  500000    91.832586   -11702.373   -10798.772     221.0814     102002.7      46.7237      46.7237      46.7237 
  500500    90.734852   -11698.002   -10805.203    395.03803     102002.7      46.7237      46.7237      46.7237 
Loop time of 1842.84 on 16 procs for 500000 steps with 3302 atoms

Performance: 23.442 ns/day, 1.024 hours/ns, 271.321 timesteps/s
99.8% CPU use with 16 MPI tasks x no OpenMP threads

MPI task timing breakdown:
Section |  min time  |  avg time  |  max time  |%varavg| %total
---------------------------------------------------------------
Pair    | 1040       | 1206.4     | 1386       | 311.3 | 65.46
Bond    | 119.31     | 174.77     | 214.61     | 191.3 |  9.48
Neigh   | 14.864     | 14.934     | 15.081     |   2.1 |  0.81
Comm    | 224.61     | 429.67     | 594.08     | 542.3 | 23.32
Output  | 0.021437   | 0.022357   | 0.026226   |   0.7 |  0.00
Modify  | 9.4667     | 10.206     | 11.434     |  19.5 |  0.55
Other   |            | 6.857      |            |       |  0.37

Nlocal:    206.375 ave 238 max 177 min
Histogram: 1 1 2 4 2 2 1 0 1 2
Nghost:    4145.12 ave 4168 max 4118 min
Histogram: 1 1 2 1 1 3 1 2 2 2
Neighs:    11465.5 ave 14556 max 8437 min
Histogram: 1 3 2 1 1 0 1 5 1 1

Total # of neighbors = 183448
Ave neighs/atom = 55.5566
Ave special neighs/atom = 3.48879
Neighbor list builds = 4109
Dangerous builds = 0
Neighbor list info ...
  update every 1 steps, delay 10 steps, check yes
  max neighbors/atom: 2000, page size: 100000
  master list distance cutoff = 16
  ghost atom cutoff = 16
  binsize = 8, bins = 6 6 6
  3 neighbor lists, perpetual/occasional/extra = 3 0 0
  (1) pair buck6d/coul/gauss/dsf, perpetual, skip from (3)
      attributes: half, newton on
      pair build: skip
      stencil: none
      bin: none
  (2) pair lj/cut, perpetual, skip from (3)
      attributes: half, newton on
      pair build: skip
      stencil: none
      bin: none
  (3) neighbor class addition, perpetual
      attributes: half, newton on
      pair build: half/bin/newton
      stencil: half/bin/3d/newton
      bin: standard
Setting up Verlet run ...
  Unit style    : real
  Current step  : 500500
  Time step     : 1
WARNING: Inconsistent image flags (../domain.cpp:786)
Per MPI rank memory allocation (min/avg/max) = 22.67 | 23.19 | 23.45 Mbytes
Step Time TotEng KinEng PotEng E_mol E_pair Temp Pxx Pyy Pzz Pxy Pxz Pyz Cella Cellb Cellc CellAlpha CellBeta CellGamma Volume Press 
  500500       500000   -10805.203    892.79955   -11698.002    4193.2195   -15891.222    90.734852    661.71651      526.225   -2.8274126    -162.6262    171.01054   -78.766634      46.7237      46.7237      46.7237           90           90           90     102002.7    395.03803 
  501000       500500   -10852.735    865.46479     -11718.2    4162.5446   -15880.744    87.956831   -251.92595    448.53149    50.454167   -195.62607   -311.27448    30.375713      46.7237      46.7237      46.7237           90           90           90     102002.7    82.353238 
  502000       501500   -10821.745    892.17011   -11713.915    4153.1145   -15867.029    90.670882    491.94216    300.21034    306.90107    254.74338   -103.30192    99.689067      46.7237      46.7237      46.7237           90           90           90     102002.7    366.35119 
  503000       502500   -10802.578    916.71634   -11719.295    4161.5805   -15880.875    93.165506    295.61672   -52.767712    100.25889   -111.89069    35.759118   -27.645357      46.7237      46.7237      46.7237           90           90           90     102002.7     114.3693 
  504000       503500   -10836.395    875.85774   -11712.252    4168.9451   -15881.198    89.013063    411.19695    240.64808    78.125895   -59.802235     39.62394   -189.21609      46.7237      46.7237      46.7237           90           90           90     102002.7    243.32364 
  505000       504500   -10805.498    875.31335   -11680.811    4179.2898   -15860.101    88.957737    476.26549    313.47976    434.27585   -269.92472    54.455743    288.94716      46.7237      46.7237      46.7237           90           90           90     102002.7    408.00703 
  506000       505500   -10833.307    889.37911   -11722.686    4157.4016   -15880.087    90.387235    126.00728    57.558006    196.12538   -185.71729    98.121514   -144.16276      46.7237      46.7237      46.7237           90           90           90     102002.7    126.56355 
  507000       506500   -10780.723    903.39059   -11684.113    4170.2835   -15854.397    91.811215    442.77136    406.76005    605.79369   -199.42681     251.3335     33.57429      46.7237      46.7237      46.7237           90           90           90     102002.7    485.10837 
  508000       507500   -10807.211    904.29696   -11711.508    4152.6866   -15864.194    91.903329    427.68805    692.26529    456.81241     203.7483   -107.46158   -284.13366      46.7237      46.7237      46.7237           90           90           90     102002.7    525.58858 
  509000       508500   -10845.498    869.54005   -11715.038    4149.5838   -15864.621    88.370999   -3.4082442    377.13586    274.29085    16.529317   -270.48444    123.47102      46.7237      46.7237      46.7237           90           90           90     102002.7    216.00616 
  510000       509500   -10814.763    912.70566   -11727.469    4144.7092   -15872.178    92.757902    488.00031    482.10869    551.27435   -96.950883   -163.11415     216.0016      46.7237      46.7237      46.7237           90           90           90     102002.7    507.12778 
  511000       510500   -10801.291    909.18363   -11710.475    4161.8012   -15872.276     92.39996    232.97814    520.54367    263.30441    63.224623   -160.41858    -122.6037      46.7237      46.7237      46.7237           90           90           90     102002.7    338.94207 
  512000       511500   -10868.376    874.79316   -11743.169    4127.0175   -15870.186    88.904871     84.44546    45.472508   -137.26779   -11.202149     74.60282    -13.60303      46.7237      46.7237      46.7237           90           90           90     102002.7   -2.4499394 
  513000       512500   -10820.017    898.34534   -11718.363    4157.9672    -15876.33    91.298469   -90.475414   -19.537101     394.0636   -6.2440921    39.197654    102.69117      46.7237      46.7237      46.7237           90           90           90     102002.7    94.683696 
  514000       513500   -10824.701    880.13415   -11704.835    4158.8653     -15863.7    89.447673   -88.067305    366.24764     349.7332    280.62597   -36.278084    191.46019      46.7237      46.7237      46.7237           90           90           90     102002.7    209.30451 
  515000       514500   -10808.509    893.03062   -11701.539    4151.5675   -15853.107    90.758336    150.48047    636.93085    62.631429   -173.07809   -139.94095    162.00276      46.7237      46.7237      46.7237           90           90           90     102002.7    283.34758 
  516000       515500   -10807.131    903.11862    -11710.25    4167.4795   -15877.729    91.783575    129.53007    625.39669     130.4671   -80.345253    106.20872    43.016474      46.7237      46.7237      46.7237           90           90           90     102002.7    295.13128 
  517000       516500   -10833.045    890.04739   -11723.092    4145.3187   -15868.411    90.455151    352.03707    516.74328    568.25426   -127.97301   -158.47562   -73.516794      46.7237      46.7237      46.7237           90           90           90     102002.7    479.01154 
  518000       517500   -10825.153    886.94783   -11712.101    4148.6481   -15860.749    90.140144    759.43026    779.26356    55.437043   -176.76587    43.949169   -134.25848      46.7237      46.7237      46.7237           90           90           90     102002.7    531.37696 
  519000       518500   -10812.451     896.5924   -11709.043    4152.7358   -15861.779    91.120319    1246.8873    745.42059    722.92813     109.2699   -38.583027    93.396836      46.7237      46.7237      46.7237           90           90           90     102002.7    905.07867 
  520000       519500   -10832.706    888.12041   -11720.827    4157.1161   -15877.943    90.259314     430.1463    9.7997982    378.41841    25.198529    -243.0395     78.49524      46.7237      46.7237      46.7237           90           90           90     102002.7    272.78817 
  521000       520500   -10832.938    887.59817   -11720.536     4157.909   -15878.445    90.206239   -160.81732    43.482357   -33.734174    90.240827     242.5783    142.06771      46.7237      46.7237      46.7237           90           90           90     102002.7   -50.356378 
  522000       521500   -10798.908    904.36142    -11703.27    4173.6863   -15876.956     91.90988    265.25444    197.43486     71.75972   -77.900216   -10.161048   -322.69147      46.7237      46.7237      46.7237           90           90           90     102002.7    178.14967 
  523000       522500   -10780.679     908.2305   -11688.909      4163.85   -15852.759    92.303093    815.29914     255.9633     585.7004    245.15302    29.139819      237.202      46.7237      46.7237      46.7237           90           90           90     102002.7    552.32095 
  524000       523500   -10818.282    888.96075   -11707.242     4155.062   -15862.304    90.344716   -168.87396    338.63495   -263.45911   -56.640024     45.01939    163.68798      46.7237      46.7237      46.7237           90           90           90     102002.7   -31.232706 
  525000       524500   -10810.423    894.18223   -11704.605    4160.1914   -15864.796    90.875374    618.86432    67.570306    364.85876    170.82561   -10.285586   -88.213426      46.7237      46.7237      46.7237           90           90           90     102002.7    350.43113 
  526000       525500   -10858.922    888.58385   -11747.506     4137.582   -15885.088    90.306412    704.74431     320.7391    466.42828    164.31823   -17.032362    74.335689      46.7237      46.7237      46.7237           90           90           90     102002.7     497.3039 
  527000       526500   -10817.864    884.29993   -11702.164     4176.472   -15878.636     89.87104    499.50676    388.53357    567.59815   -42.596623   -153.13134    119.45695      46.7237      46.7237      46.7237           90           90           90     102002.7    485.21283 
  528000       527500    -10823.84    879.31282   -11703.152    4169.9625   -15873.115    89.364202    503.34257    1010.9945    1117.7033    102.56091   -38.391321   -117.64847      46.7237      46.7237      46.7237           90           90           90     102002.7    877.34677 
  529000       528500   -10804.615    909.26334   -11713.878    4148.5028   -15862.381    92.408061   -129.41584    415.18749    468.20379     76.17466    91.772196     49.86666      46.7237      46.7237      46.7237           90           90           90     102002.7    251.32514 
  530000       529500   -10824.633    901.07954   -11725.713    4147.1862   -15872.899    91.576344    36.725432     142.6723    336.41896    275.15395    -90.59429   -220.98058      46.7237      46.7237      46.7237           90           90           90     102002.7     171.9389 
  531000       530500   -10781.166    921.81197   -11702.978    4160.6675   -15863.646    93.683373    873.80735    675.09447    462.07953    2.4861895   -27.952432    16.785042      46.7237      46.7237      46.7237           90           90           90     102002.7    670.32712 
  532000       531500   -10803.118     903.0227   -11706.141    4155.1869   -15861.328    91.773827     200.3634     359.5279    321.30911    16.952898   -90.768967   -29.910537      46.7237      46.7237      46.7237           90           90           90     102002.7    293.73347 
  533000       532500   -10834.656    894.88733   -11729.543    4161.4231   -15890.966    90.947033    394.46119    586.06524    578.60765    216.29689   -187.39036    -19.34548      46.7237      46.7237      46.7237           90           90           90     102002.7    519.71136 
  534000       533500   -10811.886    909.68002   -11721.566    4172.7581   -15894.324    92.450407    314.89623    492.65553    186.09238   -108.55303   -19.769151    19.923227      46.7237      46.7237      46.7237           90           90           90     102002.7    331.21472 
  535000       534500   -10764.775    923.26158   -11688.037    4165.9736   -15854.011    93.830696    459.14324    436.28049    688.63663   -37.954163   -15.171416     126.0915      46.7237      46.7237      46.7237           90           90           90     102002.7    528.02012 
  536000       535500   -10819.023    915.51198   -11734.535    4137.5477   -15872.083    93.043108    551.06724    705.57856    216.08754    271.64882   -19.664402   -65.024182      46.7237      46.7237      46.7237           90           90           90     102002.7    490.91112 
  537000       536500   -10823.835    893.30543    -11717.14    4158.1978   -15875.338    90.786265    361.11505    553.89171    284.78587   -209.47528   -202.94574    102.21345      46.7237      46.7237      46.7237           90           90           90     102002.7    399.93088 
  538000       537500   -10826.774    883.43502   -11710.209    4155.1668   -15865.376    89.783139    281.63601    523.93436     681.8376   -198.59215   -75.936786    296.75127      46.7237      46.7237      46.7237           90           90           90     102002.7    495.80266 
  539000       538500   -10820.058    908.26633   -11728.324    4154.3557    -15882.68    92.306735    569.51045     452.5079    251.39579   -87.283076   -130.53479   -113.61604      46.7237      46.7237      46.7237           90           90           90     102002.7    424.47138 
  540000       539500   -10799.992    901.75122   -11701.743    4148.0615   -15849.804    91.644607    130.13537    947.12468    518.53688   -139.41491     26.50948   -55.658934      46.7237      46.7237      46.7237           90           90           90     102002.7    531.93231 
  541000       540500    -10805.56    902.68876   -11708.249    4161.8373   -15870.086    91.739889     530.9215   -32.871135     278.1085    185.78204    284.99824   -223.05136      46.7237      46.7237      46.7237           90           90           90     102002.7    258.71962 
  542000       541500   -10788.632    900.14538   -11688.777    4165.5463   -15854.324    91.481406    107.80275     522.5795    342.05309    71.967733    39.563404   -62.041486      46.7237      46.7237      46.7237           90           90           90     102002.7    324.14511 
  543000       542500   -10835.644    896.53272   -11732.177    4150.5144   -15882.691    91.114252    380.81297     315.2317     503.8523    23.679392    223.37514    6.5731336      46.7237      46.7237      46.7237           90           90           90     102002.7    399.96565 
  544000       543500   -10832.892    876.34398   -11709.236    4154.9939    -15864.23     89.06248    628.36755    601.22571   -87.600528   -220.13197    266.54596    118.88271      46.7237      46.7237      46.7237           90           90           90     102002.7    380.66425 
  545000       544500    -10816.17    891.42786   -11707.598     4159.421   -15867.019    90.595448    486.48088    393.12639     250.0794    35.353672    33.620229    253.02016      46.7237      46.7237      46.7237           90           90           90     102002.7    376.56222 
  546000       545500   -10777.714    909.62857   -11687.342    4163.9799   -15851.322    92.445178   -34.581987    98.189497    262.38318    66.691251    98.765385   -92.574116      46.7237      46.7237      46.7237           90           90           90     102002.7    108.66356 
  547000       546500    -10814.34    898.24424   -11712.584    4159.9109   -15872.495    91.288194    264.35871    302.54154    553.09164   -52.138768    202.06907    23.333864      46.7237      46.7237      46.7237           90           90           90     102002.7    373.33063 
  548000       547500    -10848.72     870.8718   -11719.592    4163.8731   -15883.465    88.506344    337.55554    361.44285    325.03673      29.5649    45.336274   -33.470823      46.7237      46.7237      46.7237           90           90           90     102002.7    341.34504 
  549000       548500   -10822.067    901.69125   -11723.758    4143.1801   -15866.938    91.638512    363.85869   -137.54382    857.82825   -64.847684    162.31362    2.5227593      46.7237      46.7237      46.7237           90           90           90     102002.7    361.38104 
  550000       549500   -10786.553    901.93517   -11688.488    4171.9651   -15860.453    91.663301    653.54134    5.6494784    454.73963    -64.53686   -119.46347    153.05429      46.7237      46.7237      46.7237           90           90           90     102002.7    371.31015 
  551000       550500   -10797.131    912.21497   -11709.346    4165.3652   -15874.711    92.708034    531.89973    136.44523    365.56897   -85.907615    100.99757   -144.75054      46.7237      46.7237      46.7237           90           90           90     102002.7    344.63798 
  552000       551500    -10779.34     914.7783   -11694.119    4180.2013    -15874.32    92.968544    333.59664    129.69819    71.421847   -40.350524   -186.43269    122.68368      46.7237      46.7237      46.7237           90           90           90     102002.7    178.23889 
  553000       552500   -10800.277    878.38988   -11678.667    4175.1361   -15853.803    89.270403    624.46526    203.64441    288.08818    214.67884   -156.83686    10.076776      46.7237      46.7237      46.7237           90           90           90     102002.7    372.06595 
  554000       553500   -10789.536    891.46129   -11680.997     4172.127   -15853.124    90.598845    109.62456    709.52369    209.90929   -0.5946179    128.44893    38.582006      46.7237      46.7237      46.7237           90           90           90     102002.7    343.01918 
  555000       554500   -10809.707    899.85825   -11709.566    4157.4371   -15867.003    91.452225    361.62943    396.32104     399.1595    -266.5276   -62.466482   -43.388491      46.7237      46.7237      46.7237           90           90           90     102002.7    385.70332 
[...]
  936000       935500   -10814.631    896.32447   -11710.955    4161.7662   -15872.721    91.093088    395.68286    323.63153    204.33439   -166.67209   -201.72515    176.18159      46.7237      46.7237      46.7237           90           90           90     102002.7    307.88293 
  937000       936500   -10845.047    874.21929   -11719.266     4159.183   -15878.449    88.846548    494.39468    369.19129    167.95636   -226.53034    67.284077    149.14416      46.7237      46.7237      46.7237           90           90           90     102002.7    343.84744 
  938000       937500   -10813.132    906.35167   -11719.484    4171.4487   -15890.932    92.112148    333.49334    81.957703    250.83592    40.813249    50.488999   -196.67056      46.7237      46.7237      46.7237           90           90           90     102002.7    222.09565 
  939000       938500   -10798.881    901.14748   -11700.029    4174.9374   -15874.966    91.583249    442.84667   -156.09069    740.51342    3.2708293    4.3826467      221.665      46.7237      46.7237      46.7237           90           90           90     102002.7    342.42313 
  940000       939500   -10825.477    883.09312    -11708.57    4152.4618   -15861.032    89.748392    191.03296    279.18452    362.54084   -26.853382    158.75369   -137.84596      46.7237      46.7237      46.7237           90           90           90     102002.7    277.58611 
  941000       940500   -10838.088    879.58776   -11717.676    4145.0312   -15862.707    89.392143    772.20272    581.60335    246.83859    247.09412    94.452834    86.306385      46.7237      46.7237      46.7237           90           90           90     102002.7    533.54822 
  942000       941500   -10809.566    909.08941   -11718.655    4153.6392   -15872.294    92.390384    538.16611    161.07659    57.853451   -112.21853   -35.302003   -137.71873      46.7237      46.7237      46.7237           90           90           90     102002.7    252.36539 
  943000       942500   -10814.061    900.21577   -11714.277    4158.6149   -15872.892     91.48856     181.8669    9.1000499    760.47097    -164.2005   -276.30019   -166.18526      46.7237      46.7237      46.7237           90           90           90     102002.7    317.14597 
  944000       943500   -10823.414    885.24294   -11708.657    4167.5188   -15876.176    89.966877    333.41147    670.12547    162.66756    140.02281   -36.766251   -124.43417      46.7237      46.7237      46.7237           90           90           90     102002.7    388.73484 
  945000       944500   -10792.398     911.5682   -11703.966    4168.0382   -15872.004    92.642303    902.62187    504.10821    387.31916   -20.211265   -262.66629    -22.06581      46.7237      46.7237      46.7237           90           90           90     102002.7    598.01641 
  946000       945500   -10817.031     904.2375   -11721.269    4167.4566   -15888.725    91.897287    266.74349    406.74443   -302.73749    149.41712   -22.745208    -121.1283      46.7237      46.7237      46.7237           90           90           90     102002.7    123.58347 
  947000       946500   -10807.664    897.90387   -11705.568    4182.3948   -15887.963    91.253602    312.88645    158.44102    358.67244    175.66762    216.19044    378.66098      46.7237      46.7237      46.7237           90           90           90     102002.7    276.66664 
  948000       947500   -10796.323    911.51156   -11707.834    4158.8407   -15866.675    92.636547    415.68524    292.77927    304.87786    -89.25733   -25.510274   -84.606318      46.7237      46.7237      46.7237           90           90           90     102002.7    337.78079 
  949000       948500    -10841.26    884.07093   -11725.331    4148.1309   -15873.462    89.847766     419.3138    616.06911     540.8719      67.7291   -111.13519   -44.012592      46.7237      46.7237      46.7237           90           90           90     102002.7    525.41827 
  950000       949500   -10807.306    897.46768   -11704.774    4178.9633   -15883.737    91.209272    326.35419    529.90188    15.971515   -62.400842    243.12772    11.588129      46.7237      46.7237      46.7237           90           90           90     102002.7    290.74253 
  951000       950500   -10807.443    897.08588   -11704.529    4174.3303   -15878.859     91.17047    17.795734    129.30102    240.49361   -35.255623    32.822415   -54.476822      46.7237      46.7237      46.7237           90           90           90     102002.7    129.19679 
  952000       951500   -10822.106    888.24949   -11710.356    4173.1054   -15883.461    90.272431     399.1419    204.90887    398.86505   -250.09373    92.619122    316.34786      46.7237      46.7237      46.7237           90           90           90     102002.7    334.30527 
  953000       952500   -10815.536    897.96466     -11713.5    4158.9406   -15872.441    91.259781    334.61774    795.39833    130.04549   -191.81392    60.913157   -160.72809      46.7237      46.7237      46.7237           90           90           90     102002.7    420.02052 
  954000       953500   -10782.175    925.42217   -11707.598    4155.1741   -15862.772    94.050276    228.07848    598.50861    213.47199    -216.4383    171.70343    105.66647      46.7237      46.7237      46.7237           90           90           90     102002.7    346.68636 
  955000       954500   -10791.912    923.72339   -11715.636    4151.9354   -15867.571     93.87763    486.12624    155.75223    671.83272    13.274224   -199.00213     22.72852      46.7237      46.7237      46.7237           90           90           90     102002.7    437.90373 
  956000       955500    -10787.77    910.72033    -11698.49    4190.1042   -15888.594    92.556134    28.369564    210.15156    154.84717    157.31455    150.58892   -126.23184      46.7237      46.7237      46.7237           90           90           90     102002.7    131.12276 
  957000       956500   -10822.644    891.64582    -11714.29    4170.5054   -15884.795    90.617599    21.419295    180.70842    16.925415   -52.377394    317.75149    259.83157      46.7237      46.7237      46.7237           90           90           90     102002.7     73.01771 
  958000       957500   -10841.839    887.91745   -11729.756    4151.7876   -15881.544    90.238687     141.1268    357.42141     172.8197   -253.55772    78.951086    -135.4291      46.7237      46.7237      46.7237           90           90           90     102002.7     223.7893 
  959000       958500   -10811.764    897.65881   -11709.423    4171.5213   -15880.944    91.228697     683.3317    878.30772    550.99169    84.155676    23.828194   -110.49704      46.7237      46.7237      46.7237           90           90           90     102002.7    704.21037 
  960000       959500   -10802.742    888.96297   -11691.705    4166.7758   -15858.481    90.344942    680.80493    85.939917   -182.36584    18.923056   -111.40232   -150.54718      46.7237      46.7237      46.7237           90           90           90     102002.7      194.793 
  961000       960500   -10826.795    890.74679   -11717.542    4148.8262   -15866.368    90.526231    300.88916     450.5431     461.0369    64.103728    102.70721    53.465962      46.7237      46.7237      46.7237           90           90           90     102002.7    404.15639 
  962000       961500   -10812.034    884.56227   -11696.596    4175.3245    -15871.92    89.897701    171.52118    437.46422    350.60054    -127.3912    47.853692    88.176788      46.7237      46.7237      46.7237           90           90           90     102002.7    319.86198 
  963000       962500   -10792.392    909.85458   -11702.246    4166.5197   -15868.766    92.468148    336.54896   -10.565347    207.52672    197.85353    197.29425    179.02598      46.7237      46.7237      46.7237           90           90           90     102002.7    177.83678 
  964000       963500    -10827.32    880.37392   -11707.694    4170.7714   -15878.465     89.47204    521.35814      344.839     250.6813   -167.06291   -260.30459    133.21153      46.7237      46.7237      46.7237           90           90           90     102002.7    372.29281 
  965000       964500   -10817.156    885.33732   -11702.494    4171.1088   -15873.602    89.976469    718.16987     920.4167    267.48582   -45.429922    30.907546    59.612195      46.7237      46.7237      46.7237           90           90           90     102002.7    635.35746 
  966000       965500   -10810.588    903.47002   -11714.058    4162.3317   -15876.389    91.819288    300.81451    275.15916    441.63829   -56.428554      100.264    78.727106      46.7237      46.7237      46.7237           90           90           90     102002.7    339.20399 
  967000       966500   -10826.969    899.50981   -11726.479     4144.209   -15870.688    91.416813    659.18411    233.80256    311.35975    290.76199    221.67169    289.91639      46.7237      46.7237      46.7237           90           90           90     102002.7    401.44881 
  968000       967500    -10801.71    909.38058   -11711.091    4167.5776   -15878.669    92.419976    475.38541    415.23669    348.43135    202.79426    57.562669    117.49495      46.7237      46.7237      46.7237           90           90           90     102002.7    413.01782 
  969000       968500   -10808.672    910.24025   -11718.913    4160.5774    -15879.49    92.507344     160.0725    668.10503    507.54771    4.1201025   -90.077145    2.8881399      46.7237      46.7237      46.7237           90           90           90     102002.7    445.24174 
  970000       969500   -10823.506    890.95845   -11714.465    4153.9154    -15868.38    90.547742    864.65557    601.15793    227.50432   -175.34191     -66.3311    99.620704      46.7237      46.7237      46.7237           90           90           90     102002.7    564.43927 
  971000       970500   -10823.726    896.86967   -11720.596    4145.6149   -15866.211    91.148497    285.93247    841.37818     330.8535    15.832364   -211.11611   -154.50043      46.7237      46.7237      46.7237           90           90           90     102002.7    486.05472 
  972000       971500   -10797.857    915.42323    -11713.28    4156.1773   -15869.457    93.034088    745.09851    526.24554    116.09392   -103.17519   -75.453331    287.83252      46.7237      46.7237      46.7237           90           90           90     102002.7    462.47933 
  973000       972500   -10840.146    889.25191   -11729.398    4146.1561   -15875.554    90.374307    331.77412    734.14198    192.34677   -113.82453    181.97226    154.49913      46.7237      46.7237      46.7237           90           90           90     102002.7    419.42096 
  974000       973500   -10825.729     880.8831   -11706.612    4169.9834   -15876.595    89.523789    343.16565    555.34387    203.71642   0.45447159   -37.729338   -66.646916      46.7237      46.7237      46.7237           90           90           90     102002.7    367.40865 
  975000       974500   -10820.437    900.65032   -11721.087    4143.3868   -15864.474    91.532723    534.76056    173.03966    258.83994   -283.05315    192.01352   -99.055593      46.7237      46.7237      46.7237           90           90           90     102002.7    322.21339 
  976000       975500   -10827.621    895.46064   -11723.082    4146.8253   -15869.907    91.005298    11.863701   -8.9217448   -333.18071    146.09279   -33.100724   -170.16966      46.7237      46.7237      46.7237           90           90           90     102002.7   -110.07958 
  977000       976500   -10813.638    891.94911   -11705.587    4153.6251   -15859.212    90.648422    296.29429    522.48953    182.01576    53.923721   -30.504874    219.03991      46.7237      46.7237      46.7237           90           90           90     102002.7    333.59986 
  978000       977500    -10813.01    901.04987   -11714.059    4158.6004    -15872.66    91.573329    723.17952    419.46429    97.431705   -67.558194    145.18174    64.087626      46.7237      46.7237      46.7237           90           90           90     102002.7     413.3585 
  979000       978500   -10829.608    884.00489   -11713.613    4164.1326   -15877.746    89.841054    92.176635     345.7827     159.3511   -39.830677    121.04423    152.62248      46.7237      46.7237      46.7237           90           90           90     102002.7    199.10348 
  980000       979500   -10849.433    879.15476   -11728.587    4145.7719   -15874.359    89.348138    308.67971    218.32228     686.3092    95.752092    27.798869    48.479065      46.7237      46.7237      46.7237           90           90           90     102002.7    404.43707 
  981000       980500   -10804.947    896.58323   -11701.531    4161.9253   -15863.456    91.119386    382.42229     236.2329    172.87068   -131.62827    137.26332    89.377422      46.7237      46.7237      46.7237           90           90           90     102002.7    263.84196 
  982000       981500   -10815.544     874.7089   -11690.253    4174.3592   -15864.612    88.896307    170.40769    344.38033     616.7817   -48.056049    205.13153    -14.34266      46.7237      46.7237      46.7237           90           90           90     102002.7    377.18991 
  983000       982500   -10842.403    893.05971   -11735.463    4148.5782   -15884.041    90.761292    635.95921    294.73381     397.6748     20.71512   -1.5995112   -16.024207      46.7237      46.7237      46.7237           90           90           90     102002.7    442.78927 
  984000       983500    -10852.94    890.40632   -11743.346    4142.6881   -15886.034    90.491629    838.17308    374.36582    144.48697    110.79808   -130.25098    205.24952      46.7237      46.7237      46.7237           90           90           90     102002.7    452.34196 
  985000       984500   -10814.684    900.32049   -11715.005    4182.8503   -15897.855    91.499203     114.6881    757.30545    50.448531    107.75954   -62.472142   -65.021644      46.7237      46.7237      46.7237           90           90           90     102002.7    307.48069 
  986000       985500   -10839.016    885.96917   -11724.985    4161.9678   -15886.953    90.040684    513.75221     580.3518    237.26807    -13.68568    156.42956    305.29713      46.7237      46.7237      46.7237           90           90           90     102002.7    443.79069 
  987000       986500   -10814.482     901.0945   -11715.577    4147.9607   -15863.538    91.577864    467.74772    365.71426    618.13293   -10.062393    339.24629   -76.774083      46.7237      46.7237      46.7237           90           90           90     102002.7    483.86497 
  988000       987500   -10819.956    898.34938   -11718.306    4156.9871   -15875.293    91.298879     391.1495    312.91659    358.84705    -39.21318      30.7987   -108.55089      46.7237      46.7237      46.7237           90           90           90     102002.7    354.30438 
  989000       988500   -10824.477     897.6774   -11722.155    4159.8482   -15882.003    91.230586    227.02489    134.39517    372.31614    39.259521   -192.14479   -247.76051      46.7237      46.7237      46.7237           90           90           90     102002.7    244.57873 
  990000       989500   -10800.096    908.99735   -11709.093    4175.0878   -15884.181    92.381028    440.27925    281.18019    314.44138   -90.199711   -187.49319    63.017245      46.7237      46.7237      46.7237           90           90           90     102002.7    345.30027 
  991000       990500   -10814.284    909.01827   -11723.303    4163.1719   -15886.475    92.383154   -23.266282    507.09113   -181.70729    218.25852    40.456778   -44.357961      46.7237      46.7237      46.7237           90           90           90     102002.7    100.70585 
  992000       991500   -10792.131    910.26932     -11702.4    4173.2347   -15875.635    92.510298    503.20566    247.14883    427.18857   -143.57385   -96.179994    205.01418      46.7237      46.7237      46.7237           90           90           90     102002.7    392.51436 
  993000       992500    -10838.78    891.42764   -11730.208    4129.4423    -15859.65    90.595426    257.13723     371.5474    334.43172   -154.61591    133.15287    191.55006      46.7237      46.7237      46.7237           90           90           90     102002.7    321.03878 
  994000       993500   -10844.387    884.56793   -11728.955    4160.5478   -15889.503    89.898276    323.45913    679.12706    452.88162   -64.749672    -183.2471   -72.717137      46.7237      46.7237      46.7237           90           90           90     102002.7    485.15593 
  995000       994500   -10823.662    896.19415   -11719.856    4155.7246    -15875.58    91.079845    594.54972    552.06425    246.23118    41.721592   -113.04999   -46.432664      46.7237      46.7237      46.7237           90           90           90     102002.7    464.28172 
  996000       995500   -10810.972    904.22102   -11715.193    4160.0038   -15875.197    91.895612    479.79773     933.3784    244.00733   -58.417548    185.82429    25.038922      46.7237      46.7237      46.7237           90           90           90     102002.7    552.39449 
  997000       996500   -10855.919    883.76663   -11739.686     4144.471   -15884.157     89.81684    423.08267    261.27611    437.80789     52.20814   -50.422639    15.559257      46.7237      46.7237      46.7237           90           90           90     102002.7    374.05556 
  998000       997500   -10837.906    883.65805   -11721.564    4168.2999   -15889.864    89.805806    305.43926    401.39647   -182.62839    110.80168    -178.2723    270.91588      46.7237      46.7237      46.7237           90           90           90     102002.7    174.73578 
  999000       998500   -10800.964    927.11565    -11728.08    4152.7895   -15880.869    94.222384    279.18192    519.86427    514.33585    141.33217   -127.31734   -12.680998      46.7237      46.7237      46.7237           90           90           90     102002.7    437.79401 
 1000000       999500   -10836.514    889.62535    -11726.14    4146.7362   -15872.876     90.41226    245.78785    136.07132    231.70703   -64.071922    253.05033   -122.14675      46.7237      46.7237      46.7237           90           90           90     102002.7    204.52206 
 1000500      1000000   -10829.069    895.21799   -11724.287    4149.0077   -15873.294    90.980638     187.3254    88.589691    556.46387   -118.70148    107.40955   -175.57873      46.7237      46.7237      46.7237           90           90           90     102002.7    277.45966 
Loop time of 2226.71 on 16 procs for 500000 steps with 3302 atoms

Performance: 19.401 ns/day, 1.237 hours/ns, 224.546 timesteps/s
99.8% CPU use with 16 MPI tasks x no OpenMP threads

MPI task timing breakdown:
Section |  min time  |  avg time  |  max time  |%varavg| %total
---------------------------------------------------------------
Pair    | 1305.5     | 1529.4     | 1708.8     | 322.4 | 68.69
Bond    | 110.79     | 183.95     | 236.92     | 260.8 |  8.26
Neigh   | 14.988     | 15.054     | 15.199     |   2.1 |  0.68
Comm    | 295.35     | 466.72     | 695.04     | 658.4 | 20.96
Output  | 0.13241    | 0.13906    | 0.13961    |   0.5 |  0.01
Modify  | 23.804     | 24.546     | 25.252     |   9.5 |  1.10
Other   |            | 6.867      |            |       |  0.31

Nlocal:    206.375 ave 233 max 169 min
Histogram: 2 0 1 2 0 1 3 3 3 1
Nghost:    4144.06 ave 4174 max 4115 min
Histogram: 2 2 2 0 2 2 1 1 2 2
Neighs:    11463.2 ave 16837 max 6950 min
Histogram: 2 1 3 2 2 1 0 3 0 2

Total # of neighbors = 183412
Ave neighs/atom = 55.5457
Ave special neighs/atom = 3.48879
Neighbor list builds = 4094
Dangerous builds = 0
Total wall time: 1:07:54
