LAMMPS (30 Mar 2018)
Reading data file ...
  orthogonal box = (0 0 0) to (46.7237 46.7237 46.7237)
  2 by 2 by 4 MPI processor grid
  reading atoms ...
  3044 atoms
  scanning bonds ...
  5 = max bonds/atom
  scanning angles ...
  10 = max angles/atom
  scanning dihedrals ...
  32 = max dihedrals/atom
  scanning impropers ...
  3 = max impropers/atom
  reading bonds ...
  2064 bonds
  reading angles ...
  3696 angles
  reading dihedrals ...
  6240 dihedrals
  reading impropers ...
  1008 impropers
Finding 1-2 1-3 1-4 neighbors ...
  special bond factors lj:   0          0          0         
  special bond factors coul: 0          0          0         
  5 = max # of 1-2 neighbors
  8 = max # of 1-3 neighbors
  20 = max # of 1-4 neighbors
  19 = max # of special neighbors
Finding 1-2 1-3 1-4 neighbors ...
  special bond factors lj:   0          0          1         
  special bond factors coul: 1          1          1         
  5 = max # of 1-2 neighbors
  8 = max # of 1-3 neighbors
  19 = max # of special neighbors
WARNING: Using 'neigh_modify every 1 delay 0 check yes' setting during minimization (../min.cpp:168)
Neighbor list info ...
  update every 1 steps, delay 0 steps, check yes
  max neighbors/atom: 2000, page size: 100000
  master list distance cutoff = 16
  ghost atom cutoff = 16
  binsize = 8, bins = 6 6 6
  3 neighbor lists, perpetual/occasional/extra = 3 0 0
  (1) pair buck6d/coul/gauss/dsf, perpetual, skip from (3)
      attributes: half, newton on
      pair build: skip
      stencil: none
      bin: none
  (2) pair lj/cut, perpetual, skip from (3)
      attributes: half, newton on
      pair build: skip
      stencil: none
      bin: none
  (3) neighbor class addition, perpetual
      attributes: half, newton on
      pair build: half/bin/newton
      stencil: half/bin/3d/newton
      bin: standard
Setting up cg style minimization ...
  Unit style    : real
  Current step  : 0
WARNING: Inconsistent image flags (../domain.cpp:786)
Per MPI rank memory allocation (min/avg/max) = 23 | 23.46 | 23.9 Mbytes
Step Temp E_pair E_mol TotEng Press 
       0            0   -14843.163    6482.8914    -8360.272    5898.2285 
     500            0   -15312.958    3748.3931   -11564.565   -2025.3224 
Loop time of 4.39978 on 16 procs for 500 steps with 3044 atoms

99.9% CPU use with 16 MPI tasks x no OpenMP threads

Minimization stats:
  Stopping criterion = max force evaluations
  Energy initial, next-to-last, final = 
        -8360.27195971     -11564.3905187     -11564.5648379
  Force two-norm initial, final = 2575.47 20.2509
  Force max component initial, final = 152.169 4.04522
  Final line search alpha, max atom move = 0.00504709 0.0204166
  Iterations, force evaluations = 500 1000

MPI task timing breakdown:
Section |  min time  |  avg time  |  max time  |%varavg| %total
---------------------------------------------------------------
Pair    | 2.2033     | 2.7886     | 3.5133     |  21.0 | 63.38
Bond    | 0.31078    | 0.36212    | 0.41721    |   5.1 |  8.23
Neigh   | 0.035404   | 0.035533   | 0.035637   |   0.0 |  0.81
Comm    | 0.39159    | 1.1686     | 1.7398     |  33.2 | 26.56
Output  | 0          | 0          | 0          |   0.0 |  0.00
Modify  | 0          | 0          | 0          |   0.0 |  0.00
Other   |            | 0.04493    |            |       |  1.02

Nlocal:    190.25 ave 229 max 161 min
Histogram: 1 1 2 4 2 4 1 0 0 1
Nghost:    3813.69 ave 3852 max 3783 min
Histogram: 2 0 0 6 3 3 0 0 1 1
Neighs:    11455.6 ave 18884 max 6472 min
Histogram: 1 1 3 3 2 4 1 0 0 1

Total # of neighbors = 183289
Ave neighs/atom = 60.2132
Ave special neighs/atom = 3.78449
Neighbor list builds = 11
Dangerous builds = 0
Neighbor list info ...
  update every 1 steps, delay 10 steps, check yes
  max neighbors/atom: 2000, page size: 100000
  master list distance cutoff = 16
  ghost atom cutoff = 16
  binsize = 8, bins = 6 6 6
  3 neighbor lists, perpetual/occasional/extra = 3 0 0
  (1) pair buck6d/coul/gauss/dsf, perpetual, skip from (3)
      attributes: half, newton on
      pair build: skip
      stencil: none
      bin: none
  (2) pair lj/cut, perpetual, skip from (3)
      attributes: half, newton on
      pair build: skip
      stencil: none
      bin: none
  (3) neighbor class addition, perpetual
      attributes: half, newton on
      pair build: half/bin/newton
      stencil: half/bin/3d/newton
      bin: standard
Setting up Verlet run ...
  Unit style    : real
  Current step  : 500
  Time step     : 1
WARNING: Inconsistent image flags (../domain.cpp:786)
Per MPI rank memory allocation (min/avg/max) = 22.65 | 22.72 | 22.78 Mbytes
Step Temp PotEng TotEng Press Volume Lx Ly Lz 
     500          130   -11564.565   -10385.386   -1496.8762     102002.7      46.7237      46.7237      46.7237 
    1000    111.60217   -10602.142   -9589.8433   -561.25286     102002.7      46.7237      46.7237      46.7237 
    2000    133.00078   -10444.023   -9237.6258   -637.89903     102002.7      46.7237      46.7237      46.7237 
    3000    133.13422   -10451.049    -9243.441   -457.64204     102002.7      46.7237      46.7237      46.7237 
    4000    130.11661   -10448.302   -9268.0652    -565.7989     102002.7      46.7237      46.7237      46.7237 
    5000    131.79631   -10428.103   -9232.6306   -568.48306     102002.7      46.7237      46.7237      46.7237 
    6000    132.33553   -10433.261   -9232.8976   -356.42924     102002.7      46.7237      46.7237      46.7237 
    7000    131.23295   -10445.475   -9255.1125   -599.92176     102002.7      46.7237      46.7237      46.7237 
    8000    130.75308    -10433.19   -9247.1809    -399.0749     102002.7      46.7237      46.7237      46.7237 
    9000    127.19042   -10471.549   -9317.8546   -734.22628     102002.7      46.7237      46.7237      46.7237 
   10000    128.71325   -10425.388   -9257.8811   -253.02603     102002.7      46.7237      46.7237      46.7237 
   11000    133.53762   -10437.618   -9226.3513   -326.53316     102002.7      46.7237      46.7237      46.7237 
   12000    131.67891   -10453.545   -9259.1375   -585.09248     102002.7      46.7237      46.7237      46.7237 
   13000    129.37262   -10443.638   -9270.1504   -532.42525     102002.7      46.7237      46.7237      46.7237 
   14000    132.00088   -10436.911   -9239.5827     -620.314     102002.7      46.7237      46.7237      46.7237 
   15000    131.43758   -10476.341   -9284.1227   -698.13183     102002.7      46.7237      46.7237      46.7237 
   16000    131.73943   -10441.829    -9246.873   -580.25537     102002.7      46.7237      46.7237      46.7237 
   17000     131.4184   -10436.054     -9244.01    -580.4396     102002.7      46.7237      46.7237      46.7237 
   18000    131.54856   -10455.069    -9261.844   -572.86596     102002.7      46.7237      46.7237      46.7237 
   19000    135.42015   -10455.802   -9227.4594    -546.5503     102002.7      46.7237      46.7237      46.7237 
   20000    128.00264   -10433.986   -9272.9249   -698.31161     102002.7      46.7237      46.7237      46.7237 
   21000    130.86697   -10440.822   -9253.7792   -535.02809     102002.7      46.7237      46.7237      46.7237 
   22000    132.32487   -10455.973   -9255.7069   -971.10716     102002.7      46.7237      46.7237      46.7237 
   23000    131.97496   -10431.378   -9234.2852    -635.4669     102002.7      46.7237      46.7237      46.7237 
   24000    129.70724   -10454.485   -9277.9615   -902.29361     102002.7      46.7237      46.7237      46.7237 
   25000    130.60016   -10433.325   -9248.7021   -806.62429     102002.7      46.7237      46.7237      46.7237 
   26000    129.62392   -10447.822   -9272.0545   -548.99909     102002.7      46.7237      46.7237      46.7237 
   27000    131.96464   -10457.109   -9260.1102   -607.83165     102002.7      46.7237      46.7237      46.7237 
   28000    127.28799   -10445.608   -9291.0285   -383.20243     102002.7      46.7237      46.7237      46.7237 
   29000    130.59166   -10438.662   -9254.1167   -520.01931     102002.7      46.7237      46.7237      46.7237 
   30000    127.68002   -10454.465   -9296.3296   -553.47726     102002.7      46.7237      46.7237      46.7237 
   31000    129.44441   -10420.658   -9246.5193      -485.26     102002.7      46.7237      46.7237      46.7237 
   32000    131.05469   -10473.498   -9284.7526   -323.45313     102002.7      46.7237      46.7237      46.7237 
   33000    132.96697   -10436.897   -9230.8057   -497.83866     102002.7      46.7237      46.7237      46.7237 
   34000    131.56787   -10420.689   -9227.2893    -483.4188     102002.7      46.7237      46.7237      46.7237 
   35000    130.11308   -10434.052   -9253.8477   -794.18134     102002.7      46.7237      46.7237      46.7237 
   36000    131.59545    -10436.28   -9242.6301   -597.42363     102002.7      46.7237      46.7237      46.7237 
   37000    127.80646   -10433.278   -9273.9956   -389.57524     102002.7      46.7237      46.7237      46.7237 
   38000    124.66153   -10453.682   -9322.9269    -658.7127     102002.7      46.7237      46.7237      46.7237 
   39000      131.066   -10461.137   -9272.2895   -676.91278     102002.7      46.7237      46.7237      46.7237 
   40000    130.58969   -10455.746    -9271.219   -618.32602     102002.7      46.7237      46.7237      46.7237 
   41000     128.7964   -10413.736   -9245.4748   -426.71577     102002.7      46.7237      46.7237      46.7237 
   42000    129.86481   -10433.215   -9255.2629   -533.10956     102002.7      46.7237      46.7237      46.7237 
   43000      132.597   -10425.989   -9223.2543   -445.85738     102002.7      46.7237      46.7237      46.7237 
   44000     132.0764   -10448.126    -9250.113   -933.65358     102002.7      46.7237      46.7237      46.7237 
   45000    130.41947   -10449.438   -9266.4544   -774.94137     102002.7      46.7237      46.7237      46.7237 
   46000    129.04609   -10429.077   -9258.5508   -441.71212     102002.7      46.7237      46.7237      46.7237 
   47000    133.35918   -10428.149   -9218.5002   -549.06521     102002.7      46.7237      46.7237      46.7237 
   48000    128.32974   -10432.394   -9268.3661    -589.3475     102002.7      46.7237      46.7237      46.7237 
   49000    127.85982   -10424.769   -9265.0031   -569.61448     102002.7      46.7237      46.7237      46.7237 
   50000    130.48368    -10442.44   -9258.8742   -565.46382     102002.7      46.7237      46.7237      46.7237 
   51000    129.82895    -10401.86   -9224.2332   -427.57857     102002.7      46.7237      46.7237      46.7237 
   52000    132.53955   -10446.298   -9244.0845   -869.53256     102002.7      46.7237      46.7237      46.7237 
   53000    129.70809   -10454.625   -9278.0944   -735.37529     102002.7      46.7237      46.7237      46.7237 
   54000    127.27564   -10455.157   -9300.6901   -518.18327     102002.7      46.7237      46.7237      46.7237 
   55000     129.3833   -10465.653   -9292.0679    -842.4488     102002.7      46.7237      46.7237      46.7237 
   56000    131.90493   -10449.575   -9253.1175   -977.86174     102002.7      46.7237      46.7237      46.7237 
   57000    131.07877   -10463.294   -9274.3304   -567.93819     102002.7      46.7237      46.7237      46.7237 
   58000    131.06636   -10444.577    -9255.726   -645.40075     102002.7      46.7237      46.7237      46.7237 
   59000    129.99309   -10446.929   -9267.8131   -691.21865     102002.7      46.7237      46.7237      46.7237 
   60000    127.19474   -10447.569    -9293.836   -908.10027     102002.7      46.7237      46.7237      46.7237 
   61000    129.96315   -10428.092   -9249.2475    -827.4616     102002.7      46.7237      46.7237      46.7237 
   62000    126.40567   -10416.945   -9270.3689   -474.97878     102002.7      46.7237      46.7237      46.7237 
   63000    130.22656   -10463.883   -9282.6489   -766.02741     102002.7      46.7237      46.7237      46.7237 
   64000    130.38313   -10459.813   -9277.1594   -587.62825     102002.7      46.7237      46.7237      46.7237 
   65000    127.70526   -10445.823   -9287.4587   -626.46089     102002.7      46.7237      46.7237      46.7237 
   66000    130.15888   -10454.519   -9273.8996   -487.46696     102002.7      46.7237      46.7237      46.7237 
   67000    129.39341   -10438.114   -9264.4373   -739.94298     102002.7      46.7237      46.7237      46.7237 
   68000    130.09719   -10464.502   -9284.4419   -409.02081     102002.7      46.7237      46.7237      46.7237 
   69000    126.92462   -10433.677    -9282.394    -435.6865     102002.7      46.7237      46.7237      46.7237 
   70000    129.90529   -10430.804   -9252.4845    -426.1075     102002.7      46.7237      46.7237      46.7237 
   71000    133.11438   -10429.028      -9221.6   -724.41152     102002.7      46.7237      46.7237      46.7237 
   72000    135.10668   -10434.069   -9208.5699   -411.63676     102002.7      46.7237      46.7237      46.7237 
   73000    131.16966   -10438.783   -9248.9943    -668.7536     102002.7      46.7237      46.7237      46.7237 
   74000      129.334   -10444.041   -9270.9037   -771.90345     102002.7      46.7237      46.7237      46.7237 
   75000     129.6345   -10446.476   -9270.6127   -821.33497     102002.7      46.7237      46.7237      46.7237 
   76000    128.90202   -10417.738   -9248.5183   -534.40258     102002.7      46.7237      46.7237      46.7237 
   77000    132.08749   -10443.124   -9245.0108   -790.69344     102002.7      46.7237      46.7237      46.7237 
   78000    130.45858   -10402.922   -9219.5839   -460.10187     102002.7      46.7237      46.7237      46.7237 
   79000    132.72255   -10465.661   -9261.7876   -599.84567     102002.7      46.7237      46.7237      46.7237 
   80000    129.63722    -10451.09   -9275.2019   -833.06903     102002.7      46.7237      46.7237      46.7237 
   81000    131.31113   -10464.451   -9273.3794   -854.09377     102002.7      46.7237      46.7237      46.7237 
   82000    129.82244   -10433.426   -9255.8582   -322.16368     102002.7      46.7237      46.7237      46.7237 
   83000    134.89017   -10454.278   -9230.7425   -880.83064     102002.7      46.7237      46.7237      46.7237 
   84000    130.21662    -10406.71   -9225.5667   -312.28263     102002.7      46.7237      46.7237      46.7237 
   85000    128.33105   -10428.758   -9264.7175   -529.55477     102002.7      46.7237      46.7237      46.7237 
   86000    131.63683   -10441.828   -9247.8018   -554.63421     102002.7      46.7237      46.7237      46.7237 
   87000    131.03038   -10409.736   -9221.2109   -397.30242     102002.7      46.7237      46.7237      46.7237 
   88000    128.61153   -10430.376   -9263.7916   -995.86043     102002.7      46.7237      46.7237      46.7237 
   89000     127.8974   -10453.252   -9293.1451   -704.47505     102002.7      46.7237      46.7237      46.7237 
   90000    133.23439   -10440.765   -9232.2489   -628.52635     102002.7      46.7237      46.7237      46.7237 
   91000    131.44228   -10451.829   -9259.5682   -581.29076     102002.7      46.7237      46.7237      46.7237 
   92000    126.17741    -10447.63   -9303.1244   -662.48901     102002.7      46.7237      46.7237      46.7237 
   93000    127.94785   -10422.437   -9261.8722   -893.78465     102002.7      46.7237      46.7237      46.7237 
   94000    133.06195   -10436.666   -9229.7132   -386.66925     102002.7      46.7237      46.7237      46.7237 
   95000    131.27625   -10425.237   -9234.4822   -444.33801     102002.7      46.7237      46.7237      46.7237 
   96000    131.40594   -10432.549   -9240.6181   -775.28633     102002.7      46.7237      46.7237      46.7237 
   97000    132.71618   -10470.317   -9266.5005    144.47433     102002.7      46.7237      46.7237      46.7237 
   98000    128.78033   -10455.718   -9287.6028   -511.79267     102002.7      46.7237      46.7237      46.7237 
   99000    133.53085   -10450.459   -9239.2532   -620.44924     102002.7      46.7237      46.7237      46.7237 
  100000    129.44408   -10480.769   -9306.6327   -1096.1587     102002.7      46.7237      46.7237      46.7237 
  101000    132.28783   -10443.662   -9243.7309   -807.71736     102002.7      46.7237      46.7237      46.7237 
  102000    128.86132   -10424.898   -9256.0477   -628.86387     102002.7      46.7237      46.7237      46.7237 
  103000    132.09192   -10445.175   -9247.0215   -736.01297     102002.7      46.7237      46.7237      46.7237 
  104000    131.37402   -10458.549    -9266.907   -812.87511     102002.7      46.7237      46.7237      46.7237 
  105000    130.49121   -10444.092   -9260.4578   -510.60146     102002.7      46.7237      46.7237      46.7237 
  106000    128.63242   -10430.886   -9264.1124   -310.27484     102002.7      46.7237      46.7237      46.7237 
  107000    128.29781    -10437.64   -9273.9012   -547.28773     102002.7      46.7237      46.7237      46.7237 
  108000    130.47048    -10439.07   -9255.6237   -732.08906     102002.7      46.7237      46.7237      46.7237 
  109000    130.39611   -10436.268   -9253.4965   -451.44601     102002.7      46.7237      46.7237      46.7237 
  110000    129.62829   -10423.687   -9247.8796   -914.16148     102002.7      46.7237      46.7237      46.7237 
  111000     129.8688   -10441.243   -9263.2541   -595.81675     102002.7      46.7237      46.7237      46.7237 
  112000     130.4673   -10422.258   -9238.8405   -534.60238     102002.7      46.7237      46.7237      46.7237 
  113000    129.25707   -10459.117   -9286.6776   -809.61207     102002.7      46.7237      46.7237      46.7237 
  114000    130.69996   -10452.583   -9267.0555   -694.42434     102002.7      46.7237      46.7237      46.7237 
  115000    128.64442   -10432.898   -9266.0151   -1049.5727     102002.7      46.7237      46.7237      46.7237 
  116000    133.74054    -10447.51   -9234.4021   -928.49309     102002.7      46.7237      46.7237      46.7237 
  117000    131.60328   -10433.771     -9240.05   -820.72911     102002.7      46.7237      46.7237      46.7237 
  118000    130.42908   -10442.259   -9259.1882    -384.8579     102002.7      46.7237      46.7237      46.7237 
  119000    127.66198   -10438.769   -9280.7977   -591.44215     102002.7      46.7237      46.7237      46.7237 
  120000    128.31933   -10447.484   -9283.5498   -636.32011     102002.7      46.7237      46.7237      46.7237 
  121000    129.59096   -10436.744   -9261.2756   -714.17029     102002.7      46.7237      46.7237      46.7237 
  122000    133.26586   -10413.837   -9205.0346    -645.1486     102002.7      46.7237      46.7237      46.7237 
  123000    130.61196   -10434.094   -9249.3642   -502.12035     102002.7      46.7237      46.7237      46.7237 
  124000    127.89003   -10431.172   -9271.1317   -585.56184     102002.7      46.7237      46.7237      46.7237 
  125000    134.55991   -10416.822   -9196.2824   -1000.3875     102002.7      46.7237      46.7237      46.7237 
  126000    128.08384   -10445.686   -9283.8886   -775.52894     102002.7      46.7237      46.7237      46.7237 
  127000    129.15732   -10449.467   -9277.9317   -510.58274     102002.7      46.7237      46.7237      46.7237 
  128000    129.95629   -10456.621   -9277.8389   -692.31587     102002.7      46.7237      46.7237      46.7237 
  129000    127.11194    -10451.07   -9298.0878   -966.08836     102002.7      46.7237      46.7237      46.7237 
  130000    130.48639   -10466.536   -9282.9453   -564.19811     102002.7      46.7237      46.7237      46.7237 
  131000    129.62762   -10454.831   -9279.0305    -654.1094     102002.7      46.7237      46.7237      46.7237 
  132000    131.24267   -10453.241   -9262.7907   -725.95999     102002.7      46.7237      46.7237      46.7237 
  133000    132.81158   -10433.685   -9229.0039   -461.61424     102002.7      46.7237      46.7237      46.7237 
  134000     132.6618    -10474.86   -9271.5375   -485.99539     102002.7      46.7237      46.7237      46.7237 
  135000    132.55064   -10455.232   -9252.9176   -601.75984     102002.7      46.7237      46.7237      46.7237 
  136000    132.95157   -10424.117   -9218.1662   -598.18958     102002.7      46.7237      46.7237      46.7237 
  137000    129.41698   -10439.045   -9265.1549   -412.78879     102002.7      46.7237      46.7237      46.7237 
  138000    125.87073   -10448.876   -9307.1524   -531.14805     102002.7      46.7237      46.7237      46.7237 
  139000    129.92948   -10459.934   -9281.3948   -487.08619     102002.7      46.7237      46.7237      46.7237 
  140000     129.6502   -10438.197   -9262.1909   -358.64499     102002.7      46.7237      46.7237      46.7237 
  141000    131.83912   -10450.003   -9254.1428   -538.63586     102002.7      46.7237      46.7237      46.7237 
  142000    131.88268   -10445.659   -9249.4033   -709.05057     102002.7      46.7237      46.7237      46.7237 
  143000    131.02236   -10469.571   -9281.1187   -606.31564     102002.7      46.7237      46.7237      46.7237 
  144000     130.8316   -10436.074   -9249.3524     -498.641     102002.7      46.7237      46.7237      46.7237 
  145000    128.33949   -10447.992   -9283.8756   -806.21717     102002.7      46.7237      46.7237      46.7237 
  146000    130.48443   -10461.338   -9277.7654   -649.81975     102002.7      46.7237      46.7237      46.7237 
  147000    130.06708   -10407.337   -9227.5499   -258.80268     102002.7      46.7237      46.7237      46.7237 
  148000    129.48177   -10428.091    -9253.613   -522.15416     102002.7      46.7237      46.7237      46.7237 
  149000    131.53421   -10451.892   -9258.7972   -607.93796     102002.7      46.7237      46.7237      46.7237 
  150000    129.56238   -10426.395   -9251.1855   -559.75015     102002.7      46.7237      46.7237      46.7237 
  151000    131.54666   -10472.072   -9278.8645   -537.47923     102002.7      46.7237      46.7237      46.7237 
  152000    133.15217   -10460.537   -9252.7659   -740.44261     102002.7      46.7237      46.7237      46.7237 
  153000    129.36574   -10448.699   -9275.2737   -756.67786     102002.7      46.7237      46.7237      46.7237 
  154000    131.30091   -10428.352   -9237.3733   -507.59401     102002.7      46.7237      46.7237      46.7237 
  155000    129.07118   -10453.055   -9282.3009   -529.24157     102002.7      46.7237      46.7237      46.7237 
  156000    130.63596   -10455.076   -9270.1289   -542.87016     102002.7      46.7237      46.7237      46.7237 
  157000    130.28799   -10451.433   -9269.6425   -664.31323     102002.7      46.7237      46.7237      46.7237 
  158000     129.2935   -10465.719    -9292.949    -806.0332     102002.7      46.7237      46.7237      46.7237 
  159000    131.43996   -10468.589   -9276.3492   -688.30474     102002.7      46.7237      46.7237      46.7237 
  160000    128.69014   -10449.587   -9282.2893   -661.20416     102002.7      46.7237      46.7237      46.7237 
  161000    129.61687   -10451.808    -9276.105   -519.85491     102002.7      46.7237      46.7237      46.7237 
  162000    126.21803   -10446.086   -9301.2116   -408.96706     102002.7      46.7237      46.7237      46.7237 
  163000    125.29879   -10416.602   -9280.0661   -673.93834     102002.7      46.7237      46.7237      46.7237 
  164000    128.22512   -10448.909   -9285.8301   -705.99881     102002.7      46.7237      46.7237      46.7237 
  165000     134.5568   -10435.551   -9215.0394   -736.97824     102002.7      46.7237      46.7237      46.7237 
  166000    130.75175     -10419.7   -9233.7026   -781.08621     102002.7      46.7237      46.7237      46.7237 
  167000    130.02452   -10450.075   -9270.6741   -526.52307     102002.7      46.7237      46.7237      46.7237 
  168000    128.32692   -10425.237   -9261.2339   -820.71728     102002.7      46.7237      46.7237      46.7237 
  169000     129.7669   -10422.869   -9245.8045   -888.46397     102002.7      46.7237      46.7237      46.7237 
  170000    130.67081    -10426.73   -9241.4664    -682.4331     102002.7      46.7237      46.7237      46.7237 
  171000    128.91078   -10429.443   -9260.1439   -742.76843     102002.7      46.7237      46.7237      46.7237 
  172000    130.93158   -10425.438    -9237.809   -677.30358     102002.7      46.7237      46.7237      46.7237 
  173000     128.7296   -10444.574   -9276.9184   -643.82692     102002.7      46.7237      46.7237      46.7237 
  174000    130.78379   -10448.825    -9262.537   -961.66679     102002.7      46.7237      46.7237      46.7237 
  175000    130.92238   -10433.046   -9245.5009   -1059.1311     102002.7      46.7237      46.7237      46.7237 
  176000    129.58129   -10470.006   -9294.6254   -420.92219     102002.7      46.7237      46.7237      46.7237 
  177000    128.82636   -10463.591    -9295.058   -420.14933     102002.7      46.7237      46.7237      46.7237 
  178000    130.09421   -10441.743   -9261.7103   -385.52486     102002.7      46.7237      46.7237      46.7237 
  179000    131.49099   -10431.632    -9238.929   -527.51984     102002.7      46.7237      46.7237      46.7237 
  180000    130.96828   -10427.672   -9239.7101   -598.12719     102002.7      46.7237      46.7237      46.7237 
  181000    126.02677   -10449.652   -9306.5131   -517.10398     102002.7      46.7237      46.7237      46.7237 
  182000    134.03672   -10436.846   -9221.0518   -656.91301     102002.7      46.7237      46.7237      46.7237 
  183000     127.7883   -10444.234   -9285.1164   -930.87388     102002.7      46.7237      46.7237      46.7237 
  184000    128.82222   -10463.711   -9295.2157   -819.50801     102002.7      46.7237      46.7237      46.7237 
  185000    130.11162   -10422.046   -9241.8551   -643.67888     102002.7      46.7237      46.7237      46.7237 
  186000     133.4673   -10447.499   -9236.8699   -856.48996     102002.7      46.7237      46.7237      46.7237 
  187000    127.49492   -10439.988   -9283.5316   -690.54518     102002.7      46.7237      46.7237      46.7237 
  188000    129.03141   -10430.229   -9259.8359    -464.1058     102002.7      46.7237      46.7237      46.7237 
  189000    130.30377   -10457.138   -9275.2044   -1067.8118     102002.7      46.7237      46.7237      46.7237 
  190000    128.39219   -10455.558   -9290.9634   -764.10016     102002.7      46.7237      46.7237      46.7237 
  191000    127.50241   -10451.014   -9294.4896   -813.02829     102002.7      46.7237      46.7237      46.7237 
  192000     126.3843   -10450.641   -9304.2585   -641.05427     102002.7      46.7237      46.7237      46.7237 
  193000    131.92371   -10452.628   -9256.0004   -823.42233     102002.7      46.7237      46.7237      46.7237 
  194000    127.70324   -10432.741    -9274.395   -639.17104     102002.7      46.7237      46.7237      46.7237 
  195000    130.68826   -10466.305   -9280.8832   -552.01309     102002.7      46.7237      46.7237      46.7237 
  196000    131.77837   -10422.149    -9226.839   -747.26006     102002.7      46.7237      46.7237      46.7237 
  197000    128.38111   -10426.375   -9261.8807   -448.61055     102002.7      46.7237      46.7237      46.7237 
  198000    128.53388    -10439.51   -9273.6299   -298.71505     102002.7      46.7237      46.7237      46.7237 
  199000    130.44903   -10435.939   -9252.6879     -452.313     102002.7      46.7237      46.7237      46.7237 
  200000    132.23915   -10425.798    -9226.309    -700.4085     102002.7      46.7237      46.7237      46.7237 
  201000    127.92221   -10409.797   -9249.4654   -535.21578     102002.7      46.7237      46.7237      46.7237 
  202000     128.2097   -10448.548   -9285.6085    -904.8524     102002.7      46.7237      46.7237      46.7237 
  203000     134.5897   -10442.493   -9221.6828    -742.3715     102002.7      46.7237      46.7237      46.7237 
  204000    130.03509   -10435.341   -9255.8437   -834.22371     102002.7      46.7237      46.7237      46.7237 
  205000    131.87909   -10448.815   -9252.5923   -733.96677     102002.7      46.7237      46.7237      46.7237 
  206000     129.6768   -10440.467   -9264.2197   -696.46595     102002.7      46.7237      46.7237      46.7237 
  207000    128.46438   -10450.262   -9285.0121   -730.31338     102002.7      46.7237      46.7237      46.7237 
  208000    128.65451   -10473.936   -9306.9616   -772.30803     102002.7      46.7237      46.7237      46.7237 
  209000    130.16134   -10453.536   -9272.8935    -623.6504     102002.7      46.7237      46.7237      46.7237 
  210000    128.66371   -10480.773   -9313.7153   -572.27353     102002.7      46.7237      46.7237      46.7237 
  211000    128.45322   -10425.221   -9260.0731   -437.57512     102002.7      46.7237      46.7237      46.7237 
  212000    132.14036   -10462.425   -9263.8322   -511.58598     102002.7      46.7237      46.7237      46.7237 
  213000    133.97015   -10465.208   -9250.0174   -802.53098     102002.7      46.7237      46.7237      46.7237 
  214000    129.07961   -10477.017    -9306.187   -850.89269     102002.7      46.7237      46.7237      46.7237 
  215000    128.54744   -10415.655   -9249.6519   -864.09163     102002.7      46.7237      46.7237      46.7237 
  216000    130.95643   -10414.012   -9226.1579   -410.28858     102002.7      46.7237      46.7237      46.7237 
  217000    128.24808   -10418.942   -9255.6543   -776.55881     102002.7      46.7237      46.7237      46.7237 
  218000    132.99254   -10448.287   -9241.9647   -647.42889     102002.7      46.7237      46.7237      46.7237 
  219000    130.95856   -10424.983   -9237.1099   -241.63234     102002.7      46.7237      46.7237      46.7237 
  220000    133.61404   -10446.804   -9234.8434   -775.97172     102002.7      46.7237      46.7237      46.7237 
  221000     127.3177   -10430.554   -9275.7053   -705.59358     102002.7      46.7237      46.7237      46.7237 
  222000    130.16395     -10436.9   -9256.2339    -524.5428     102002.7      46.7237      46.7237      46.7237 
  223000    130.29263   -10452.443   -9270.6105   -695.51078     102002.7      46.7237      46.7237      46.7237 
  224000    132.22485   -10434.215   -9234.8553   -491.05404     102002.7      46.7237      46.7237      46.7237 
  225000    128.11446   -10444.898   -9282.8226   -869.49521     102002.7      46.7237      46.7237      46.7237 
  226000    131.02751   -10458.604    -9270.105   -378.37308     102002.7      46.7237      46.7237      46.7237 
  227000    130.10982   -10424.217   -9244.0423   -674.43763     102002.7      46.7237      46.7237      46.7237 
  228000    128.55922   -10426.175    -9260.065    -609.7276     102002.7      46.7237      46.7237      46.7237 
  229000    131.61266   -10448.345   -9254.5388   -510.27254     102002.7      46.7237      46.7237      46.7237 
  230000    132.53048    -10431.87   -9229.7383   -830.27956     102002.7      46.7237      46.7237      46.7237 
  231000    128.92482   -10415.656   -9246.2304    -845.5318     102002.7      46.7237      46.7237      46.7237 
  232000    129.42365   -10427.946   -9253.9955   -508.59188     102002.7      46.7237      46.7237      46.7237 
  233000    129.81781   -10447.129   -9269.6029   -737.99268     102002.7      46.7237      46.7237      46.7237 
  234000    128.53793   -10485.218   -9319.3009   -795.29116     102002.7      46.7237      46.7237      46.7237 
  235000    131.20553   -10441.856   -9251.7424    -831.0252     102002.7      46.7237      46.7237      46.7237 
  236000    132.58195    -10431.61   -9229.0115   -502.02322     102002.7      46.7237      46.7237      46.7237 
  237000    130.22502   -10414.131   -9232.9114   -524.27329     102002.7      46.7237      46.7237      46.7237 
  238000     130.6686   -10445.354   -9260.1112   -712.66374     102002.7      46.7237      46.7237      46.7237 
  239000    132.10561   -10411.213    -9212.935   -546.47026     102002.7      46.7237      46.7237      46.7237 
  240000    129.12561   -10431.057   -9259.8092   -467.90234     102002.7      46.7237      46.7237      46.7237 
  241000    128.68206   -10460.571   -9293.3474    -561.5737     102002.7      46.7237      46.7237      46.7237 
  242000    129.24349   -10417.152   -9244.8351   -283.54758     102002.7      46.7237      46.7237      46.7237 
  243000    129.97869   -10450.277   -9271.2914   -773.94894     102002.7      46.7237      46.7237      46.7237 
  244000    131.92609    -10457.77    -9261.121   -856.39107     102002.7      46.7237      46.7237      46.7237 
  245000    129.29973   -10435.495   -9262.6683   -544.03153     102002.7      46.7237      46.7237      46.7237 
  246000    129.37203    -10457.26   -9283.7775   -544.87035     102002.7      46.7237      46.7237      46.7237 
  247000     129.4649    -10434.54   -9260.2148    -871.3469     102002.7      46.7237      46.7237      46.7237 
  248000    126.65319   -10455.656   -9306.8353   -755.47152     102002.7      46.7237      46.7237      46.7237 
  249000    129.61564   -10431.366   -9255.6739   -1048.5245     102002.7      46.7237      46.7237      46.7237 
  250000    127.13199   -10427.044     -9273.88   -904.48298     102002.7      46.7237      46.7237      46.7237 
  251000    129.53062     -10423.7   -9248.7793   -734.87224     102002.7      46.7237      46.7237      46.7237 
  252000    130.02816   -10455.751   -9276.3169   -820.09337     102002.7      46.7237      46.7237      46.7237 
  253000    130.04797   -10438.782   -9259.1687    -788.7548     102002.7      46.7237      46.7237      46.7237 
  254000     125.1926    -10452.24   -9316.6677   -885.74939     102002.7      46.7237      46.7237      46.7237 
  255000    131.21804   -10453.108   -9262.8811    -651.8731     102002.7      46.7237      46.7237      46.7237 
  256000    133.33181   -10433.891   -9224.4911   -823.90749     102002.7      46.7237      46.7237      46.7237 
  257000     132.1212   -10423.616   -9225.1965   -606.26733     102002.7      46.7237      46.7237      46.7237 
  258000    131.69985   -10432.037   -9237.4395   -773.77017     102002.7      46.7237      46.7237      46.7237 
  259000    129.42376   -10427.403   -9253.4517   -333.34366     102002.7      46.7237      46.7237      46.7237 
  260000    130.01763   -10420.695   -9241.3562   -591.20707     102002.7      46.7237      46.7237      46.7237 
  261000    125.61499   -10427.236   -9287.8317   -863.87283     102002.7      46.7237      46.7237      46.7237 
  262000    129.82304   -10434.206   -9256.6329   -690.72416     102002.7      46.7237      46.7237      46.7237 
  263000    128.91393   -10438.824   -9269.4967   -600.12084     102002.7      46.7237      46.7237      46.7237 
  264000    131.74055   -10410.602   -9215.6357    -872.2243     102002.7      46.7237      46.7237      46.7237 
  265000    128.19942   -10451.367    -9288.521   -695.70713     102002.7      46.7237      46.7237      46.7237 
  266000     129.4835   -10413.454   -9238.9606   -429.20854     102002.7      46.7237      46.7237      46.7237 
  267000    129.62948   -10422.421   -9246.6029   -524.63031     102002.7      46.7237      46.7237      46.7237 
  268000    126.49434   -10426.093   -9278.7125   -389.90791     102002.7      46.7237      46.7237      46.7237 
  269000     128.3163   -10412.258    -9248.352   -761.64506     102002.7      46.7237      46.7237      46.7237 
  270000    127.10703   -10452.686   -9299.7487   -625.71015     102002.7      46.7237      46.7237      46.7237 
  271000    129.68319   -10416.754   -9240.4494   -627.27382     102002.7      46.7237      46.7237      46.7237 
  272000    131.09967   -10430.029   -9240.8756   -595.26019     102002.7      46.7237      46.7237      46.7237 
  273000    127.66418   -10443.103   -9285.1117   -838.89301     102002.7      46.7237      46.7237      46.7237 
  274000    129.21863   -10412.354   -9240.2628   -664.28668     102002.7      46.7237      46.7237      46.7237 
  275000    128.79713    -10444.79   -9276.5226   -477.65702     102002.7      46.7237      46.7237      46.7237 
  276000    129.26005   -10415.194   -9242.7268   -642.66423     102002.7      46.7237      46.7237      46.7237 
  277000    130.66466   -10445.585    -9260.378   -818.98015     102002.7      46.7237      46.7237      46.7237 
  278000    126.63072   -10418.081   -9269.4635   -673.72372     102002.7      46.7237      46.7237      46.7237 
  279000    129.45889   -10437.018   -9262.7473    -770.0307     102002.7      46.7237      46.7237      46.7237 
  280000    129.96278   -10435.159   -9256.3175   -486.04219     102002.7      46.7237      46.7237      46.7237 
  281000    129.94107   -10475.721   -9297.0765   -393.57315     102002.7      46.7237      46.7237      46.7237 
  282000    131.71505   -10421.843    -9227.108   -988.21549     102002.7      46.7237      46.7237      46.7237 
  283000    129.70668   -10458.967   -9282.4492   -663.17823     102002.7      46.7237      46.7237      46.7237 
  284000    128.92113   -10445.551   -9276.1587   -725.53419     102002.7      46.7237      46.7237      46.7237 
  285000     130.7951   -10421.943   -9235.5522   -454.79363     102002.7      46.7237      46.7237      46.7237 
  286000    129.86852   -10436.069   -9258.0833   -734.54486     102002.7      46.7237      46.7237      46.7237 
  287000    129.32942   -10460.365   -9287.2693   -562.88189     102002.7      46.7237      46.7237      46.7237 
  288000    130.81287   -10446.358   -9259.8062    -532.1996     102002.7      46.7237      46.7237      46.7237 
  289000    126.33481   -10446.627   -9300.6938   -357.70984     102002.7      46.7237      46.7237      46.7237 
  290000    133.39711    -10433.71   -9223.7173   -594.24044     102002.7      46.7237      46.7237      46.7237 
  291000    130.23688   -10444.014    -9262.687   -687.61894     102002.7      46.7237      46.7237      46.7237 
  292000    126.47612   -10424.838   -9277.6236   -661.90784     102002.7      46.7237      46.7237      46.7237 
  293000    127.82573   -10476.937   -9317.4807   -560.55356     102002.7      46.7237      46.7237      46.7237 
  294000    130.57437   -10442.935   -9258.5465   -843.28629     102002.7      46.7237      46.7237      46.7237 
  295000     135.1577   -10446.275   -9220.3126   -649.62236     102002.7      46.7237      46.7237      46.7237 
  296000    131.42791   -10450.637   -9258.5063   -799.36944     102002.7      46.7237      46.7237      46.7237 
  297000    130.80019   -10431.945   -9245.5078   -709.52929     102002.7      46.7237      46.7237      46.7237 
  298000    133.18927   -10451.122   -9243.0145   -633.57141     102002.7      46.7237      46.7237      46.7237 
  299000    130.19161   -10446.976   -9266.0589   -429.07861     102002.7      46.7237      46.7237      46.7237 
  300000    129.38747   -10402.507   -9228.8842   -600.60261     102002.7      46.7237      46.7237      46.7237 
  301000    129.64373    -10436.11   -9260.1627   -559.40282     102002.7      46.7237      46.7237      46.7237 
  302000    130.09773   -10429.182   -9249.1166    -633.9377     102002.7      46.7237      46.7237      46.7237 
  303000    127.64855   -10409.512   -9251.6624   -391.02951     102002.7      46.7237      46.7237      46.7237 
  304000    131.00535   -10466.723    -9278.425   -559.46911     102002.7      46.7237      46.7237      46.7237 
  305000    130.37406   -10479.353   -9296.7818   -902.20365     102002.7      46.7237      46.7237      46.7237 
  306000    131.09452   -10431.891   -9242.7846   -626.84787     102002.7      46.7237      46.7237      46.7237 
  307000    130.98718   -10446.655   -9258.5219   -546.66562     102002.7      46.7237      46.7237      46.7237 
  308000    129.74507   -10424.907   -9248.0403   -650.50971     102002.7      46.7237      46.7237      46.7237 
  309000    128.40377   -10450.185   -9285.4853   -922.59378     102002.7      46.7237      46.7237      46.7237 
  310000    129.62636    -10439.76   -9263.9706   -584.52859     102002.7      46.7237      46.7237      46.7237 
  311000    131.91877   -10464.216   -9267.6327   -887.01238     102002.7      46.7237      46.7237      46.7237 
  312000     132.8527   -10422.404   -9217.3496   -474.51257     102002.7      46.7237      46.7237      46.7237 
  313000    131.62969   -10436.564   -9242.6034   -127.72648     102002.7      46.7237      46.7237      46.7237 
  314000    129.32625   -10422.974    -9249.907   -553.80011     102002.7      46.7237      46.7237      46.7237 
  315000    132.05537   -10433.898   -9236.0755   -785.43312     102002.7      46.7237      46.7237      46.7237 
  316000    130.44024   -10485.538   -9302.3657   -849.48634     102002.7      46.7237      46.7237      46.7237 
  317000     130.1105   -10455.296   -9275.1153   -758.20076     102002.7      46.7237      46.7237      46.7237 
  318000    125.65529   -10393.188   -9253.4182   -499.70397     102002.7      46.7237      46.7237      46.7237 
  319000    129.16772   -10417.955   -9246.3258    -796.4801     102002.7      46.7237      46.7237      46.7237 
  320000    131.37122   -10461.539   -9269.9225   -825.38491     102002.7      46.7237      46.7237      46.7237 
  321000    128.84293   -10438.715   -9270.0321   -662.90999     102002.7      46.7237      46.7237      46.7237 
  322000    126.25569   -10442.474   -9297.2584   -636.99031     102002.7      46.7237      46.7237      46.7237 
  323000    132.26722   -10430.793   -9231.0495   -722.28559     102002.7      46.7237      46.7237      46.7237 
  324000    129.26112   -10438.153   -9265.6767   -932.72168     102002.7      46.7237      46.7237      46.7237 
  325000    130.71901   -10410.057    -9224.356   -640.96005     102002.7      46.7237      46.7237      46.7237 
  326000     129.5055   -10423.817   -9249.1235   -432.93972     102002.7      46.7237      46.7237      46.7237 
  327000    131.03819   -10447.818   -9259.2227   -899.20078     102002.7      46.7237      46.7237      46.7237 
  328000    132.89656   -10457.234   -9251.7816   -490.19639     102002.7      46.7237      46.7237      46.7237 
  329000    130.19808   -10405.379   -9224.4037    -524.4183     102002.7      46.7237      46.7237      46.7237 
  330000    134.44995   -10465.132   -9245.5893   -702.09694     102002.7      46.7237      46.7237      46.7237 
  331000    130.52666   -10397.798   -9213.8417   -562.81598     102002.7      46.7237      46.7237      46.7237 
  332000    128.04873   -10437.944   -9276.4646   -670.77379     102002.7      46.7237      46.7237      46.7237 
  333000    130.78871   -10452.149   -9265.8163   -357.46967     102002.7      46.7237      46.7237      46.7237 
  334000    131.73547   -10445.541   -9250.6202    -517.0204     102002.7      46.7237      46.7237      46.7237 
  335000    130.58126   -10445.658   -9261.2065    -580.3577     102002.7      46.7237      46.7237      46.7237 
  336000    131.58824   -10439.703   -9246.1182   -252.45231     102002.7      46.7237      46.7237      46.7237 
  337000    131.43824   -10428.344   -9236.1201   -426.38622     102002.7      46.7237      46.7237      46.7237 
  338000    131.03138   -10455.327   -9266.7926    -508.6372     102002.7      46.7237      46.7237      46.7237 
  339000    129.65375   -10454.283   -9278.2453   -748.82246     102002.7      46.7237      46.7237      46.7237 
  340000    130.63467    -10423.77   -9238.8344   -666.46941     102002.7      46.7237      46.7237      46.7237 
  341000    129.38972   -10427.127    -9253.484   -254.66074     102002.7      46.7237      46.7237      46.7237 
  342000     126.9615   -10440.609   -9288.9915    -686.8577     102002.7      46.7237      46.7237      46.7237 
  343000    132.01059   -10445.107   -9247.6914    -641.3205     102002.7      46.7237      46.7237      46.7237 
  344000    133.05815   -10448.208     -9241.29   -639.13044     102002.7      46.7237      46.7237      46.7237 
  345000    129.27108   -10464.696    -9292.129   -569.69814     102002.7      46.7237      46.7237      46.7237 
  346000    126.28032   -10427.246   -9281.8075   -467.51256     102002.7      46.7237      46.7237      46.7237 
  347000    130.52075   -10426.346   -9242.4437   -277.32625     102002.7      46.7237      46.7237      46.7237 
  348000    128.95115   -10394.861   -9225.1965    -588.3433     102002.7      46.7237      46.7237      46.7237 
  349000    128.88215   -10441.368   -9272.3294   -646.17084     102002.7      46.7237      46.7237      46.7237 
  350000    132.68987   -10459.079   -9255.5011   -280.51779     102002.7      46.7237      46.7237      46.7237 
  351000    128.40781   -10457.046   -9292.3097   -663.80481     102002.7      46.7237      46.7237      46.7237 
  352000     130.9644   -10445.983   -9258.0563   -545.87967     102002.7      46.7237      46.7237      46.7237 
  353000    127.09328   -10417.781   -9264.9683   -583.28576     102002.7      46.7237      46.7237      46.7237 
  354000    129.85227   -10445.018   -9267.1798   -941.40396     102002.7      46.7237      46.7237      46.7237 
  355000    131.38622   -10468.793   -9277.0403   -871.57364     102002.7      46.7237      46.7237      46.7237 
  356000     126.5041   -10461.709     -9314.24   -645.07566     102002.7      46.7237      46.7237      46.7237 
  357000    129.93198   -10437.399   -9258.8369    -748.4493     102002.7      46.7237      46.7237      46.7237 
  358000    127.88194   -10464.259   -9304.2926   -732.50571     102002.7      46.7237      46.7237      46.7237 
  359000    130.38655   -10439.884   -9257.1993   -623.19979     102002.7      46.7237      46.7237      46.7237 
  360000    132.31517   -10438.167   -9237.9882   -530.46246     102002.7      46.7237      46.7237      46.7237 
  361000    127.71754   -10429.439    -9270.964   -671.72905     102002.7      46.7237      46.7237      46.7237 
  362000    128.84891   -10442.932   -9274.1941   -842.28703     102002.7      46.7237      46.7237      46.7237 
  363000    132.44728   -10410.232    -9208.855   -569.69061     102002.7      46.7237      46.7237      46.7237 
  364000    130.70085   -10451.791   -9266.2548   -563.93387     102002.7      46.7237      46.7237      46.7237 
  365000    128.33187     -10429.3   -9265.2519   -455.93487     102002.7      46.7237      46.7237      46.7237 
  366000    131.08795   -10423.415   -9234.3676   -756.32328     102002.7      46.7237      46.7237      46.7237 
  367000    130.26243   -10447.257   -9265.6974   -713.45542     102002.7      46.7237      46.7237      46.7237 
  368000    131.61936   -10455.688   -9261.8212   -699.89574     102002.7      46.7237      46.7237      46.7237 
  369000    131.78053   -10461.279     -9265.95   -433.58054     102002.7      46.7237      46.7237      46.7237 
  370000    127.68344   -10441.328   -9283.1616   -496.21549     102002.7      46.7237      46.7237      46.7237 
  371000    131.03878   -10449.656   -9261.0552   -571.22111     102002.7      46.7237      46.7237      46.7237 
  372000    131.10571   -10458.017   -9268.8088   -898.50207     102002.7      46.7237      46.7237      46.7237 
  373000    130.25796   -10432.793   -9251.2741   -549.97599     102002.7      46.7237      46.7237      46.7237 
  374000    131.67212   -10457.714    -9263.368   -589.76744     102002.7      46.7237      46.7237      46.7237 
  375000     127.0523   -10459.213    -9306.772   -782.13273     102002.7      46.7237      46.7237      46.7237 
  376000    129.16083   -10461.157     -9289.59   -836.85451     102002.7      46.7237      46.7237      46.7237 
  377000    131.47371   -10460.393   -9267.8473   -572.01857     102002.7      46.7237      46.7237      46.7237 
  378000    130.14533   -10453.709   -9273.2124   -701.55457     102002.7      46.7237      46.7237      46.7237 
  379000    132.02168   -10489.729   -9292.2128   -917.79755     102002.7      46.7237      46.7237      46.7237 
  380000    133.25933   -10408.238   -9199.4953   -184.54534     102002.7      46.7237      46.7237      46.7237 
  381000    128.03095   -10449.743   -9288.4249   -718.97278     102002.7      46.7237      46.7237      46.7237 
  382000    126.61855     -10460.3    -9311.793   -696.76082     102002.7      46.7237      46.7237      46.7237 
  383000    130.29881   -10467.821   -9285.9324   -796.53514     102002.7      46.7237      46.7237      46.7237 
  384000    129.46585   -10414.856   -9240.5219   -289.74175     102002.7      46.7237      46.7237      46.7237 
  385000    128.01019    -10452.51   -9291.3804   -308.29478     102002.7      46.7237      46.7237      46.7237 
  386000    129.96106   -10444.255   -9265.4296   -800.52328     102002.7      46.7237      46.7237      46.7237 
  387000    129.93576   -10457.751   -9279.1553    -514.2765     102002.7      46.7237      46.7237      46.7237 
  388000    135.08817   -10441.815   -9216.4834   -487.78264     102002.7      46.7237      46.7237      46.7237 
  389000    129.78804   -10436.909   -9259.6534   -468.16438     102002.7      46.7237      46.7237      46.7237 
  390000    127.49044   -10456.052   -9299.6365   -361.45542     102002.7      46.7237      46.7237      46.7237 
  391000    133.20464   -10460.114   -9251.8678   -850.14539     102002.7      46.7237      46.7237      46.7237 
  392000    128.26021   -10451.556   -9288.1581    -377.8975     102002.7      46.7237      46.7237      46.7237 
  393000    126.71031   -10435.928   -9286.5887   -666.37742     102002.7      46.7237      46.7237      46.7237 
  394000     130.5303   -10444.027   -9260.0381   -684.28248     102002.7      46.7237      46.7237      46.7237 
  395000     131.1518   -10425.805   -9236.1792   -629.62096     102002.7      46.7237      46.7237      46.7237 
  396000    130.01989   -10458.192    -9278.833   -861.25326     102002.7      46.7237      46.7237      46.7237 
  397000    131.20123   -10445.418   -9255.3436   -560.02381     102002.7      46.7237      46.7237      46.7237 
  398000    128.41832   -10410.383   -9245.5513   -493.44271     102002.7      46.7237      46.7237      46.7237 
  399000    128.68563   -10410.738   -9243.4819   -847.12145     102002.7      46.7237      46.7237      46.7237 
  400000    133.43458   -10440.674   -9230.3416   -715.75338     102002.7      46.7237      46.7237      46.7237 
  401000    129.17647   -10425.461   -9253.7524   -1146.2339     102002.7      46.7237      46.7237      46.7237 
  402000    128.07984   -10475.049   -9313.2869   -802.32422     102002.7      46.7237      46.7237      46.7237 
  403000    127.29823    -10425.15   -9270.4781    -682.8758     102002.7      46.7237      46.7237      46.7237 
  404000    129.90976   -10454.304   -9275.9438   -1031.5605     102002.7      46.7237      46.7237      46.7237 
  405000    129.81078   -10471.644   -9294.1819   -466.17226     102002.7      46.7237      46.7237      46.7237 
  406000    127.74257   -10431.687   -9272.9844   -518.40665     102002.7      46.7237      46.7237      46.7237 
  407000    130.33563   -10444.928   -9262.7051   -300.45237     102002.7      46.7237      46.7237      46.7237 
  408000    128.31624   -10470.407   -9306.5006   -471.95579     102002.7      46.7237      46.7237      46.7237 
  409000    128.57825   -10442.347   -9276.0642   -303.19454     102002.7      46.7237      46.7237      46.7237 
  410000    127.40183   -10445.445   -9289.8338    -443.4077     102002.7      46.7237      46.7237      46.7237 
  411000    129.98484   -10430.923   -9251.8822   -466.65989     102002.7      46.7237      46.7237      46.7237 
  412000    132.38217   -10455.895   -9255.1087   -812.33481     102002.7      46.7237      46.7237      46.7237 
  413000    129.53047   -10449.607   -9274.6876   -357.20087     102002.7      46.7237      46.7237      46.7237 
  414000    127.46013   -10459.453   -9303.3122   -660.81606     102002.7      46.7237      46.7237      46.7237 
  415000    135.40737   -10461.634    -9233.407   -556.19249     102002.7      46.7237      46.7237      46.7237 
  416000    129.64863   -10424.436    -9248.444   -595.03979     102002.7      46.7237      46.7237      46.7237 
  417000     131.2243   -10433.398   -9243.1141   -618.63837     102002.7      46.7237      46.7237      46.7237 
  418000    130.61592   -10408.407   -9223.6413      -679.04     102002.7      46.7237      46.7237      46.7237 
  419000    131.57511   -10445.545   -9252.0791   -819.36459     102002.7      46.7237      46.7237      46.7237 
  420000    124.92205   -10451.161   -9318.0424   -479.80065     102002.7      46.7237      46.7237      46.7237 
  421000    131.44737   -10431.634   -9239.3273    -416.6978     102002.7      46.7237      46.7237      46.7237 
  422000    124.78799   -10437.969   -9306.0665   -906.59048     102002.7      46.7237      46.7237      46.7237 
  423000    129.81215   -10432.556   -9255.0815   -595.73559     102002.7      46.7237      46.7237      46.7237 
  424000    130.41191   -10411.809   -9228.8942   -903.39812     102002.7      46.7237      46.7237      46.7237 
  425000    130.78418   -10465.784   -9279.4921   -931.47787     102002.7      46.7237      46.7237      46.7237 
  426000    128.72073   -10438.085   -9270.5097   -659.68216     102002.7      46.7237      46.7237      46.7237 
  427000    130.80146   -10428.607   -9242.1584   -984.88075     102002.7      46.7237      46.7237      46.7237 
  428000    132.27364   -10442.235    -9242.433   -569.61396     102002.7      46.7237      46.7237      46.7237 
  429000    131.79581   -10437.108   -9241.6404   -861.80368     102002.7      46.7237      46.7237      46.7237 
  430000    127.64807   -10442.556   -9284.7106   -804.74922     102002.7      46.7237      46.7237      46.7237 
  431000    132.15769   -10422.317   -9223.5669   -591.69579     102002.7      46.7237      46.7237      46.7237 
  432000    131.62118   -10429.203   -9235.3193   -784.37347     102002.7      46.7237      46.7237      46.7237 
  433000    128.93612   -10459.342   -9289.8137   -997.95714     102002.7      46.7237      46.7237      46.7237 
  434000     130.0029   -10411.306   -9232.1007   -692.20852     102002.7      46.7237      46.7237      46.7237 
  435000      126.165   -10412.893   -9268.5001   -456.20514     102002.7      46.7237      46.7237      46.7237 
  436000    128.19429   -10466.685   -9303.8854   -560.21156     102002.7      46.7237      46.7237      46.7237 
  437000    132.43572   -10468.981   -9267.7087   -823.48432     102002.7      46.7237      46.7237      46.7237 
  438000     131.1207   -10440.039    -9250.695   -756.76273     102002.7      46.7237      46.7237      46.7237 
  439000    129.80551   -10439.173   -9261.7581   -523.72612     102002.7      46.7237      46.7237      46.7237 
  440000    129.39726   -10456.383   -9282.6715   -938.21645     102002.7      46.7237      46.7237      46.7237 
  441000    127.09418   -10437.979   -9285.1577   -702.19546     102002.7      46.7237      46.7237      46.7237 
  442000    126.92677   -10447.601   -9296.2986   -301.47331     102002.7      46.7237      46.7237      46.7237 
  443000    130.59775   -10430.484   -9245.8835   -762.36093     102002.7      46.7237      46.7237      46.7237 
  444000    132.98107   -10435.129     -9228.91   -764.04782     102002.7      46.7237      46.7237      46.7237 
  445000    125.48801   -10455.991   -9317.7391   -709.98917     102002.7      46.7237      46.7237      46.7237 
  446000    132.22363    -10434.09   -9234.7413   -271.73993     102002.7      46.7237      46.7237      46.7237 
  447000    128.29472   -10440.365   -9276.6546   -620.11141     102002.7      46.7237      46.7237      46.7237 
  448000    130.21406   -10423.473   -9242.3526   -457.17941     102002.7      46.7237      46.7237      46.7237 
  449000    129.19236   -10460.147   -9288.2938   -567.72296     102002.7      46.7237      46.7237      46.7237 
  450000    130.58065   -10447.881   -9263.4357   -449.79172     102002.7      46.7237      46.7237      46.7237 
  451000    131.72292    -10453.75   -9258.9434   -948.03531     102002.7      46.7237      46.7237      46.7237 
  452000    131.78541   -10433.368   -9237.9943   -813.77962     102002.7      46.7237      46.7237      46.7237 
  453000    133.92137   -10446.384   -9231.6365   -603.65793     102002.7      46.7237      46.7237      46.7237 
  454000    130.05024   -10441.575   -9261.9402   -691.59221     102002.7      46.7237      46.7237      46.7237 
  455000    132.24279   -10442.762   -9243.2402   -958.30832     102002.7      46.7237      46.7237      46.7237 
  456000    127.79407   -10433.878   -9274.7085   -668.51398     102002.7      46.7237      46.7237      46.7237 
  457000    129.70495   -10417.375   -9240.8722   -742.01603     102002.7      46.7237      46.7237      46.7237 
  458000    130.69373   -10444.711   -9259.2397   -680.33942     102002.7      46.7237      46.7237      46.7237 
  459000    131.04408   -10457.186   -9268.5373   -570.83843     102002.7      46.7237      46.7237      46.7237 
  460000     131.8974   -10414.491   -9218.1016    -783.4359     102002.7      46.7237      46.7237      46.7237 
  461000    130.23791   -10453.981   -9272.6446   -698.33997     102002.7      46.7237      46.7237      46.7237 
  462000    126.49703   -10436.112   -9288.7072   -460.28978     102002.7      46.7237      46.7237      46.7237 
  463000    129.34179   -10440.372   -9267.1641    -515.0867     102002.7      46.7237      46.7237      46.7237 
  464000    130.85567   -10424.352   -9237.4122   -646.55415     102002.7      46.7237      46.7237      46.7237 
  465000    129.44385   -10452.286   -9278.1524   -419.57606     102002.7      46.7237      46.7237      46.7237 
  466000    131.02698   -10467.488   -9278.9945   -574.17237     102002.7      46.7237      46.7237      46.7237 
  467000    131.89481   -10450.822    -9254.456   -474.71316     102002.7      46.7237      46.7237      46.7237 
  468000    127.87374   -10434.034   -9274.1419   -456.66705     102002.7      46.7237      46.7237      46.7237 
  469000    129.72027   -10440.545   -9263.9032   -973.89765     102002.7      46.7237      46.7237      46.7237 
  470000    131.79984   -10438.735   -9243.2309   -594.51095     102002.7      46.7237      46.7237      46.7237 
  471000    134.34015    -10433.82   -9215.2733    -652.5693     102002.7      46.7237      46.7237      46.7237 
  472000     131.8141   -10422.583   -9226.9495   -759.37262     102002.7      46.7237      46.7237      46.7237 
  473000    128.58869   -10403.904   -9237.5269   -937.24031     102002.7      46.7237      46.7237      46.7237 
  474000    126.07661   -10461.876   -9318.2853    -666.5526     102002.7      46.7237      46.7237      46.7237 
  475000     128.3933   -10426.006   -9261.4008   -895.97413     102002.7      46.7237      46.7237      46.7237 
  476000    130.65195    -10436.46   -9251.3679    -513.5534     102002.7      46.7237      46.7237      46.7237 
  477000    127.05549   -10439.117    -9286.647   -682.95786     102002.7      46.7237      46.7237      46.7237 
  478000    130.33617   -10442.142   -9259.9138   -701.38433     102002.7      46.7237      46.7237      46.7237 
  479000    129.24699   -10436.945   -9264.5967   -590.49881     102002.7      46.7237      46.7237      46.7237 
  480000    127.03807   -10395.842   -9243.5299   -739.56307     102002.7      46.7237      46.7237      46.7237 
  481000     133.0849   -10427.429   -9220.2682   -366.71426     102002.7      46.7237      46.7237      46.7237 
  482000    134.07681   -10451.741   -9235.5832   -921.96047     102002.7      46.7237      46.7237      46.7237 
  483000    129.45858   -10458.168   -9283.9004   -901.79746     102002.7      46.7237      46.7237      46.7237 
  484000    128.29788   -10424.593   -9260.8539   -874.68428     102002.7      46.7237      46.7237      46.7237 
  485000    127.31061   -10430.943   -9276.1585   -658.57482     102002.7      46.7237      46.7237      46.7237 
  486000    128.56167   -10420.175   -9254.0426   -719.61048     102002.7      46.7237      46.7237      46.7237 
  487000    130.88887   -10441.978   -9254.7371   -792.76732     102002.7      46.7237      46.7237      46.7237 
  488000    129.03175   -10405.513   -9235.1169   -544.72229     102002.7      46.7237      46.7237      46.7237 
  489000    129.19532   -10433.894   -9262.0142   -525.93073     102002.7      46.7237      46.7237      46.7237 
  490000    129.25405   -10454.018   -9281.6055   -503.29475     102002.7      46.7237      46.7237      46.7237 
  491000    130.66926   -10424.621   -9239.3713   -516.40202     102002.7      46.7237      46.7237      46.7237 
  492000    130.35717   -10460.576   -9278.1571   -568.61284     102002.7      46.7237      46.7237      46.7237 
  493000    133.40728   -10402.788   -9192.7033   -488.61633     102002.7      46.7237      46.7237      46.7237 
  494000    131.92149   -10479.504   -9282.8965   -624.05904     102002.7      46.7237      46.7237      46.7237 
  495000     133.8492    -10460.29   -9246.1966   -621.30586     102002.7      46.7237      46.7237      46.7237 
  496000    130.78173   -10430.931   -9244.6619   -589.16763     102002.7      46.7237      46.7237      46.7237 
  497000    132.41449   -10435.312   -9234.2328   -446.90346     102002.7      46.7237      46.7237      46.7237 
  498000    130.83994   -10452.357   -9265.5591   -618.79379     102002.7      46.7237      46.7237      46.7237 
  499000    129.10151   -10436.971   -9265.9419   -935.44037     102002.7      46.7237      46.7237      46.7237 
  500000    128.16881   -10433.049   -9270.4803   -988.19755     102002.7      46.7237      46.7237      46.7237 
  500500     129.7005   -10460.431    -9283.969   -658.70893     102002.7      46.7237      46.7237      46.7237 
Loop time of 1756.55 on 16 procs for 500000 steps with 3044 atoms

Performance: 24.594 ns/day, 0.976 hours/ns, 284.649 timesteps/s
99.8% CPU use with 16 MPI tasks x no OpenMP threads

MPI task timing breakdown:
Section |  min time  |  avg time  |  max time  |%varavg| %total
---------------------------------------------------------------
Pair    | 914.04     | 1089       | 1210       | 240.6 | 62.00
Bond    | 151.79     | 174.3      | 199.64     | 122.6 |  9.92
Neigh   | 16.56      | 16.605     | 16.636     |   0.7 |  0.95
Comm    | 358.24     | 459.51     | 618.81     | 330.0 | 26.16
Output  | 0.02176    | 0.022169   | 0.025568   |   0.6 |  0.00
Modify  | 10.041     | 10.404     | 10.932     |   9.8 |  0.59
Other   |            | 6.68       |            |       |  0.38

Nlocal:    190.25 ave 224 max 154 min
Histogram: 3 1 2 2 0 0 0 0 6 2
Nghost:    3872.75 ave 3916 max 3838 min
Histogram: 4 2 2 1 0 1 0 2 2 2
Neighs:    11450.7 ave 14124 max 8006 min
Histogram: 1 0 2 1 1 4 1 3 2 1

Total # of neighbors = 183211
Ave neighs/atom = 60.1876
Ave special neighs/atom = 3.78449
Neighbor list builds = 5185
Dangerous builds = 0
Neighbor list info ...
  update every 1 steps, delay 10 steps, check yes
  max neighbors/atom: 2000, page size: 100000
  master list distance cutoff = 16
  ghost atom cutoff = 16
  binsize = 8, bins = 6 6 6
  3 neighbor lists, perpetual/occasional/extra = 3 0 0
  (1) pair buck6d/coul/gauss/dsf, perpetual, skip from (3)
      attributes: half, newton on
      pair build: skip
      stencil: none
      bin: none
  (2) pair lj/cut, perpetual, skip from (3)
      attributes: half, newton on
      pair build: skip
      stencil: none
      bin: none
  (3) neighbor class addition, perpetual
      attributes: half, newton on
      pair build: half/bin/newton
      stencil: half/bin/3d/newton
      bin: standard
Setting up Verlet run ...
  Unit style    : real
  Current step  : 500500
  Time step     : 1
WARNING: Inconsistent image flags (../domain.cpp:786)
Per MPI rank memory allocation (min/avg/max) = 22.97 | 23.38 | 23.43 Mbytes
Step Time TotEng KinEng PotEng E_mol E_pair Temp Pxx Pyy Pzz Pxy Pxz Pyz Cella Cellb Cellc CellAlpha CellBeta CellGamma Volume Press 
  500500       500000    -9283.969     1176.462   -10460.431    4385.6765   -14846.108     129.7005   -586.62614   -598.28076    -791.2199   -5.2454783    362.27288    170.61305      46.7237      46.7237      46.7237           90           90           90     102002.7   -658.70893 
  501000       500500   -9284.2863    1179.0778   -10463.364    4383.3814   -14846.745    129.98888   -592.77743   -356.80331    -380.4068   -118.22834   -118.72041    35.788261      46.7237      46.7237      46.7237           90           90           90     102002.7   -443.32918 
  502000       501500   -9250.2806    1194.5652   -10444.846    4398.8154   -14843.661    131.69631   -882.86016   -457.56012   -279.30013    114.64468   -60.377784      301.165      46.7237      46.7237      46.7237           90           90           90     102002.7    -539.9068 
  503000       502500   -9275.8088    1188.7627   -10464.572    4392.5345   -14857.106     131.0566   -630.17866   -522.45971   -726.30889     121.7567    232.93379   -131.00013      46.7237      46.7237      46.7237           90           90           90     102002.7   -626.31575 
  504000       503500   -9257.0676    1170.8242   -10427.892    4400.2103   -14828.102    129.07896   -616.70466    -873.6776    -516.1095    142.20448    164.57787    48.687989      46.7237      46.7237      46.7237           90           90           90     102002.7   -668.83059 
  505000       504500   -9272.3669     1191.905   -10464.272    4379.6278     -14843.9    131.40304    -706.4444   -535.25564   -616.72519   -398.76131    81.327065   -328.35579      46.7237      46.7237      46.7237           90           90           90     102002.7   -619.47508 
  506000       505500   -9260.8547    1157.0205   -10417.875    4391.6908   -14809.566    127.55714   -428.11289   -64.711113    24.328341    139.54112    165.21003    57.819152      46.7237      46.7237      46.7237           90           90           90     102002.7   -156.16522 
  507000       506500   -9229.8846    1179.9311   -10409.816    4391.0752   -14800.891    130.08295   -847.30314   -205.47386   -1013.2442    81.945169   -37.497229    223.42869      46.7237      46.7237      46.7237           90           90           90     102002.7   -688.67374 
  508000       507500   -9274.1059    1209.3926   -10483.499    4362.0394   -14845.538    133.33098   -803.55317   -387.64951   -354.78926   -232.04985    200.25382   -83.594832      46.7237      46.7237      46.7237           90           90           90     102002.7   -515.33064 
  509000       508500   -9287.5055    1177.6542    -10465.16    4358.6717   -14823.831    129.83194   -430.19119   -627.42614   -1021.0056     -121.153    140.17622   -53.436316      46.7237      46.7237      46.7237           90           90           90     102002.7   -692.87432 
  510000       509500   -9263.4912     1179.798   -10443.289    4402.3182   -14845.607    130.06828   -499.05103   -284.11248    -542.3775    77.966527   -100.25953    56.850937      46.7237      46.7237      46.7237           90           90           90     102002.7     -441.847 
  511000       510500   -9265.8984    1162.8824   -10428.781    4414.4699   -14843.251     128.2034   -626.19434   -215.48322   -502.52829    112.89907   -32.425597   -388.15005      46.7237      46.7237      46.7237           90           90           90     102002.7   -448.06862 
  512000       511500   -9259.1277     1166.803   -10425.931    4396.4796    -14822.41    128.63564   -942.58304   -871.93105   -669.52009   -9.0985954   -5.4707849   -24.965014      46.7237      46.7237      46.7237           90           90           90     102002.7    -828.0114 
  513000       512500    -9241.176    1177.6733   -10418.849     4399.053   -14817.902    129.83405   -858.31428   -372.26773   -672.20551    11.606634    -92.05788     274.5784      46.7237      46.7237      46.7237           90           90           90     102002.7   -634.26251 
  514000       513500   -9262.2228    1166.3597   -10428.582    4415.2871    -14843.87    128.58675   -788.77561   -497.24535   -1446.7972    122.94953   -158.67341    103.70647      46.7237      46.7237      46.7237           90           90           90     102002.7   -910.93937 
  515000       514500    -9263.741    1200.7886    -10464.53    4362.0115   -14826.541    132.38241   -688.65184   -732.24299   -1169.5662    247.04766    89.069187    55.778184      46.7237      46.7237      46.7237           90           90           90     102002.7   -863.48701 
  516000       515500   -9300.9416    1155.3854   -10456.327    4387.4204   -14843.747    127.37688   -387.87627   -253.49127   -876.16891   -14.291773    5.5373742   -88.963795      46.7237      46.7237      46.7237           90           90           90     102002.7   -505.84548 
  517000       516500   -9261.1439    1151.8873   -10413.031    4421.2146   -14834.246    126.99123   -692.96849   -484.25505   -1261.4316   -232.97371    -77.96013   -132.07961      46.7237      46.7237      46.7237           90           90           90     102002.7   -812.88506 
  518000       517500   -9246.4665    1188.8627   -10435.329    4386.9161   -14822.245    131.06763   -852.19042   -359.91929   -497.82106    186.76587    50.681679   -212.43813      46.7237      46.7237      46.7237           90           90           90     102002.7   -569.97692 
  519000       518500   -9304.7148    1161.9079   -10466.623    4382.6937   -14849.316    128.09597   -741.11719   -499.05224   -902.67489   -157.43474    65.075539   -82.672747      46.7237      46.7237      46.7237           90           90           90     102002.7   -714.28144 
  520000       519500   -9262.4552    1180.5471   -10443.002    4371.9794   -14814.982    130.15087   -918.18604   -543.29485   -655.69992    49.260747     66.76995   -87.732601      46.7237      46.7237      46.7237           90           90           90     102002.7   -705.72693 
  521000       520500   -9239.1804     1189.859   -10429.039    4423.8306    -14852.87    131.17747   -811.28333   -250.87808   -812.13865    150.84221   -115.77151    44.054013      46.7237      46.7237      46.7237           90           90           90     102002.7   -624.76668 
  522000       521500   -9268.9887    1175.2243   -10444.213    4388.7886   -14833.002    129.56405    -294.3718   -897.84419   -804.90028    125.19595    17.273876   -97.724534      46.7237      46.7237      46.7237           90           90           90     102002.7   -665.70542 
  523000       522500   -9238.0257    1201.0058   -10439.032    4397.9438   -14836.975    132.40636   -315.82234   -36.857539   -888.24363   -48.636394    242.37606   -32.188124      46.7237      46.7237      46.7237           90           90           90     102002.7   -413.64117 
  524000       523500   -9269.3657     1184.539   -10453.905    4401.8541   -14855.759    130.59095   -31.872138   -593.00356   -888.22801   -150.98203    176.80906    69.575337      46.7237      46.7237      46.7237           90           90           90     102002.7    -504.3679 
  525000       524500   -9270.4794    1178.5781   -10449.057    4404.2306   -14853.288    129.93379   -1141.6897   -445.25931   -756.77589   -142.10623    124.66957   -24.564383      46.7237      46.7237      46.7237           90           90           90     102002.7   -781.24164 
  526000       525500    -9224.747    1226.1767   -10450.924    4387.3726   -14838.296    135.18136    -466.5014   -706.72055   -772.53888    38.406176   -81.610014    113.90282      46.7237      46.7237      46.7237           90           90           90     102002.7   -648.58695 
  527000       526500   -9250.7156    1182.0452   -10432.761    4403.2814   -14836.042    130.31603   -162.11542   -519.96349   -1272.2555    9.4941632   -453.02959   -317.38868      46.7237      46.7237      46.7237           90           90           90     102002.7   -651.44481 
  528000       527500   -9256.2287    1198.2014    -10454.43    4382.9308   -14837.361    132.09719   -899.93869   -989.46314   -494.00913    184.83014     -153.524   -221.09594      46.7237      46.7237      46.7237           90           90           90     102002.7   -794.47032 
  529000       528500    -9281.725    1157.3821   -10439.107    4389.5847   -14828.692    127.59702   -473.65113   -420.65816   -833.18363    100.14241   -156.82187    173.80949      46.7237      46.7237      46.7237           90           90           90     102002.7   -575.83097 
  530000       529500   -9270.6112    1160.5663   -10431.177    4381.9338   -14813.111    127.94805   -649.14422   -174.99277   -746.44675   -203.87857   -62.259094    127.36763      46.7237      46.7237      46.7237           90           90           90     102002.7   -523.52791 
  531000       530500   -9264.6919    1163.7036   -10428.396    4387.0287   -14815.424    128.29394   -651.46407   -799.13559   -601.83716    279.29168   -63.795801   -115.49415      46.7237      46.7237      46.7237           90           90           90     102002.7   -684.14561 
  532000       531500   -9297.0476    1137.6268   -10434.674    4402.0831   -14836.757    125.41906   -776.28287   -503.89811   -913.50259   -58.184841    49.734454   -6.8864742      46.7237      46.7237      46.7237           90           90           90     102002.7   -731.22786 
  533000       532500   -9200.6052    1203.2842   -10403.889    4405.5606    -14809.45    132.65754   -767.11818   -862.80316   -1047.0538   -40.526547    39.969522    293.01243      46.7237      46.7237      46.7237           90           90           90     102002.7   -892.32504 
  534000       533500    -9277.201    1176.1951   -10453.396    4376.5497   -14829.946    129.67108   -342.29993   -780.42559   -179.97584   -81.602096   -196.10317    188.81125      46.7237      46.7237      46.7237           90           90           90     102002.7   -434.23379 
  535000       534500   -9229.6663    1210.2337     -10439.9     4390.159   -14830.059     133.4237   -1092.8795    21.622098   -969.84906   -315.73026    321.57268   -232.17104      46.7237      46.7237      46.7237           90           90           90     102002.7   -680.36883 
  536000       535500   -9304.3334    1149.9531   -10454.287    4370.3746   -14824.661      126.778   -713.12653   -347.32288   -730.23521    205.53001    70.799532    206.96198      46.7237      46.7237      46.7237           90           90           90     102002.7   -596.89487 
  537000       536500    -9275.483    1165.0148   -10440.498    4365.9384   -14806.436    128.43849   -403.66373   -613.81355   -243.63828   -118.23464    85.893347   -86.895881      46.7237      46.7237      46.7237           90           90           90     102002.7   -420.37185 
  538000       537500   -9258.2407    1183.6364   -10441.877    4389.3496   -14831.227    130.49145   -932.77439   -123.08336   -585.25637   -22.227402   -259.49132   -189.53952      46.7237      46.7237      46.7237           90           90           90     102002.7   -547.03804 
  539000       538500   -9277.7037    1180.1135   -10457.817    4359.5829     -14817.4    130.10307   -374.39722   -555.75535   -297.48325   -185.22982    258.79712     40.53782      46.7237      46.7237      46.7237           90           90           90     102002.7   -409.21194 
  540000       539500   -9199.0984     1209.727   -10408.825    4424.7723   -14833.598    133.36784   -946.97328    -1254.173   -749.66434    307.15094    60.185829   -327.76514      46.7237      46.7237      46.7237           90           90           90     102002.7   -983.60355 
  541000       540500   -9269.4333    1184.5938   -10454.027    4409.2675   -14863.295      130.597   -524.96254   -778.78223   -977.04931    69.514625    447.51292    290.60881      46.7237      46.7237      46.7237           90           90           90     102002.7   -760.26469 
  542000       541500   -9277.3332    1184.9301   -10462.263    4396.5392   -14858.802    130.63408   -646.67858   -666.15168   -500.74914   -27.184628    78.863552      189.432      46.7237      46.7237      46.7237           90           90           90     102002.7   -604.52647 
  543000       542500   -9305.2542    1141.5334   -10446.788    4399.6598   -14846.447    125.84976   -796.29625   -759.58444   -1254.5341   -172.23799    52.223199   -89.348306      46.7237      46.7237      46.7237           90           90           90     102002.7   -936.80492 
  544000       543500   -9233.5806    1186.5757   -10420.156    4393.4038    -14813.56     130.8155   -548.00204   -344.14328   -625.97571    128.12305   -12.199767    -118.0061      46.7237      46.7237      46.7237           90           90           90     102002.7   -506.04034 
  545000       544500   -9262.1395     1179.184   -10441.324     4396.742   -14838.066     130.0006   -707.16452   -566.90684   -279.87882    -133.4596   -62.931888   -103.74357      46.7237      46.7237      46.7237           90           90           90     102002.7    -517.9834 
  546000       545500   -9279.9697    1175.8737   -10455.843    4386.5894   -14842.433    129.63564   -456.87658   -1134.2917   -469.83392    -197.9923   -46.510968   -56.544665      46.7237      46.7237      46.7237           90           90           90     102002.7   -687.00074 
  547000       546500   -9233.6101    1189.5757   -10423.186    4430.8544    -14854.04    131.14624   -399.59183   -679.71135   -875.92813    75.982059   -6.9490092   -1.8969052      46.7237      46.7237      46.7237           90           90           90     102002.7   -651.74377 
  548000       547500   -9258.7049    1176.0856    -10434.79     4411.145   -14845.935    129.65901   -1004.6982   -742.78722   -1200.6882   -96.612616    88.759819    108.73652      46.7237      46.7237      46.7237           90           90           90     102002.7   -982.72452 
  549000       548500   -9247.9408    1211.1363   -10459.077     4388.938   -14848.015    133.52321   -456.00051   -578.82773   -611.35584    20.588183      -105.06    120.82638      46.7237      46.7237      46.7237           90           90           90     102002.7   -548.72803 
  550000       549500   -9251.0934    1184.8302   -10435.924    4412.0391   -14847.963    130.62306   -564.77475   -782.49761   -458.36663    42.002638    86.000751    86.727079      46.7237      46.7237      46.7237           90           90           90     102002.7   -601.87966 
  551000       550500    -9276.331    1174.5429   -10450.874    4396.6021   -14847.476    129.48893   -1129.6844   -695.78375   -975.03124    -202.9065   -87.002844    66.708723      46.7237      46.7237      46.7237           90           90           90     102002.7   -933.49978 
  552000       551500   -9302.8221    1154.8312   -10457.653    4381.7106   -14839.364    127.31578   -767.19182   -766.18278   -698.52684    41.516109   -134.72999   -17.226455      46.7237      46.7237      46.7237           90           90           90     102002.7   -743.96715 
  553000       552500   -9237.5691    1206.0092   -10443.578    4386.0648   -14829.643    132.95796   -1014.0909   -757.23426   -1176.5763     214.7966   -99.328047      51.4449      46.7237      46.7237      46.7237           90           90           90     102002.7   -982.63383 
  554000       553500   -9243.8255    1181.4853   -10425.311    4400.0032   -14825.314     130.2543   -991.67979   -796.92646   -404.88871        168.6   -86.756406   -79.894093      46.7237      46.7237      46.7237           90           90           90     102002.7   -731.16499 
  555000       554500   -9232.5971    1193.8768   -10426.474    4413.7366   -14840.211    131.62041   -1136.2872    -909.0005   -470.77043   -114.79969   -48.381055   -164.62141      46.7237      46.7237      46.7237           90           90           90     102002.7   -838.68606 
[...]
  936000       935500   -9272.7494    1152.7389   -10425.488    4392.4388   -14817.927    127.08511   -188.47709    -921.4254   -556.61159   -148.65053   -167.39036   -76.194238      46.7237      46.7237      46.7237           90           90           90     102002.7   -555.50469 
  937000       936500    -9297.928    1169.6584   -10467.586     4374.945   -14842.531    128.95043   -571.42368   -688.18876    -836.3016   -265.36329    134.18301   -169.61049      46.7237      46.7237      46.7237           90           90           90     102002.7   -698.63801 
  938000       937500   -9272.7002    1161.6122   -10434.312    4396.7928   -14831.105    128.06336   -461.05167   -381.12028    -534.4447     8.701477   -181.36038    187.62356      46.7237      46.7237      46.7237           90           90           90     102002.7   -458.87222 
  939000       938500   -9265.1435    1174.4817   -10439.625    4390.0411   -14829.666    129.48218    -465.0092   -874.10683   -888.92279    13.322004   -323.89354    22.121129      46.7237      46.7237      46.7237           90           90           90     102002.7   -742.67961 
  940000       939500   -9236.9449    1188.8136   -10425.759    4382.3518    -14808.11    131.06222   -794.20946   -1093.5307   -664.63937    119.94625   -105.78515     174.4659      46.7237      46.7237      46.7237           90           90           90     102002.7   -850.79319 
  941000       940500   -9273.1597    1179.6384   -10452.798    4386.8802   -14839.678    130.05068   -698.65787   -1123.1803   -933.65007   -51.876408   -209.87866    102.93543      46.7237      46.7237      46.7237           90           90           90     102002.7   -918.49607 
  942000       941500   -9229.1573     1201.796   -10430.953    4388.2489   -14819.202    132.49348   -483.52837    -873.4092   -459.87335    73.473936    30.135046   -151.32833      46.7237      46.7237      46.7237           90           90           90     102002.7   -605.60364 
  943000       942500   -9236.7815    1184.2371   -10421.019    4402.7025   -14823.721    130.55767   -606.78838   -961.91491   -607.98447     31.40495    268.98583    58.902056      46.7237      46.7237      46.7237           90           90           90     102002.7   -725.56259 
  944000       943500   -9189.1225    1211.0631   -10400.186    4418.8204   -14819.006    133.51514   -581.20757   -773.84498   -482.87744   -13.863703   -41.741213    113.80521      46.7237      46.7237      46.7237           90           90           90     102002.7   -612.64333 
  945000       944500   -9225.9037    1208.0133   -10433.917    4394.8527    -14828.77    133.17892   -587.54034   -562.44839   -501.07506    138.76823    -101.6877    16.665091      46.7237      46.7237      46.7237           90           90           90     102002.7   -550.35459 
  946000       945500   -9280.5931    1160.3518   -10440.945    4416.5841   -14857.529    127.92441   -713.21266   -1191.5821   -357.65709    16.023844   -204.87607   -353.02332      46.7237      46.7237      46.7237           90           90           90     102002.7   -754.15063 
  947000       946500   -9264.3549    1175.0926   -10439.448    4385.4858   -14824.933    129.54953   -905.87826   -426.85658   -146.56194   -96.955129   -30.919037   -358.30354      46.7237      46.7237      46.7237           90           90           90     102002.7   -493.09893 
  948000       947500   -9236.6622     1197.536   -10434.198    4391.9451   -14826.143    132.02383   -362.86588   -726.88343   -407.87456   -19.909503   -22.504537     41.64175      46.7237      46.7237      46.7237           90           90           90     102002.7   -499.20796 
  949000       948500    -9247.927    1174.3434    -10422.27    4406.7081   -14828.979    129.46694   -534.69998   -644.27363   -1005.5015   -10.788241    130.10014   -54.668908      46.7237      46.7237      46.7237           90           90           90     102002.7   -728.15836 
  950000       949500   -9250.8947    1184.2794   -10435.174    4419.6598   -14854.834    130.56234   -1087.8559   -1190.5212   -490.71732    -241.1442   -74.325686    83.527495      46.7237      46.7237      46.7237           90           90           90     102002.7   -923.03147 
  951000       950500   -9278.3204    1169.0097    -10447.33    4411.3311   -14858.661    128.87891   -652.28395   -679.97476   -1045.3569    66.604987    160.37359   -269.04072      46.7237      46.7237      46.7237           90           90           90     102002.7   -792.53855 
  952000       951500   -9294.3548    1169.2415   -10463.596    4405.7825   -14869.379    128.90447   -1113.0392   -1157.8863   -967.86421   -29.818655   -176.13806    89.908185      46.7237      46.7237      46.7237           90           90           90     102002.7   -1079.5966 
  953000       952500   -9263.1211    1184.3631   -10447.484    4425.0811   -14872.565    130.57156   -1133.5122   -892.41597   -280.70011    -164.2275    102.15782   -29.166343      46.7237      46.7237      46.7237           90           90           90     102002.7    -768.8761 
  954000       953500   -9254.7184    1178.1896   -10432.908    4408.4361   -14841.344    129.89097   -615.15065   -617.52196   -1289.2169    13.840416    16.589646   -242.70609      46.7237      46.7237      46.7237           90           90           90     102002.7   -840.62984 
  955000       954500   -9290.0165    1159.7592   -10449.776    4404.3314   -14854.107    127.85908   -759.30869   -745.03696   -768.47776    17.912586    129.20315    111.92921      46.7237      46.7237      46.7237           90           90           90     102002.7   -757.60781 
  956000       955500    -9194.356    1218.4916   -10412.848    4408.1535   -14821.001    134.33411    -476.6674   -482.66708   -600.21501   0.78863844    101.22891    231.65211      46.7237      46.7237      46.7237           90           90           90     102002.7   -519.84983 
  957000       956500   -9249.7086    1209.2281   -10458.937    4383.9105   -14842.847    133.31283    -830.6895   -681.12971   -772.53881    -276.1589   -141.12484    15.353249      46.7237      46.7237      46.7237           90           90           90     102002.7   -761.45267 
  958000       957500   -9184.1415    1208.7282    -10392.87    4408.2407    -14801.11    133.25773   -673.37317   -496.51714   -322.34347   -224.22227   -196.81138    49.152662      46.7237      46.7237      46.7237           90           90           90     102002.7   -497.41126 
  959000       958500   -9277.4225    1163.2245   -10440.647    4390.3796   -14831.027    128.24112   -651.46388   -658.36403   -720.67161    -41.14281    35.712472   -28.306721      46.7237      46.7237      46.7237           90           90           90     102002.7   -676.83317 
  960000       959500   -9290.0895    1162.4124   -10452.502    4401.3727   -14853.875    128.15159   -659.43858   -1076.2715   -779.20759   -52.592614   -78.035434    126.40146      46.7237      46.7237      46.7237           90           90           90     102002.7   -838.30589 
  961000       960500   -9251.9784    1198.2659   -10450.244    4381.5347   -14831.779     132.1043   -951.95445   -746.08122    -667.6775    9.1418647    109.81832    134.62622      46.7237      46.7237      46.7237           90           90           90     102002.7   -788.57106 
  962000       961500   -9250.8723    1183.6439   -10434.516    4385.3363   -14819.853    130.49228    -277.5242   -488.34745   -360.20038    149.61751    149.95656     121.3524      46.7237      46.7237      46.7237           90           90           90     102002.7   -375.35734 
  963000       962500   -9271.2383    1188.4794   -10459.718    4397.9807   -14857.698    131.02538   -1102.8473   -604.84616   -652.61349     43.69794    23.273929    348.51673      46.7237      46.7237      46.7237           90           90           90     102002.7   -786.76899 
  964000       963500   -9229.3038    1184.6695   -10413.973    4434.0777   -14848.051    130.60535   -1277.5204   -739.78966   -748.19997   -184.53271   -49.069275   -48.340877      46.7237      46.7237      46.7237           90           90           90     102002.7   -921.83668 
  965000       964500   -9283.0127     1159.351   -10442.364    4408.2226   -14850.586    127.81408   -892.71139   -703.18947   -672.10033    237.75263    130.77579   -105.10316      46.7237      46.7237      46.7237           90           90           90     102002.7   -756.00039 
  966000       965500   -9228.8407    1179.5018   -10408.342    4415.7332   -14824.076    130.03563   -493.86618   -1074.4803   -680.28428    78.542296    47.640311    38.553145      46.7237      46.7237      46.7237           90           90           90     102002.7   -749.54359 
  967000       966500   -9246.8104    1164.5561   -10411.367    4425.6207   -14836.987    128.38792   -965.68605   -371.08987    19.488519     63.21609    127.18074    218.69505      46.7237      46.7237      46.7237           90           90           90     102002.7    -439.0958 
  968000       967500   -9260.7364    1176.3884   -10437.125    4386.8313   -14823.956    129.69239   -352.70562    -598.6118   -661.42718   -68.234364    -49.26482    103.15259      46.7237      46.7237      46.7237           90           90           90     102002.7   -537.58154 
  969000       968500   -9235.0154    1184.9902   -10420.006    4417.6968   -14837.702     130.6407   -76.298583   -751.01472   -639.88697    145.94651    76.073116    -326.8268      46.7237      46.7237      46.7237           90           90           90     102002.7   -489.06676 
  970000       969500    -9239.355    1179.1584   -10418.513    4412.1566    -14830.67    129.99776    -310.6657   -568.27732   -1495.7651    -33.24926   -272.66333   -169.42249      46.7237      46.7237      46.7237           90           90           90     102002.7   -791.56937 
  971000       970500   -9263.1769     1184.815   -10447.992    4390.3738   -14838.366    130.62138   -587.41404    -568.5014   -324.48367   -38.013453    36.856264    34.567413      46.7237      46.7237      46.7237           90           90           90     102002.7   -493.46637 
  972000       971500   -9324.1959    1150.7029   -10474.899    4390.5644   -14865.463    126.86066   -553.09885   -623.08595   -1117.8695   -1.8882463     36.10724    95.008571      46.7237      46.7237      46.7237           90           90           90     102002.7   -764.68476 
  973000       972500   -9255.0524    1165.1436   -10420.196    4417.9517   -14838.148    128.45269   -869.54849   -448.87188   -1151.7518    62.837578   -364.23492    72.833851      46.7237      46.7237      46.7237           90           90           90     102002.7   -823.39071 
  974000       973500   -9288.9016    1155.4439   -10444.346     4380.261   -14824.607    127.38333   -669.09724   -528.89113   -844.78953    -47.89557   -84.862866    82.989815      46.7237      46.7237      46.7237           90           90           90     102002.7   -680.92597 
  975000       974500   -9271.0211    1176.8714   -10447.893    4394.0558   -14841.948    129.74564   -633.31644   -587.82104   -504.64138   -142.23111   -25.936421     142.0514      46.7237      46.7237      46.7237           90           90           90     102002.7   -575.25962 
  976000       975500   -9216.3041    1190.0581   -10406.362    4386.6184   -14792.981    131.19942   -810.23242   -823.05247   -820.91217   -32.868608    23.601459   -164.96758      46.7237      46.7237      46.7237           90           90           90     102002.7   -818.06569 
  977000       976500   -9279.6355    1154.4968   -10434.132    4392.4247   -14826.557    127.27892   -790.77326   -713.31646   -804.07286   -13.816929    160.33124   -73.871153      46.7237      46.7237      46.7237           90           90           90     102002.7   -769.38753 
  978000       977500   -9286.3054    1161.3637   -10447.669    4394.8561   -14842.525    128.03597   -811.73045   -536.07066   -472.02202    60.448373     329.6597   -120.56203      46.7237      46.7237      46.7237           90           90           90     102002.7   -606.60771 
  979000       978500   -9247.5776    1193.8985   -10441.476    4392.1105   -14833.587    131.62281   -59.330312   -821.64431   -979.50251   -321.46483    26.010873   -334.46531      46.7237      46.7237      46.7237           90           90           90     102002.7   -620.15904 
  980000       979500   -9225.4455    1190.3867   -10415.832    4411.3808   -14827.213    131.23564   -580.96564   -1118.4902    -169.3581   -136.52255    96.475957   -160.56897      46.7237      46.7237      46.7237           90           90           90     102002.7     -622.938 
  981000       980500   -9302.6838    1151.4314   -10454.115    4394.4687   -14848.584    126.94097   -1091.2722   -535.11231   -774.90226    62.832449   -228.55808   -40.191185      46.7237      46.7237      46.7237           90           90           90     102002.7   -800.42893 
  982000       981500   -9282.6213    1162.2958   -10444.917    4373.7196   -14818.637    128.13873   -1197.8266   -892.35345   -608.31823   -88.095953   -231.29585   -25.920521      46.7237      46.7237      46.7237           90           90           90     102002.7   -899.49943 
  983000       982500   -9218.9452    1202.6382   -10421.583    4392.0393   -14813.623    132.58633   -378.23275   -665.49115   -478.29056    9.5734173    61.154614    136.74259      46.7237      46.7237      46.7237           90           90           90     102002.7   -507.33815 
  984000       983500   -9269.1452    1173.4284   -10442.574    4383.3753   -14825.949    129.36605   -770.76306   -704.93865   -367.85231    -19.27979   -32.474361   -350.10387      46.7237      46.7237      46.7237           90           90           90     102002.7     -614.518 
  985000       984500   -9286.6222    1169.9844   -10456.607    4371.3862   -14827.993    128.98637   -549.77527   -709.46711   -156.27836     208.7213   -76.566254    -42.34366      46.7237      46.7237      46.7237           90           90           90     102002.7   -471.84025 
  986000       985500   -9253.0641    1211.3665   -10464.431     4373.425   -14837.855    133.54858   -610.54903     -516.219   -289.63583    128.07166    76.885184    46.767479      46.7237      46.7237      46.7237           90           90           90     102002.7   -472.13462 
  987000       986500   -9292.8791     1153.213   -10446.092    4393.0934   -14839.186    127.13739   -677.68893    -776.7891   -588.87235    83.494375    295.77286   -245.16704      46.7237      46.7237      46.7237           90           90           90     102002.7   -681.11679 
  988000       987500   -9269.5546    1174.0585   -10443.613    4388.6075   -14832.221    129.43552   -822.48885   -607.98709   -418.08907      135.531   -75.168377   -190.55857      46.7237      46.7237      46.7237           90           90           90     102002.7   -616.18833 
  989000       988500   -9259.0624    1179.7314   -10438.794     4387.552   -14826.346    130.06094   -324.52616   -819.19137   -501.99811   -145.90046   -112.63995   -184.00734      46.7237      46.7237      46.7237           90           90           90     102002.7   -548.57188 
  990000       989500   -9274.7596    1168.5778   -10443.337    4399.9677   -14843.305    128.83129   -525.89649   -919.80249   -849.94281   -293.73917   -321.16134    71.949144      46.7237      46.7237      46.7237           90           90           90     102002.7   -765.21393 
  991000       990500   -9236.4492    1195.3335   -10431.783    4410.9855   -14842.768    131.78101   -912.51442   -1293.3233   -272.54494   -84.064264    53.998935    46.728456      46.7237      46.7237      46.7237           90           90           90     102002.7   -826.12755 
  992000       991500   -9259.0238    1173.4254   -10432.449      4425.33   -14857.779    129.36573   -965.86065   -895.51712   -1113.0947    350.54372   -14.453347   -71.056688      46.7237      46.7237      46.7237           90           90           90     102002.7   -991.49084 
  993000       992500   -9290.0826    1173.2351   -10463.318    4387.6824       -14851    129.34475    -1204.192   -828.05616   -868.00931    280.02439    8.9311919     61.18848      46.7237      46.7237      46.7237           90           90           90     102002.7   -966.75249 
  994000       993500   -9283.3196    1202.4918   -10485.811    4367.1076   -14852.919    132.57018    -516.1207   -872.21153   -960.25131   -88.710471   -326.74088    153.80015      46.7237      46.7237      46.7237           90           90           90     102002.7   -782.86118 
  995000       994500    -9270.598    1171.0107   -10441.609    4410.2475   -14851.856    129.09952   -873.82671   -667.46134   -561.14419   -195.01309    15.029386    -147.1592      46.7237      46.7237      46.7237           90           90           90     102002.7   -700.81075 
  996000       995500   -9275.7404    1172.2468   -10447.987    4407.1368   -14855.124    129.23579   -397.39236   -445.34118   -44.383949    -147.8583   -226.14972    24.035066      46.7237      46.7237      46.7237           90           90           90     102002.7   -295.70583 
  997000       996500   -9243.9131    1175.8027   -10419.716     4413.929   -14833.645    129.62781   -325.21654   -774.25418   -588.76788   -185.13359    177.95022   -100.93599      46.7237      46.7237      46.7237           90           90           90     102002.7    -562.7462 
  998000       997500   -9240.2329    1180.3868    -10420.62    4390.3257   -14810.945    130.13319   -431.69321   -560.86635   -823.15032     29.34094   -66.544882   -308.45315      46.7237      46.7237      46.7237           90           90           90     102002.7   -605.23663 
  999000       998500   -9226.1513    1202.0163   -10428.168    4399.1541   -14827.322    132.51777    106.18575   -1081.3922   -553.77241    129.34599   -49.390451   -78.067813      46.7237      46.7237      46.7237           90           90           90     102002.7   -509.65963 
 1000000       999500   -9286.5598    1162.6889   -10449.249    4380.8776   -14830.126    128.18207   -759.01922   -989.15593   -356.04527   -81.855674    60.238343    266.84747      46.7237      46.7237      46.7237           90           90           90     102002.7   -701.40681 
 1000500      1000000   -9281.2313     1162.824   -10444.055     4409.321   -14853.376    128.19697   -1176.4037   -670.56168   -780.18951    148.57614   -48.403178   -247.80787      46.7237      46.7237      46.7237           90           90           90     102002.7   -875.71829 
Loop time of 2078.23 on 16 procs for 500000 steps with 3044 atoms

Performance: 20.787 ns/day, 1.155 hours/ns, 240.589 timesteps/s
99.8% CPU use with 16 MPI tasks x no OpenMP threads

MPI task timing breakdown:
Section |  min time  |  avg time  |  max time  |%varavg| %total
---------------------------------------------------------------
Pair    | 1155.4     | 1366.1     | 1623.8     | 389.2 | 65.74
Bond    | 121.12     | 183.33     | 246.08     | 415.2 |  8.82
Neigh   | 16.663     | 16.717     | 16.75      |   0.7 |  0.80
Comm    | 171.32     | 479.79     | 747.22     | 880.1 | 23.09
Output  | 0.12759    | 0.13498    | 0.13573    |   0.5 |  0.01
Modify  | 24.153     | 25.395     | 26.738     |  18.6 |  1.22
Other   |            | 6.717      |            |       |  0.32

Nlocal:    190.25 ave 232 max 150 min
Histogram: 1 3 3 0 1 1 2 2 2 1
Nghost:    3881.25 ave 3918 max 3825 min
Histogram: 1 0 1 3 0 1 5 1 2 2
Neighs:    11457.9 ave 14532 max 8425 min
Histogram: 1 2 2 2 1 3 1 0 2 2

Total # of neighbors = 183327
Ave neighs/atom = 60.2257
Ave special neighs/atom = 3.78449
Neighbor list builds = 5175
Dangerous builds = 0
Total wall time: 1:03:59
