LAMMPS (30 Mar 2018)
Reading data file ...
  orthogonal box = (0 0 0) to (46.7237 46.7237 46.7237)
  2 by 2 by 4 MPI processor grid
  reading atoms ...
  1741 atoms
  scanning bonds ...
  5 = max bonds/atom
  scanning angles ...
  10 = max angles/atom
  scanning dihedrals ...
  32 = max dihedrals/atom
  scanning impropers ...
  3 = max impropers/atom
  reading bonds ...
  2064 bonds
  reading angles ...
  3696 angles
  reading dihedrals ...
  6240 dihedrals
  reading impropers ...
  1008 impropers
Finding 1-2 1-3 1-4 neighbors ...
  special bond factors lj:   0          0          0         
  special bond factors coul: 0          0          0         
  5 = max # of 1-2 neighbors
  8 = max # of 1-3 neighbors
  20 = max # of 1-4 neighbors
  19 = max # of special neighbors
Finding 1-2 1-3 1-4 neighbors ...
  special bond factors lj:   0          0          1         
  special bond factors coul: 1          1          1         
  5 = max # of 1-2 neighbors
  8 = max # of 1-3 neighbors
  19 = max # of special neighbors
WARNING: Using 'neigh_modify every 1 delay 0 check yes' setting during minimization (../min.cpp:168)
Neighbor list info ...
  update every 1 steps, delay 0 steps, check yes
  max neighbors/atom: 2000, page size: 100000
  master list distance cutoff = 16
  ghost atom cutoff = 16
  binsize = 8, bins = 6 6 6
  3 neighbor lists, perpetual/occasional/extra = 3 0 0
  (1) pair buck6d/coul/gauss/dsf, perpetual, skip from (3)
      attributes: half, newton on
      pair build: skip
      stencil: none
      bin: none
  (2) pair lj/cut, perpetual, skip from (3)
      attributes: half, newton on
      pair build: skip
      stencil: none
      bin: none
  (3) neighbor class addition, perpetual
      attributes: half, newton on
      pair build: half/bin/newton
      stencil: half/bin/3d/newton
      bin: standard
Setting up cg style minimization ...
  Unit style    : real
  Current step  : 0
WARNING: Inconsistent image flags (../domain.cpp:786)
Per MPI rank memory allocation (min/avg/max) = 22.89 | 23.35 | 23.79 Mbytes
Step Temp E_pair E_mol TotEng Press 
       0            0   -11544.718    6482.8914   -5061.8268    6270.7188 
     503            0   -11569.704    3733.1565   -7836.5475    -489.8769 
Loop time of 4.54038 on 16 procs for 503 steps with 1741 atoms

99.9% CPU use with 16 MPI tasks x no OpenMP threads

Minimization stats:
  Stopping criterion = max force evaluations
  Energy initial, next-to-last, final = 
        -5061.82675004     -7836.53137996     -7836.54749918
  Force two-norm initial, final = 2576.95 5.72063
  Force max component initial, final = 151.983 0.643766
  Final line search alpha, max atom move = 0.0185224 0.0119241
  Iterations, force evaluations = 503 1001

MPI task timing breakdown:
Section |  min time  |  avg time  |  max time  |%varavg| %total
---------------------------------------------------------------
Pair    | 1.1087     | 1.8947     | 3.637      |  49.4 | 41.73
Bond    | 0.30601    | 0.39052    | 0.52556    |   8.7 |  8.60
Neigh   | 0.025395   | 0.02572    | 0.026069   |   0.2 |  0.57
Comm    | 0.35671    | 2.1847     | 3.0033     |  48.4 | 48.12
Output  | 0          | 0          | 0          |   0.0 |  0.00
Modify  | 0          | 0          | 0          |   0.0 |  0.00
Other   |            | 0.04471    |            |       |  0.98

Nlocal:    108.812 ave 130 max 92 min
Histogram: 3 1 0 2 3 1 4 1 0 1
Nghost:    2199.44 ave 2217 max 2179 min
Histogram: 1 0 2 4 0 2 2 1 1 3
Neighs:    11455.6 ave 16163 max 8263 min
Histogram: 3 4 2 0 0 2 2 0 1 2

Total # of neighbors = 183289
Ave neighs/atom = 105.278
Ave special neighs/atom = 6.61689
Neighbor list builds = 13
Dangerous builds = 0
Neighbor list info ...
  update every 1 steps, delay 10 steps, check yes
  max neighbors/atom: 2000, page size: 100000
  master list distance cutoff = 16
  ghost atom cutoff = 16
  binsize = 8, bins = 6 6 6
  3 neighbor lists, perpetual/occasional/extra = 3 0 0
  (1) pair buck6d/coul/gauss/dsf, perpetual, skip from (3)
      attributes: half, newton on
      pair build: skip
      stencil: none
      bin: none
  (2) pair lj/cut, perpetual, skip from (3)
      attributes: half, newton on
      pair build: skip
      stencil: none
      bin: none
  (3) neighbor class addition, perpetual
      attributes: half, newton on
      pair build: half/bin/newton
      stencil: half/bin/3d/newton
      bin: standard
Setting up Verlet run ...
  Unit style    : real
  Current step  : 503
  Time step     : 1
WARNING: Inconsistent image flags (../domain.cpp:786)
Per MPI rank memory allocation (min/avg/max) = 22.54 | 22.63 | 23.12 Mbytes
Step Temp PotEng TotEng Press Volume Lx Ly Lz 
     503          130   -7836.5475   -7162.2883   -187.70917     102002.7      46.7237      46.7237      46.7237 
    1000    117.93097   -7253.7197   -6642.0578   -592.56993     102002.7      46.7237      46.7237      46.7237 
    2000    129.60239   -7131.7987   -6459.6017   -718.99067     102002.7      46.7237      46.7237      46.7237 
    3000    123.28103   -7126.5858   -6487.1752   -924.68584     102002.7      46.7237      46.7237      46.7237 
    4000    128.66594   -7157.8004   -6490.4604   -426.79256     102002.7      46.7237      46.7237      46.7237 
    5000    130.82606   -7139.2553   -6460.7117   -810.65097     102002.7      46.7237      46.7237      46.7237 
    6000    126.60777   -7164.1167   -6507.4516   -717.65871     102002.7      46.7237      46.7237      46.7237 
    7000     131.5172    -7151.501   -6469.3727   -528.87788     102002.7      46.7237      46.7237      46.7237 
    8000     131.3947   -7130.0781   -6448.5851   -790.26492     102002.7      46.7237      46.7237      46.7237 
    9000    129.31132   -7150.0153    -6479.328    -1045.675     102002.7      46.7237      46.7237      46.7237 
   10000    130.95753    -7139.253   -6460.0274   -958.85899     102002.7      46.7237      46.7237      46.7237 
   11000    131.50991    -7183.498   -6501.4075   -930.56796     102002.7      46.7237      46.7237      46.7237 
   12000    128.66519   -7129.2115   -6461.8754   -978.75928     102002.7      46.7237      46.7237      46.7237 
   13000    136.47209   -7157.4704   -6449.6429   -519.98873     102002.7      46.7237      46.7237      46.7237 
   14000    128.45945    -7157.276    -6491.007   -574.79155     102002.7      46.7237      46.7237      46.7237 
   15000    131.58861   -7141.4947    -6458.996   -604.66377     102002.7      46.7237      46.7237      46.7237 
   16000    128.41593   -7167.1479   -6501.1046    -593.2203     102002.7      46.7237      46.7237      46.7237 
   17000    131.52103    -7171.437   -6489.2887   -779.16041     102002.7      46.7237      46.7237      46.7237 
   18000    130.54008   -7142.5059   -6465.4455   -771.99776     102002.7      46.7237      46.7237      46.7237 
   19000    128.74266   -7134.3748   -6466.6369   -866.00378     102002.7      46.7237      46.7237      46.7237 
   20000     126.3186    -7142.619   -6487.4538   -496.90082     102002.7      46.7237      46.7237      46.7237 
   21000    128.10271   -7178.9545   -6514.5357   -809.81879     102002.7      46.7237      46.7237      46.7237 
   22000    130.96052    -7132.251   -6453.0099   -942.51466     102002.7      46.7237      46.7237      46.7237 
   23000    128.60765   -7150.9036   -6483.8659    -1137.447     102002.7      46.7237      46.7237      46.7237 
   24000    126.55579   -7157.2726   -6500.8771   -880.24665     102002.7      46.7237      46.7237      46.7237 
   25000    130.68094   -7159.1644   -6481.3735   -748.06641     102002.7      46.7237      46.7237      46.7237 
   26000    131.68845   -7158.6891   -6475.6725   -592.47329     102002.7      46.7237      46.7237      46.7237 
   27000    127.68666   -7144.2445   -6481.9837   -620.29191     102002.7      46.7237      46.7237      46.7237 
   28000    128.62724   -7120.3588   -6453.2195   -823.61214     102002.7      46.7237      46.7237      46.7237 
   29000    129.44737   -7149.6369    -6478.244   -431.47002     102002.7      46.7237      46.7237      46.7237 
   30000    129.13881    -7142.246   -6472.4534   -457.38511     102002.7      46.7237      46.7237      46.7237 
   31000    130.58168    -7159.539   -6482.2629   -511.43918     102002.7      46.7237      46.7237      46.7237 
   32000    130.03669   -7141.9798   -6467.5302   -470.46692     102002.7      46.7237      46.7237      46.7237 
   33000    129.81427   -7149.1098   -6475.8138   -728.07264     102002.7      46.7237      46.7237      46.7237 
   34000    134.19042   -7165.6108   -6469.6175   -513.51263     102002.7      46.7237      46.7237      46.7237 
   35000    130.73121   -7140.8116   -6462.7599   -685.77387     102002.7      46.7237      46.7237      46.7237 
   36000    128.16764   -7157.3219   -6492.5664   -666.17306     102002.7      46.7237      46.7237      46.7237 
   37000    130.99823    -7167.188   -6487.7514   -684.50859     102002.7      46.7237      46.7237      46.7237 
   38000    132.30877   -7129.9198   -6443.6859   -603.21257     102002.7      46.7237      46.7237      46.7237 
   39000    130.00058    -7149.235   -6474.9728   -578.06203     102002.7      46.7237      46.7237      46.7237 
   40000    122.16802   -7162.3883   -6528.7505    -726.0177     102002.7      46.7237      46.7237      46.7237 
   41000    128.42534   -7142.2667   -6476.1746   -822.14984     102002.7      46.7237      46.7237      46.7237 
   42000    129.58382   -7140.8155   -6468.7149   -278.68589     102002.7      46.7237      46.7237      46.7237 
   43000    128.03019   -7148.5187   -6484.4761   -446.65949     102002.7      46.7237      46.7237      46.7237 
   44000      127.887   -7128.2295   -6464.9296    -730.5086     102002.7      46.7237      46.7237      46.7237 
   45000    133.65962   -7142.6669   -6449.4266   -524.44344     102002.7      46.7237      46.7237      46.7237 
   46000    127.97046   -7150.6153   -6486.8825   -713.80398     102002.7      46.7237      46.7237      46.7237 
   47000    131.08697   -7157.3651   -6477.4681   -721.07824     102002.7      46.7237      46.7237      46.7237 
   48000    125.86008   -7185.2218   -6532.4348   -731.44088     102002.7      46.7237      46.7237      46.7237 
   49000     133.4834   -7165.9156   -6473.5894   -933.94341     102002.7      46.7237      46.7237      46.7237 
   50000    132.67826   -7179.5425   -6491.3922    -853.0742     102002.7      46.7237      46.7237      46.7237 
   51000    128.16399   -7151.1288   -6486.3922   -635.88746     102002.7      46.7237      46.7237      46.7237 
   52000    134.10637   -7129.4505   -6433.8932   -638.35402     102002.7      46.7237      46.7237      46.7237 
   53000    127.69872   -7154.9069   -6492.5836   -653.35857     102002.7      46.7237      46.7237      46.7237 
   54000     129.6341   -7178.3637   -6506.0023   -830.64139     102002.7      46.7237      46.7237      46.7237 
   55000    127.98793   -7141.7397   -6477.9163   -940.65565     102002.7      46.7237      46.7237      46.7237 
   56000    127.49082   -7156.3339   -6495.0887   -975.47308     102002.7      46.7237      46.7237      46.7237 
   57000    131.96056    -7135.233   -6450.8052   -1013.0481     102002.7      46.7237      46.7237      46.7237 
   58000    129.04861   -7166.6992   -6497.3744   -576.13646     102002.7      46.7237      46.7237      46.7237 
   59000    128.21896   -7160.9366   -6495.9149   -1131.5564     102002.7      46.7237      46.7237      46.7237 
   60000    132.97083   -7157.8417   -6468.1739   -570.64728     102002.7      46.7237      46.7237      46.7237 
   61000     131.3873    -7148.336   -6466.8813   -633.91489     102002.7      46.7237      46.7237      46.7237 
   62000    125.84198    -7156.713   -6504.0198   -426.65698     102002.7      46.7237      46.7237      46.7237 
   63000    129.78079   -7156.1882   -6483.0659   -755.32582     102002.7      46.7237      46.7237      46.7237 
   64000    128.26463     -7165.49   -6500.2315   -543.36545     102002.7      46.7237      46.7237      46.7237 
   65000    130.32926   -7142.0332   -6466.0663   -617.72815     102002.7      46.7237      46.7237      46.7237 
   66000    132.32944   -7174.9395   -6488.5984   -903.37922     102002.7      46.7237      46.7237      46.7237 
   67000    133.14163   -7118.7091   -6428.1554   -623.45107     102002.7      46.7237      46.7237      46.7237 
   68000    127.08396   -7141.6131   -6482.4782   -736.92589     102002.7      46.7237      46.7237      46.7237 
   69000    126.86545   -7156.6199   -6498.6183    -835.2177     102002.7      46.7237      46.7237      46.7237 
   70000    129.02812    -7162.391   -6493.1726   -759.11561     102002.7      46.7237      46.7237      46.7237 
   71000    132.00012   -7160.4784   -6475.8453    -781.3015     102002.7      46.7237      46.7237      46.7237 
   72000    128.48133   -7166.5168   -6500.1343   -876.57125     102002.7      46.7237      46.7237      46.7237 
   73000    132.30426   -7145.3416   -6459.1311   -597.21007     102002.7      46.7237      46.7237      46.7237 
   74000    130.47487   -7182.0324   -6505.3102   -691.27179     102002.7      46.7237      46.7237      46.7237 
   75000      128.253   -7138.3805   -6473.1823   -648.61606     102002.7      46.7237      46.7237      46.7237 
   76000    134.01415    -7145.167   -6450.0879   -591.91515     102002.7      46.7237      46.7237      46.7237 
   77000    132.33834   -7153.3088   -6466.9215   -515.06721     102002.7      46.7237      46.7237      46.7237 
   78000    129.84092   -7150.3229   -6476.8888   -668.62163     102002.7      46.7237      46.7237      46.7237 
   79000    125.55634   -7154.6078   -6503.3961   -569.81416     102002.7      46.7237      46.7237      46.7237 
   80000    129.32844    -7135.123   -6464.3469   -819.72506     102002.7      46.7237      46.7237      46.7237 
   81000     134.0904   -7166.6874   -6471.2128   -793.67064     102002.7      46.7237      46.7237      46.7237 
   82000    126.04391   -7156.4958   -6502.7553   -598.03626     102002.7      46.7237      46.7237      46.7237 
   83000    128.63662   -7166.4895   -6499.3016   -475.47039     102002.7      46.7237      46.7237      46.7237 
   84000    133.77184   -7164.8403    -6471.018   -744.63247     102002.7      46.7237      46.7237      46.7237 
   85000    130.07434   -7174.3463   -6499.7014   -701.67357     102002.7      46.7237      46.7237      46.7237 
   86000    138.60309   -7134.7607   -6415.8807   -718.55614     102002.7      46.7237      46.7237      46.7237 
   87000     129.3456   -7163.3631    -6492.498   -868.41635     102002.7      46.7237      46.7237      46.7237 
   88000    129.45295   -7162.2317   -6490.8098      -730.36     102002.7      46.7237      46.7237      46.7237 
   89000    125.59531   -7159.0664   -6507.6526   -980.30212     102002.7      46.7237      46.7237      46.7237 
   90000    130.13759   -7145.0595   -6470.0866   -731.32432     102002.7      46.7237      46.7237      46.7237 
   91000    134.23011   -7128.7957   -6432.5965   -610.31434     102002.7      46.7237      46.7237      46.7237 
   92000      127.241   -7147.1978   -6487.2484   -519.87823     102002.7      46.7237      46.7237      46.7237 
   93000    132.12649   -7161.5219   -6476.2334   -710.91601     102002.7      46.7237      46.7237      46.7237 
   94000     130.0452   -7158.1228   -6483.6291   -379.11072     102002.7      46.7237      46.7237      46.7237 
   95000    127.62445   -7152.8456   -6490.9075   -728.80504     102002.7      46.7237      46.7237      46.7237 
   96000    136.56465   -7168.7274   -6460.4199   -455.48375     102002.7      46.7237      46.7237      46.7237 
   97000    135.30099   -7155.9065   -6454.1531   -600.86474     102002.7      46.7237      46.7237      46.7237 
   98000     126.8792   -7137.7698    -6479.697   -505.68988     102002.7      46.7237      46.7237      46.7237 
   99000    128.39022   -7150.8604   -6484.9504   -560.24803     102002.7      46.7237      46.7237      46.7237 
  100000    131.51749   -7154.5827   -6472.4529   -806.57875     102002.7      46.7237      46.7237      46.7237 
  101000    127.22757   -7149.1423   -6489.2626   -719.08998     102002.7      46.7237      46.7237      46.7237 
  102000    127.69493   -7167.0148   -6504.7111   -593.43482     102002.7      46.7237      46.7237      46.7237 
  103000    130.86865    -7144.636   -6465.8714   -685.76381     102002.7      46.7237      46.7237      46.7237 
  104000    130.11092   -7152.2005    -6477.366   -744.43659     102002.7      46.7237      46.7237      46.7237 
  105000    130.31436   -7160.9168   -6485.0271   -949.66813     102002.7      46.7237      46.7237      46.7237 
  106000    133.30054   -7147.5901   -6456.2123   -790.67662     102002.7      46.7237      46.7237      46.7237 
  107000    131.38269   -7162.8023   -6481.3716   -797.97277     102002.7      46.7237      46.7237      46.7237 
  108000    134.58866   -7143.7412   -6445.6824   -664.29132     102002.7      46.7237      46.7237      46.7237 
  109000     129.5369   -7152.0586   -6480.2013   -774.91335     102002.7      46.7237      46.7237      46.7237 
  110000    136.85966   -7130.4496    -6420.612   -603.08207     102002.7      46.7237      46.7237      46.7237 
  111000    129.61212   -7153.6197   -6481.3723   -637.87433     102002.7      46.7237      46.7237      46.7237 
  112000    128.96337   -7153.9551   -6485.0724   -499.11783     102002.7      46.7237      46.7237      46.7237 
  113000     135.7185   -7149.8538   -6445.9349   -660.42018     102002.7      46.7237      46.7237      46.7237 
  114000    127.68826   -7146.4397   -6484.1706   -844.98659     102002.7      46.7237      46.7237      46.7237 
  115000    134.46762   -7124.1708   -6426.7397   -518.92437     102002.7      46.7237      46.7237      46.7237 
  116000    128.32823   -7161.8882   -6496.2998   -638.38368     102002.7      46.7237      46.7237      46.7237 
  117000    129.71202   -7145.3255   -6472.5599   -664.66815     102002.7      46.7237      46.7237      46.7237 
  118000    133.34159    -7146.755   -6455.1643   -716.66547     102002.7      46.7237      46.7237      46.7237 
  119000    124.95137   -7141.6019   -6493.5279   -670.46412     102002.7      46.7237      46.7237      46.7237 
  120000    131.26881   -7151.2488   -6470.4087   -738.32312     102002.7      46.7237      46.7237      46.7237 
  121000    132.79062   -7134.1019   -6445.3689   -700.72996     102002.7      46.7237      46.7237      46.7237 
  122000    129.16802   -7156.7049   -6486.7608   -1133.5606     102002.7      46.7237      46.7237      46.7237 
  123000    136.08884   -7129.4489   -6423.6093   -1011.2498     102002.7      46.7237      46.7237      46.7237 
  124000    126.38294   -7140.1292   -6484.6302   -597.77645     102002.7      46.7237      46.7237      46.7237 
  125000     126.4799   -7163.5491   -6507.5473   -757.38493     102002.7      46.7237      46.7237      46.7237 
  126000     131.4138   -7156.8966   -6475.3046   -391.41389     102002.7      46.7237      46.7237      46.7237 
  127000    131.08945   -7174.2891   -6494.3793   -572.41612     102002.7      46.7237      46.7237      46.7237 
  128000    129.02059   -7140.8405   -6471.6611   -887.78759     102002.7      46.7237      46.7237      46.7237 
  129000     129.5839    -7150.317    -6478.216   -745.98053     102002.7      46.7237      46.7237      46.7237 
  130000    127.81793    -7137.957   -6475.0153   -663.13652     102002.7      46.7237      46.7237      46.7237 
  131000    129.28562   -7153.5074   -6482.9534   -684.59158     102002.7      46.7237      46.7237      46.7237 
  132000     128.3034   -7128.3479   -6462.8883    -804.6906     102002.7      46.7237      46.7237      46.7237 
  133000     129.1055   -7133.7854   -6464.1655   -367.35205     102002.7      46.7237      46.7237      46.7237 
  134000    130.10761   -7159.6981   -6484.8807   -616.79216     102002.7      46.7237      46.7237      46.7237 
  135000    128.33472   -7162.8943   -6497.2722   -266.65281     102002.7      46.7237      46.7237      46.7237 
  136000    131.46219   -7144.6196   -6462.7766   -251.21743     102002.7      46.7237      46.7237      46.7237 
  137000    129.92748   -7150.0309   -6476.1478   -416.27869     102002.7      46.7237      46.7237      46.7237 
  138000    134.47672   -7146.7127   -6449.2345    -660.3088     102002.7      46.7237      46.7237      46.7237 
  139000    129.93583   -7156.6366   -6482.7101   -464.02472     102002.7      46.7237      46.7237      46.7237 
  140000    131.14951   -7152.7908   -6472.5695   -754.94847     102002.7      46.7237      46.7237      46.7237 
  141000    127.52659    -7173.917   -6512.4863   -816.58283     102002.7      46.7237      46.7237      46.7237 
  142000    134.36869   -7161.8892   -6464.9713   -378.11425     102002.7      46.7237      46.7237      46.7237 
  143000    125.72752     -7143.56   -6491.4604   -951.10127     102002.7      46.7237      46.7237      46.7237 
  144000     127.3994   -7161.0458   -6500.2748    -397.7496     102002.7      46.7237      46.7237      46.7237 
  145000    128.82787   -7136.6125   -6468.4327   -680.27724     102002.7      46.7237      46.7237      46.7237 
  146000    130.98343   -7185.2337   -6505.8737    -610.9055     102002.7      46.7237      46.7237      46.7237 
  147000    127.39656   -7149.9589   -6489.2027   -992.80932     102002.7      46.7237      46.7237      46.7237 
  148000    127.10685   -7166.1853   -6506.9318   -849.52426     102002.7      46.7237      46.7237      46.7237 
  149000    128.66329   -7140.1445   -6472.8183   -595.86205     102002.7      46.7237      46.7237      46.7237 
  150000    125.28802   -7155.7578   -6505.9378   -690.51645     102002.7      46.7237      46.7237      46.7237 
  151000    125.38414   -7140.3927   -6490.0742   -693.35354     102002.7      46.7237      46.7237      46.7237 
  152000    132.20638   -7140.4978   -6454.7949   -478.79836     102002.7      46.7237      46.7237      46.7237 
  153000    132.72046   -7176.0683   -6487.6991   -571.65456     102002.7      46.7237      46.7237      46.7237 
  154000    129.74961   -7169.7302   -6496.7696   -639.72315     102002.7      46.7237      46.7237      46.7237 
  155000    128.06488   -7143.2084   -6478.9858   -556.61568     102002.7      46.7237      46.7237      46.7237 
  156000    129.80312   -7131.5316   -6458.2935   -731.58265     102002.7      46.7237      46.7237      46.7237 
  157000      131.557   -7141.2508    -6458.916   -632.31547     102002.7      46.7237      46.7237      46.7237 
  158000    130.53874   -7143.7136   -6466.6601   -207.08057     102002.7      46.7237      46.7237      46.7237 
  159000    128.64531   -7139.9951   -6472.7622   -586.98478     102002.7      46.7237      46.7237      46.7237 
  160000    128.12453   -7148.0828   -6483.5509   -524.00643     102002.7      46.7237      46.7237      46.7237 
  161000     129.5239   -7129.9141   -6458.1242   -742.28686     102002.7      46.7237      46.7237      46.7237 
  162000    128.74311   -7178.9201   -6511.1799    -354.2376     102002.7      46.7237      46.7237      46.7237 
  163000    131.23208   -7156.1316    -6475.482   -561.26942     102002.7      46.7237      46.7237      46.7237 
  164000    128.99481   -7146.9659   -6477.9201    -576.5509     102002.7      46.7237      46.7237      46.7237 
  165000    131.41942   -7141.4659   -6459.8447   -672.98834     102002.7      46.7237      46.7237      46.7237 
  166000    131.27678   -7140.8921   -6460.0108    -655.6065     102002.7      46.7237      46.7237      46.7237 
  167000    130.02072   -7120.7372   -6446.3705   -534.03502     102002.7      46.7237      46.7237      46.7237 
  168000    127.88183   -7159.0987   -6495.8256   -584.76831     102002.7      46.7237      46.7237      46.7237 
  169000    130.69351   -7146.8665   -6469.0104   -755.34757     102002.7      46.7237      46.7237      46.7237 
  170000    128.38831   -7162.7723   -6496.8723   -765.50091     102002.7      46.7237      46.7237      46.7237 
  171000    130.38695   -7148.5667   -6472.3005   -683.41716     102002.7      46.7237      46.7237      46.7237 
  172000    126.61181   -7139.2048   -6482.5188   -571.27793     102002.7      46.7237      46.7237      46.7237 
  173000    133.34795   -7138.8022   -6447.1784   -653.39393     102002.7      46.7237      46.7237      46.7237 
  174000    128.18693   -7145.5108   -6480.6553   -427.30468     102002.7      46.7237      46.7237      46.7237 
  175000    131.07616   -7140.5078   -6460.6669   -281.87871     102002.7      46.7237      46.7237      46.7237 
  176000    129.28499   -7153.8715   -6483.3207   -498.71916     102002.7      46.7237      46.7237      46.7237 
  177000    131.97806   -7150.1692   -6465.6505   -547.56555     102002.7      46.7237      46.7237      46.7237 
  178000    128.54712    -7147.322   -6480.5983   -755.49382     102002.7      46.7237      46.7237      46.7237 
  179000    137.12308   -7144.8664   -6433.6626   -786.85129     102002.7      46.7237      46.7237      46.7237 
  180000    129.02646   -7171.9182   -6502.7083   -873.16257     102002.7      46.7237      46.7237      46.7237 
  181000    129.48901   -7149.0736   -6477.4647   -796.63383     102002.7      46.7237      46.7237      46.7237 
  182000    127.99831   -7135.6922   -6471.8149   -606.73348     102002.7      46.7237      46.7237      46.7237 
  183000    127.33362   -7185.1983   -6524.7685   -454.29791     102002.7      46.7237      46.7237      46.7237 
  184000    127.88522   -7150.8522   -6487.5616   -414.99151     102002.7      46.7237      46.7237      46.7237 
  185000    133.28018   -7162.5329   -6471.2607   -928.64006     102002.7      46.7237      46.7237      46.7237 
  186000    127.25015   -7142.9182   -6482.9213    -661.6352     102002.7      46.7237      46.7237      46.7237 
  187000    131.54052   -7151.6085   -6469.3592   -761.23758     102002.7      46.7237      46.7237      46.7237 
  188000    128.93668   -7150.7791   -6482.0349   -801.37751     102002.7      46.7237      46.7237      46.7237 
  189000    130.84753   -7152.9054   -6474.2503   -727.30661     102002.7      46.7237      46.7237      46.7237 
  190000    129.00388   -7172.0309   -6502.9382    -610.5933     102002.7      46.7237      46.7237      46.7237 
  191000    128.10545   -7143.2481   -6478.8151   -509.99783     102002.7      46.7237      46.7237      46.7237 
  192000    134.69363   -7128.3517   -6429.7485   -475.29207     102002.7      46.7237      46.7237      46.7237 
  193000    128.00124   -7154.8605    -6490.968   -487.78389     102002.7      46.7237      46.7237      46.7237 
  194000    131.58955   -7168.3978   -6485.8942   -603.89882     102002.7      46.7237      46.7237      46.7237 
  195000    129.56904   -7122.3315   -6450.3075   -512.74162     102002.7      46.7237      46.7237      46.7237 
  196000     127.4499    -7149.929   -6488.8962   -789.53429     102002.7      46.7237      46.7237      46.7237 
  197000    128.81371     -7162.87   -6494.7636   -549.08588     102002.7      46.7237      46.7237      46.7237 
  198000    128.12138   -7145.7417   -6481.2262   -1015.0157     102002.7      46.7237      46.7237      46.7237 
  199000    132.43533   -7165.7676   -6478.8772   -451.83355     102002.7      46.7237      46.7237      46.7237 
  200000    136.61897    -7142.258   -6433.6688   -566.55874     102002.7      46.7237      46.7237      46.7237 
  201000    129.24325   -7165.1232   -6494.7889   -689.85153     102002.7      46.7237      46.7237      46.7237 
  202000    129.68927   -7145.8665   -6473.2189   -983.90535     102002.7      46.7237      46.7237      46.7237 
  203000    130.82976   -7151.5748   -6473.0119   -740.02937     102002.7      46.7237      46.7237      46.7237 
  204000    128.01401   -7154.8018   -6490.8432   -706.72351     102002.7      46.7237      46.7237      46.7237 
  205000    132.41232   -7148.9215   -6462.1505    -1120.358     102002.7      46.7237      46.7237      46.7237 
  206000    127.77652   -7154.5226   -6491.7957   -801.66664     102002.7      46.7237      46.7237      46.7237 
  207000    130.30841   -7143.5889   -6467.7301   -1127.6044     102002.7      46.7237      46.7237      46.7237 
  208000    132.43758   -7156.3831   -6469.4811   -669.32389     102002.7      46.7237      46.7237      46.7237 
  209000    131.51147   -7149.2868   -6467.1882   -662.48313     102002.7      46.7237      46.7237      46.7237 
  210000    130.27665   -7146.1269   -6470.4328   -814.80976     102002.7      46.7237      46.7237      46.7237 
  211000    129.05649    -7146.308   -6476.9423   -571.78941     102002.7      46.7237      46.7237      46.7237 
  212000    128.74753    -7154.883   -6487.1198   -854.26523     102002.7      46.7237      46.7237      46.7237 
  213000     132.2051   -7152.3809   -6466.6847   -606.76926     102002.7      46.7237      46.7237      46.7237 
  214000    128.82687    -7179.934   -6511.7593   -602.32737     102002.7      46.7237      46.7237      46.7237 
  215000    127.93428    -7147.836   -6484.2909   -767.96846     102002.7      46.7237      46.7237      46.7237 
  216000    132.41703    -7143.001   -6456.2056   -864.79866     102002.7      46.7237      46.7237      46.7237 
  217000    129.64063   -7174.9996   -6502.6043   -761.34858     102002.7      46.7237      46.7237      46.7237 
  218000    127.67499   -7157.4293   -6495.2289   -700.26683     102002.7      46.7237      46.7237      46.7237 
  219000    128.72055   -7136.1359   -6468.5126    -614.0635     102002.7      46.7237      46.7237      46.7237 
  220000    131.18878   -7135.5397   -6455.1147    -770.7034     102002.7      46.7237      46.7237      46.7237 
  221000    129.69683   -7162.0414   -6489.3546   -800.00083     102002.7      46.7237      46.7237      46.7237 
  222000    131.90389   -7140.7763   -6456.6424   -799.24001     102002.7      46.7237      46.7237      46.7237 
  223000    127.20082   -7165.9343   -6506.1933   -689.13252     102002.7      46.7237      46.7237      46.7237 
  224000    127.76283   -7140.1491   -6477.4932   -781.35452     102002.7      46.7237      46.7237      46.7237 
  225000    130.02959   -7147.4895   -6473.0768   -417.21787     102002.7      46.7237      46.7237      46.7237 
  226000    128.31794   -7160.6288   -6495.0938    -566.1286     102002.7      46.7237      46.7237      46.7237 
  227000    131.96543   -7158.8586   -6474.4054   -667.82267     102002.7      46.7237      46.7237      46.7237 
  228000    132.97063   -7137.8046   -6448.1379   -725.89255     102002.7      46.7237      46.7237      46.7237 
  229000    127.80825   -7148.5018   -6485.6104   -601.74158     102002.7      46.7237      46.7237      46.7237 
  230000    130.28094   -7159.2525   -6483.5362   -860.65532     102002.7      46.7237      46.7237      46.7237 
  231000    136.26873   -7135.9818   -6429.2092   -846.89828     102002.7      46.7237      46.7237      46.7237 
  232000    131.45025   -7172.9485   -6491.1674   -506.69388     102002.7      46.7237      46.7237      46.7237 
  233000    131.39811   -7141.2018   -6459.6911    -1152.079     102002.7      46.7237      46.7237      46.7237 
  234000    126.30134    -7165.358   -6510.2823   -705.16521     102002.7      46.7237      46.7237      46.7237 
  235000    127.06936   -7131.9675   -6472.9083    -509.7605     102002.7      46.7237      46.7237      46.7237 
  236000     125.5774   -7149.2528   -6497.9319   -938.11433     102002.7      46.7237      46.7237      46.7237 
  237000    132.12774   -7159.5654   -6474.2704   -668.63088     102002.7      46.7237      46.7237      46.7237 
  238000    130.47558   -7158.0322   -6481.3063   -598.11722     102002.7      46.7237      46.7237      46.7237 
  239000    131.61423   -7146.1611   -6463.5295   -731.04067     102002.7      46.7237      46.7237      46.7237 
  240000    127.22938   -7149.3228   -6489.4337   -851.11898     102002.7      46.7237      46.7237      46.7237 
  241000    129.17895   -7140.7899   -6470.7892   -827.11456     102002.7      46.7237      46.7237      46.7237 
  242000    128.79258    -7149.111   -6481.1142   -638.69246     102002.7      46.7237      46.7237      46.7237 
  243000    129.60291   -7142.1474   -6469.9477   -264.27999     102002.7      46.7237      46.7237      46.7237 
  244000     126.5225   -7173.2681   -6517.0452   -596.53282     102002.7      46.7237      46.7237      46.7237 
  245000    132.44008   -7152.1265   -6465.2115   -631.12594     102002.7      46.7237      46.7237      46.7237 
  246000    125.41006   -7184.7969   -6534.3438   -817.29638     102002.7      46.7237      46.7237      46.7237 
  247000     127.9461   -7128.6457   -6465.0393   -731.48735     102002.7      46.7237      46.7237      46.7237 
  248000    128.36409   -7154.5302   -6488.7558   -847.72727     102002.7      46.7237      46.7237      46.7237 
  249000    130.85198   -7141.6417   -6462.9636   -1100.6093     102002.7      46.7237      46.7237      46.7237 
  250000    134.51209   -7141.8408   -6444.1792   -927.48842     102002.7      46.7237      46.7237      46.7237 
  251000    127.69096   -7142.5193   -6480.2362   -818.18361     102002.7      46.7237      46.7237      46.7237 
  252000     130.8193   -7161.6686     -6483.16   -743.01626     102002.7      46.7237      46.7237      46.7237 
  253000     131.1437   -7129.6726   -6449.4814   -421.12668     102002.7      46.7237      46.7237      46.7237 
  254000    130.47346    -7175.899   -6499.1841   -702.09328     102002.7      46.7237      46.7237      46.7237 
  255000    125.94815   -7139.3985   -6486.1547   -699.67835     102002.7      46.7237      46.7237      46.7237 
  256000     129.4114   -7129.5996   -6458.3932   -570.40711     102002.7      46.7237      46.7237      46.7237 
  257000    129.84804   -7155.8759   -6482.4048   -1070.4423     102002.7      46.7237      46.7237      46.7237 
  258000    131.99759   -7153.4954   -6468.8754   -733.62403     102002.7      46.7237      46.7237      46.7237 
  259000    130.37468   -7141.5302   -6465.3276   -760.90137     102002.7      46.7237      46.7237      46.7237 
  260000    129.08538   -7148.3626   -6478.8471   -701.99341     102002.7      46.7237      46.7237      46.7237 
  261000    126.69728   -7144.3984   -6487.2691   -721.34355     102002.7      46.7237      46.7237      46.7237 
  262000    131.94889   -7147.3914    -6463.024   -380.81409     102002.7      46.7237      46.7237      46.7237 
  263000    126.54938   -7158.5754   -6502.2132   -725.40523     102002.7      46.7237      46.7237      46.7237 
  264000    129.69861   -7142.6841   -6469.9881   -373.18291     102002.7      46.7237      46.7237      46.7237 
  265000    127.55395   -7136.6712   -6475.0986   -538.32021     102002.7      46.7237      46.7237      46.7237 
  266000    130.89879   -7161.1734   -6482.2525   -392.38561     102002.7      46.7237      46.7237      46.7237 
  267000    134.16719   -7139.4292   -6443.5564   -619.85265     102002.7      46.7237      46.7237      46.7237 
  268000    127.63237   -7138.0798   -6476.1006   -563.29831     102002.7      46.7237      46.7237      46.7237 
  269000    130.77688   -7160.7663   -6482.4777     -552.755     102002.7      46.7237      46.7237      46.7237 
  270000    127.95694   -7135.0677    -6471.405   -574.03648     102002.7      46.7237      46.7237      46.7237 
  271000     126.7416   -7152.8233   -6495.4641   -741.00663     102002.7      46.7237      46.7237      46.7237 
  272000    125.72931   -7149.8558    -6497.747   -1119.4409     102002.7      46.7237      46.7237      46.7237 
  273000    131.44017   -7140.6189     -6458.89   -736.42738     102002.7      46.7237      46.7237      46.7237 
  274000    126.94433   -7166.5347   -6508.1241   -761.65894     102002.7      46.7237      46.7237      46.7237 
  275000    127.12695   -7158.1772   -6498.8193   -855.63063     102002.7      46.7237      46.7237      46.7237 
  276000    127.88633   -7152.2304    -6488.934    -1138.739     102002.7      46.7237      46.7237      46.7237 
  277000    126.76504   -7170.8028   -6513.3221   -906.99323     102002.7      46.7237      46.7237      46.7237 
  278000     133.3162   -7151.9017   -6460.4426   -792.10924     102002.7      46.7237      46.7237      46.7237 
  279000    123.51376     -7169.02   -6528.4024   -836.93339     102002.7      46.7237      46.7237      46.7237 
  280000    131.97447   -7152.3141   -6467.8141   -753.11587     102002.7      46.7237      46.7237      46.7237 
  281000     129.7799   -7151.7036    -6478.586   -638.39318     102002.7      46.7237      46.7237      46.7237 
  282000    134.70087     -7141.65   -6443.0091   -793.03343     102002.7      46.7237      46.7237      46.7237 
  283000    129.54727   -7153.2306   -6481.3195    -827.1005     102002.7      46.7237      46.7237      46.7237 
  284000    130.45567   -7127.3942   -6450.7716   -762.88101     102002.7      46.7237      46.7237      46.7237 
  285000    130.95055   -7139.0092   -6459.8198   -865.53834     102002.7      46.7237      46.7237      46.7237 
  286000    127.63163   -7171.5762   -6509.6008   -838.10171     102002.7      46.7237      46.7237      46.7237 
  287000     129.2807   -7122.8418   -6452.3133   -698.04884     102002.7      46.7237      46.7237      46.7237 
  288000     130.2498    -7147.152   -6471.5971   -983.28951     102002.7      46.7237      46.7237      46.7237 
  289000    132.72401   -7173.6892   -6485.3016   -959.19156     102002.7      46.7237      46.7237      46.7237 
  290000    134.11527   -7160.8071   -6465.2036   -960.99811     102002.7      46.7237      46.7237      46.7237 
  291000    124.64398   -7148.0353   -6501.5557   -777.78706     102002.7      46.7237      46.7237      46.7237 
  292000    131.47153   -7163.5834   -6481.6919   -1022.9702     102002.7      46.7237      46.7237      46.7237 
  293000    127.07633   -7167.7037   -6508.6084   -410.65522     102002.7      46.7237      46.7237      46.7237 
  294000    130.03143   -7133.2589   -6458.8367   -667.37469     102002.7      46.7237      46.7237      46.7237 
  295000     131.8102   -7161.2012   -6477.5532   -606.11053     102002.7      46.7237      46.7237      46.7237 
  296000     133.4152   -7146.9295    -6454.957    -661.4145     102002.7      46.7237      46.7237      46.7237 
  297000    126.52525   -7139.4307   -6483.1936   -735.38642     102002.7      46.7237      46.7237      46.7237 
  298000     131.4086   -7139.9015   -6458.3365   -555.04293     102002.7      46.7237      46.7237      46.7237 
  299000    129.52443   -7137.7622   -6465.9696   -520.74616     102002.7      46.7237      46.7237      46.7237 
  300000    128.47783     -7158.52   -6492.1556   -504.62142     102002.7      46.7237      46.7237      46.7237 
  301000     129.3921   -7140.8003    -6469.694   -436.47874     102002.7      46.7237      46.7237      46.7237 
  302000    130.41273   -7165.5833   -6489.1834    -477.2186     102002.7      46.7237      46.7237      46.7237 
  303000    129.73588   -7134.0769   -6461.1876    -600.9345     102002.7      46.7237      46.7237      46.7237 
  304000     129.2882    -7153.427   -6482.8596   -665.96355     102002.7      46.7237      46.7237      46.7237 
  305000    131.90834   -7142.0822   -6457.9251   -563.25253     102002.7      46.7237      46.7237      46.7237 
  306000    125.17047   -7131.6146   -6482.4043   -852.88585     102002.7      46.7237      46.7237      46.7237 
  307000    130.49261   -7149.9108   -6473.0966   -626.95938     102002.7      46.7237      46.7237      46.7237 
  308000    131.52586   -7157.6366   -6475.4634    -615.9776     102002.7      46.7237      46.7237      46.7237 
  309000       128.17    -7144.646   -6479.8782   -597.47639     102002.7      46.7237      46.7237      46.7237 
  310000    129.44483   -7138.2057   -6466.8259   -515.17458     102002.7      46.7237      46.7237      46.7237 
  311000    126.87908    -7161.675   -6503.6027   -748.59759     102002.7      46.7237      46.7237      46.7237 
  312000    128.48515   -7158.0365   -6491.6342   -602.73886     102002.7      46.7237      46.7237      46.7237 
  313000    129.43168   -7133.3162   -6462.0046   -1109.3758     102002.7      46.7237      46.7237      46.7237 
  314000    129.38736   -7162.7373   -6491.6556   -859.23316     102002.7      46.7237      46.7237      46.7237 
  315000    133.18656    -7157.772   -6466.9853   -399.72374     102002.7      46.7237      46.7237      46.7237 
  316000    130.55444   -7155.3716   -6478.2367   -526.58527     102002.7      46.7237      46.7237      46.7237 
  317000     130.2955   -7108.1931   -6432.4012   -735.11506     102002.7      46.7237      46.7237      46.7237 
  318000    131.23546   -7145.1308   -6464.4637   -466.01122     102002.7      46.7237      46.7237      46.7237 
  319000    124.66305   -7156.6674   -6510.0888   -437.95341     102002.7      46.7237      46.7237      46.7237 
  320000    127.13941   -7135.3587   -6475.9362   -440.52221     102002.7      46.7237      46.7237      46.7237 
  321000    130.37462   -7161.8916   -6485.6893   -475.45134     102002.7      46.7237      46.7237      46.7237 
  322000     131.6679   -7167.1511   -6484.2411   -501.55213     102002.7      46.7237      46.7237      46.7237 
  323000    127.29865   -7148.5674   -6488.3191   -938.79204     102002.7      46.7237      46.7237      46.7237 
  324000    133.32608   -7133.2202   -6441.7099   -589.54608     102002.7      46.7237      46.7237      46.7237 
  325000    127.77346   -7154.1277   -6491.4167   -747.77925     102002.7      46.7237      46.7237      46.7237 
  326000    131.39088    -7153.974   -6472.5008   -665.35602     102002.7      46.7237      46.7237      46.7237 
  327000    126.61466   -7160.8113   -6504.1105   -682.17261     102002.7      46.7237      46.7237      46.7237 
  328000     131.1043     -7165.86   -6485.8732   -737.87996     102002.7      46.7237      46.7237      46.7237 
  329000    132.30159   -7157.6875   -6471.4909   -469.23824     102002.7      46.7237      46.7237      46.7237 
  330000    134.62259    -7142.107   -6443.8722   -766.69265     102002.7      46.7237      46.7237      46.7237 
  331000    125.23848   -7137.0626   -6487.4995   -678.77102     102002.7      46.7237      46.7237      46.7237 
  332000    127.94997   -7169.8553   -6506.2288   -538.30091     102002.7      46.7237      46.7237      46.7237 
  333000    129.22598   -7143.0717    -6472.827   -976.15845     102002.7      46.7237      46.7237      46.7237 
  334000    126.43144   -7165.4301   -6509.6796   -609.39896     102002.7      46.7237      46.7237      46.7237 
  335000    125.43525   -7127.6307   -6477.0471   -666.97632     102002.7      46.7237      46.7237      46.7237 
  336000    136.07594   -7129.0031   -6423.2303   -339.12022     102002.7      46.7237      46.7237      46.7237 
  337000     130.3038   -7145.3317   -6469.4968   -908.86257     102002.7      46.7237      46.7237      46.7237 
  338000    129.12659   -7145.6524   -6475.9232   -530.69876     102002.7      46.7237      46.7237      46.7237 
  339000    125.45986   -7144.9411   -6494.2298   -714.76542     102002.7      46.7237      46.7237      46.7237 
  340000    129.83425   -7142.2616    -6468.862   -486.02274     102002.7      46.7237      46.7237      46.7237 
  341000    129.70656   -7147.3271   -6474.5899   -644.50023     102002.7      46.7237      46.7237      46.7237 
  342000    128.33219   -7171.8472   -6506.2382   -608.73736     102002.7      46.7237      46.7237      46.7237 
  343000    132.82084   -7154.7089    -6465.819   -607.49619     102002.7      46.7237      46.7237      46.7237 
  344000    129.60519   -7154.1197   -6481.9081   -754.57337     102002.7      46.7237      46.7237      46.7237 
  345000    131.03827   -7163.0196   -6483.3753   -961.75843     102002.7      46.7237      46.7237      46.7237 
  346000    127.79264   -7161.0966   -6498.2861   -743.10667     102002.7      46.7237      46.7237      46.7237 
  347000    128.39551   -7145.8895   -6479.9522   -753.89064     102002.7      46.7237      46.7237      46.7237 
  348000    129.67158    -7124.938   -6452.3821   -308.89661     102002.7      46.7237      46.7237      46.7237 
  349000     131.2968   -7157.7143    -6476.729   -594.66626     102002.7      46.7237      46.7237      46.7237 
  350000    132.64573   -7140.4417   -6452.4601   -743.60655     102002.7      46.7237      46.7237      46.7237 
  351000    128.24264   -7165.2905    -6500.146   -747.58401     102002.7      46.7237      46.7237      46.7237 
  352000    134.74786   -7142.3474   -6443.4629   -615.65141     102002.7      46.7237      46.7237      46.7237 
  353000    128.37873   -7158.7973    -6492.947   -531.29889     102002.7      46.7237      46.7237      46.7237 
  354000    130.36124   -7144.9109   -6468.7781   -581.42066     102002.7      46.7237      46.7237      46.7237 
  355000    130.94186   -7150.0856   -6470.9413   -609.78595     102002.7      46.7237      46.7237      46.7237 
  356000    130.48484   -7150.0881   -6473.3142   -907.05896     102002.7      46.7237      46.7237      46.7237 
  357000    129.17607   -7158.9759   -6488.9901   -852.61166     102002.7      46.7237      46.7237      46.7237 
  358000    125.83179   -7153.5408   -6500.9005   -552.06223     102002.7      46.7237      46.7237      46.7237 
  359000    131.39374   -7130.7077   -6449.2196    -691.2206     102002.7      46.7237      46.7237      46.7237 
  360000    125.49673   -7146.8609   -6495.9583     -636.912     102002.7      46.7237      46.7237      46.7237 
  361000    131.53869   -7147.1718    -6464.932   -745.36274     102002.7      46.7237      46.7237      46.7237 
  362000    129.87819   -7160.2991   -6486.6716   -576.34388     102002.7      46.7237      46.7237      46.7237 
  363000    125.74828   -7175.0441   -6522.8369   -548.76396     102002.7      46.7237      46.7237      46.7237 
  364000    130.67486   -7144.2659   -6466.5064   -645.50588     102002.7      46.7237      46.7237      46.7237 
  365000     131.8809   -7151.3705   -6467.3558   -549.63892     102002.7      46.7237      46.7237      46.7237 
  366000    128.65382   -7143.4228   -6476.1457   -780.43351     102002.7      46.7237      46.7237      46.7237 
  367000    130.19078   -7134.9839   -6459.7351   -621.64266     102002.7      46.7237      46.7237      46.7237 
  368000    127.74575    -7128.814   -6466.2467   -738.12601     102002.7      46.7237      46.7237      46.7237 
  369000    128.55741   -7138.2836   -6471.5065    -619.1516     102002.7      46.7237      46.7237      46.7237 
  370000    129.70177   -7145.9274    -6473.215   -743.99802     102002.7      46.7237      46.7237      46.7237 
  371000    127.87608   -7171.4929   -6508.2495   -852.60376     102002.7      46.7237      46.7237      46.7237 
  372000    130.34072   -7162.8233   -6486.7969   -626.64491     102002.7      46.7237      46.7237      46.7237 
  373000    127.03101   -7153.6078   -6494.7475   -500.69085     102002.7      46.7237      46.7237      46.7237 
  374000    132.84791   -7161.5552   -6472.5249   -745.60959     102002.7      46.7237      46.7237      46.7237 
  375000    130.03061    -7156.811    -6482.393   -491.66884     102002.7      46.7237      46.7237      46.7237 
  376000    128.45394   -7136.2133   -6469.9728    -921.4918     102002.7      46.7237      46.7237      46.7237 
  377000    135.00547   -7143.0652   -6442.8445   -970.91871     102002.7      46.7237      46.7237      46.7237 
  378000    130.75686   -7161.4042   -6483.2194   -891.87626     102002.7      46.7237      46.7237      46.7237 
  379000    133.89754   -7138.6374   -6444.1632   -884.90943     102002.7      46.7237      46.7237      46.7237 
  380000    130.89824   -7158.3172   -6479.3992   -463.34292     102002.7      46.7237      46.7237      46.7237 
  381000    132.70221   -7142.4377   -6454.1631   -543.54903     102002.7      46.7237      46.7237      46.7237 
  382000    129.73754    -7142.323    -6469.425   -745.31086     102002.7      46.7237      46.7237      46.7237 
  383000    124.50234    -7136.787    -6491.042   -709.11367     102002.7      46.7237      46.7237      46.7237 
  384000    133.58766   -7141.8466   -6448.9796   -324.19085     102002.7      46.7237      46.7237      46.7237 
  385000    131.30558   -7156.8266   -6475.7959   -354.27492     102002.7      46.7237      46.7237      46.7237 
  386000    129.23716   -7161.6706   -6491.3679   -439.82495     102002.7      46.7237      46.7237      46.7237 
  387000    136.29757   -7176.0538   -6469.1315   -421.51971     102002.7      46.7237      46.7237      46.7237 
  388000    129.34718   -7162.6258   -6491.7525   -571.72319     102002.7      46.7237      46.7237      46.7237 
  389000    133.68862   -7149.8496   -6456.4589   -707.15421     102002.7      46.7237      46.7237      46.7237 
  390000    130.54117     -7147.73   -6470.6639   -788.91374     102002.7      46.7237      46.7237      46.7237 
  391000     128.5781   -7151.5347   -6484.6503   -905.78511     102002.7      46.7237      46.7237      46.7237 
  392000    129.29422   -7142.9095   -6472.3108   -612.02416     102002.7      46.7237      46.7237      46.7237 
  393000    132.35766    -7164.874   -6478.3864    -503.2855     102002.7      46.7237      46.7237      46.7237 
  394000    134.02726   -7141.6756   -6446.5286   -322.46681     102002.7      46.7237      46.7237      46.7237 
  395000    131.21574   -7132.5503   -6451.9855   -468.30714     102002.7      46.7237      46.7237      46.7237 
  396000    130.84244   -7170.0419   -6491.4133   -419.70087     102002.7      46.7237      46.7237      46.7237 
  397000    127.74458   -7135.1171   -6472.5559   -715.76233     102002.7      46.7237      46.7237      46.7237 
  398000    127.88965   -7162.0322   -6498.7185   -567.11594     102002.7      46.7237      46.7237      46.7237 
  399000    129.65299   -7141.7775    -6469.318   -541.08987     102002.7      46.7237      46.7237      46.7237 
  400000    128.94035   -7158.2423    -6489.479    -843.7787     102002.7      46.7237      46.7237      46.7237 
  401000     129.9827   -7156.3135    -6482.144   -741.82261     102002.7      46.7237      46.7237      46.7237 
  402000      133.531   -7146.4784   -6453.9052   -503.27811     102002.7      46.7237      46.7237      46.7237 
  403000    131.86401   -7129.8775   -6445.9504   -742.59537     102002.7      46.7237      46.7237      46.7237 
  404000    129.04046   -7131.5386   -6462.2561   -336.92163     102002.7      46.7237      46.7237      46.7237 
  405000    127.97045   -7141.3427   -6477.6099    -534.2615     102002.7      46.7237      46.7237      46.7237 
  406000    130.07272   -7151.7024    -6477.066   -526.25977     102002.7      46.7237      46.7237      46.7237 
  407000    131.67863   -7185.0512   -6502.0856   -769.98963     102002.7      46.7237      46.7237      46.7237 
  408000    127.42018   -7151.5688     -6490.69   -715.52741     102002.7      46.7237      46.7237      46.7237 
  409000    132.48164   -7141.9815    -6454.851   -603.99694     102002.7      46.7237      46.7237      46.7237 
  410000    125.59089   -7155.5929    -6504.202   -943.04747     102002.7      46.7237      46.7237      46.7237 
  411000    128.49139   -7179.1986   -6512.7639   -731.94241     102002.7      46.7237      46.7237      46.7237 
  412000    128.05583    -7134.603   -6470.4275   -614.57334     102002.7      46.7237      46.7237      46.7237 
  413000    124.94442    -7139.943   -6491.9051   -716.15468     102002.7      46.7237      46.7237      46.7237 
  414000    128.11832    -7129.149   -6464.6493   -811.38481     102002.7      46.7237      46.7237      46.7237 
  415000    135.91409    -7157.248   -6452.3147   -790.00313     102002.7      46.7237      46.7237      46.7237 
  416000    128.11851   -7155.2227   -6490.7221   -684.77273     102002.7      46.7237      46.7237      46.7237 
  417000    134.59713   -7138.3046   -6440.2019   -517.55281     102002.7      46.7237      46.7237      46.7237 
  418000    130.95959   -7165.2761   -6486.0399   -374.42221     102002.7      46.7237      46.7237      46.7237 
  419000    131.91107   -7145.8234   -6461.6522   -827.77261     102002.7      46.7237      46.7237      46.7237 
  420000    124.53336   -7160.4335   -6514.5276   -549.83107     102002.7      46.7237      46.7237      46.7237 
  421000    133.47875   -7148.3805   -6456.0784   -590.92635     102002.7      46.7237      46.7237      46.7237 
  422000     132.5665   -7162.7699   -6475.1992   -640.18745     102002.7      46.7237      46.7237      46.7237 
  423000    130.02277   -7129.3599   -6454.9826   -746.71444     102002.7      46.7237      46.7237      46.7237 
  424000    125.46236   -7142.6879   -6491.9636   -550.88957     102002.7      46.7237      46.7237      46.7237 
  425000    127.54565   -7148.3942   -6486.8648   -813.76352     102002.7      46.7237      46.7237      46.7237 
  426000    128.12003   -7140.1259   -6475.6173   -434.04008     102002.7      46.7237      46.7237      46.7237 
  427000    125.68795   -7156.0836   -6504.1893   -653.98873     102002.7      46.7237      46.7237      46.7237 
  428000    127.81891   -7144.9042   -6481.9575   -695.42248     102002.7      46.7237      46.7237      46.7237 
  429000    127.27904   -7130.3628   -6470.2161   -650.75574     102002.7      46.7237      46.7237      46.7237 
  430000    132.64138   -7176.5536   -6488.5946   -710.08422     102002.7      46.7237      46.7237      46.7237 
  431000     128.4375    -7158.464   -6492.3089   -457.58091     102002.7      46.7237      46.7237      46.7237 
  432000    132.79984   -7143.7386   -6454.9577   -710.97482     102002.7      46.7237      46.7237      46.7237 
  433000    132.97543   -7130.2349   -6440.5432   -582.83469     102002.7      46.7237      46.7237      46.7237 
  434000    130.63247   -7165.8667   -6488.3271    -416.9437     102002.7      46.7237      46.7237      46.7237 
  435000    131.98391   -7136.1653   -6451.6164    -707.9903     102002.7      46.7237      46.7237      46.7237 
  436000    126.25574   -7136.9865   -6482.1473   -690.29202     102002.7      46.7237      46.7237      46.7237 
  437000    127.77216   -7170.6205   -6507.9162   -548.01183     102002.7      46.7237      46.7237      46.7237 
  438000    130.17088    -7140.228   -6465.0825   -730.64771     102002.7      46.7237      46.7237      46.7237 
  439000    125.57693   -7144.1812   -6492.8627   -594.29646     102002.7      46.7237      46.7237      46.7237 
  440000    132.90405    -7134.841   -6445.5197   -668.18365     102002.7      46.7237      46.7237      46.7237 
  441000    129.02653   -7155.0382    -6485.828   -747.61018     102002.7      46.7237      46.7237      46.7237 
  442000    131.20873   -7138.1701   -6457.6417   -848.42009     102002.7      46.7237      46.7237      46.7237 
  443000    128.48422   -7159.2387   -6492.8412   -511.68589     102002.7      46.7237      46.7237      46.7237 
  444000     130.6177   -7145.0364   -6467.5734   -630.83347     102002.7      46.7237      46.7237      46.7237 
  445000    129.76482   -7149.8756   -6476.8361   -738.73931     102002.7      46.7237      46.7237      46.7237 
  446000    124.69645   -7161.1887   -6514.4369   -664.77679     102002.7      46.7237      46.7237      46.7237 
  447000    131.50708   -7157.9152   -6475.8394   -868.62375     102002.7      46.7237      46.7237      46.7237 
  448000    127.44185   -7167.7387   -6506.7476   -599.54409     102002.7      46.7237      46.7237      46.7237 
  449000    129.00014   -7155.8289   -6486.7555   -408.79933     102002.7      46.7237      46.7237      46.7237 
  450000    130.36484   -7162.0867   -6485.9351   -1091.0982     102002.7      46.7237      46.7237      46.7237 
  451000     130.0048   -7178.8951    -6504.611   -701.75778     102002.7      46.7237      46.7237      46.7237 
  452000    131.52635   -7156.3171   -6474.1413   -792.42702     102002.7      46.7237      46.7237      46.7237 
  453000    129.57296   -7172.8039   -6500.7596   -983.76428     102002.7      46.7237      46.7237      46.7237 
  454000    128.90982   -7139.5573   -6470.9523   -808.72265     102002.7      46.7237      46.7237      46.7237 
  455000     128.4977   -7146.2035   -6479.7361   -948.47352     102002.7      46.7237      46.7237      46.7237 
  456000    132.51449   -7134.9357   -6447.6348   -720.94515     102002.7      46.7237      46.7237      46.7237 
  457000     127.9268   -7170.0229   -6506.5166   -861.13457     102002.7      46.7237      46.7237      46.7237 
  458000    131.43823   -7139.1341   -6457.4153    -566.3039     102002.7      46.7237      46.7237      46.7237 
  459000    130.20147   -7171.5649   -6496.2607   -752.07742     102002.7      46.7237      46.7237      46.7237 
  460000    129.11057   -7148.4078   -6478.7617   -738.84682     102002.7      46.7237      46.7237      46.7237 
  461000    127.44064   -7166.6562   -6505.6714   -669.55884     102002.7      46.7237      46.7237      46.7237 
  462000    131.49841   -7159.0416   -6477.0107    -689.5718     102002.7      46.7237      46.7237      46.7237 
  463000    132.46637   -7141.5223   -6454.4709   -783.16589     102002.7      46.7237      46.7237      46.7237 
  464000    127.34249   -7149.1958     -6488.72    -806.4081     102002.7      46.7237      46.7237      46.7237 
  465000    132.43242    -7165.446   -6478.5708   -707.38887     102002.7      46.7237      46.7237      46.7237 
  466000    133.20825   -7150.7984   -6459.8993   -745.04765     102002.7      46.7237      46.7237      46.7237 
  467000    132.28318   -7146.5574   -6460.4562   -589.21917     102002.7      46.7237      46.7237      46.7237 
  468000    129.33298   -7147.6112   -6476.8115   -495.82638     102002.7      46.7237      46.7237      46.7237 
  469000    127.16423   -7140.6531   -6481.1019    -497.3474     102002.7      46.7237      46.7237      46.7237 
  470000    134.94969   -7156.3681   -6456.4368   -524.73721     102002.7      46.7237      46.7237      46.7237 
  471000    128.49571    -7163.764   -6497.3069   -676.91123     102002.7      46.7237      46.7237      46.7237 
  472000    133.86586   -7146.6367   -6452.3267   -446.73094     102002.7      46.7237      46.7237      46.7237 
  473000    125.93011   -7132.8715   -6479.7212   -710.41409     102002.7      46.7237      46.7237      46.7237 
  474000    133.91253   -7127.3109    -6432.759   -601.70045     102002.7      46.7237      46.7237      46.7237 
  475000    127.54653   -7141.4209   -6479.8869   -749.25961     102002.7      46.7237      46.7237      46.7237 
  476000    130.22809    -7163.141   -6487.6987   -812.16312     102002.7      46.7237      46.7237      46.7237 
  477000    125.24397   -7145.7899   -6496.1983   -958.99992     102002.7      46.7237      46.7237      46.7237 
  478000    129.51453   -7141.8281   -6470.0869   -900.24734     102002.7      46.7237      46.7237      46.7237 
  479000    125.67884   -7161.3202   -6509.4732   -879.96286     102002.7      46.7237      46.7237      46.7237 
  480000    126.80273   -7146.3056   -6488.6294   -808.20991     102002.7      46.7237      46.7237      46.7237 
  481000    127.41791   -7158.3693   -6497.5024   -742.86071     102002.7      46.7237      46.7237      46.7237 
  482000    130.18377   -7153.6344   -6478.4221   -693.52848     102002.7      46.7237      46.7237      46.7237 
  483000    132.23554   -7169.4003   -6483.5462   -744.06573     102002.7      46.7237      46.7237      46.7237 
  484000    129.78712   -7172.7487   -6499.5936   -694.70522     102002.7      46.7237      46.7237      46.7237 
  485000    131.40729   -7140.8519   -6459.2936   -801.51284     102002.7      46.7237      46.7237      46.7237 
  486000    129.45754    -7137.674   -6466.2283   -374.91796     102002.7      46.7237      46.7237      46.7237 
  487000    135.82133   -7141.6559   -6437.2037   -534.33769     102002.7      46.7237      46.7237      46.7237 
  488000    130.28754   -7158.6666    -6482.916   -172.76138     102002.7      46.7237      46.7237      46.7237 
  489000    135.39899   -7148.4707   -6446.2091   -632.74414     102002.7      46.7237      46.7237      46.7237 
  490000    131.34216   -7149.2154   -6467.9949   -492.77285     102002.7      46.7237      46.7237      46.7237 
  491000    126.27332   -7165.2003     -6510.27   -613.12133     102002.7      46.7237      46.7237      46.7237 
  492000    126.79516   -7146.9909   -6489.3539   -575.01589     102002.7      46.7237      46.7237      46.7237 
  493000    132.13893   -7160.4183   -6475.0653   -616.82383     102002.7      46.7237      46.7237      46.7237 
  494000    130.14965   -7127.3858   -6452.3503   -1014.3131     102002.7      46.7237      46.7237      46.7237 
  495000     127.0965   -7152.8232   -6493.6233   -599.77002     102002.7      46.7237      46.7237      46.7237 
  496000    127.27291   -7149.9829    -6489.868    -1000.882     102002.7      46.7237      46.7237      46.7237 
  497000    130.99446   -7165.5426   -6486.1255   -776.21969     102002.7      46.7237      46.7237      46.7237 
  498000    131.08274    -7154.746    -6474.871   -917.27856     102002.7      46.7237      46.7237      46.7237 
  499000    133.29484   -7151.8046   -6460.4564   -881.24948     102002.7      46.7237      46.7237      46.7237 
  500000    127.11466   -7154.5918   -6495.2977   -1050.5881     102002.7      46.7237      46.7237      46.7237 
  500503    136.77436    -7161.572   -6452.1768   -813.47329     102002.7      46.7237      46.7237      46.7237 
Loop time of 1342.31 on 16 procs for 500000 steps with 1741 atoms

Performance: 32.183 ns/day, 0.746 hours/ns, 372.492 timesteps/s
99.9% CPU use with 16 MPI tasks x no OpenMP threads

MPI task timing breakdown:
Section |  min time  |  avg time  |  max time  |%varavg| %total
---------------------------------------------------------------
Pair    | 567.19     | 700.25     | 864.23     | 360.3 | 52.17
Bond    | 160.38     | 175.88     | 191.92     |  82.5 | 13.10
Neigh   | 4.8007     | 4.8178     | 4.832      |   0.5 |  0.36
Comm    | 288.52     | 448.01     | 572.57     | 421.0 | 33.38
Output  | 0.020968   | 0.021327   | 0.024727   |   0.6 |  0.00
Modify  | 7.4966     | 7.9539     | 8.3771     |   9.7 |  0.59
Other   |            | 5.381      |            |       |  0.40

Nlocal:    108.812 ave 139 max 86 min
Histogram: 1 2 2 5 0 2 1 1 1 1
Nghost:    2213.44 ave 2234 max 2177 min
Histogram: 1 1 0 0 4 0 1 4 3 2
Neighs:    11460.1 ave 14479 max 8130 min
Histogram: 1 2 1 1 2 3 1 2 0 3

Total # of neighbors = 183362
Ave neighs/atom = 105.32
Ave special neighs/atom = 6.61689
Neighbor list builds = 3816
Dangerous builds = 0
Neighbor list info ...
  update every 1 steps, delay 10 steps, check yes
  max neighbors/atom: 2000, page size: 100000
  master list distance cutoff = 16
  ghost atom cutoff = 16
  binsize = 8, bins = 6 6 6
  3 neighbor lists, perpetual/occasional/extra = 3 0 0
  (1) pair buck6d/coul/gauss/dsf, perpetual, skip from (3)
      attributes: half, newton on
      pair build: skip
      stencil: none
      bin: none
  (2) pair lj/cut, perpetual, skip from (3)
      attributes: half, newton on
      pair build: skip
      stencil: none
      bin: none
  (3) neighbor class addition, perpetual
      attributes: half, newton on
      pair build: half/bin/newton
      stencil: half/bin/3d/newton
      bin: standard
Setting up Verlet run ...
  Unit style    : real
  Current step  : 500503
  Time step     : 1
WARNING: Inconsistent image flags (../domain.cpp:786)
Per MPI rank memory allocation (min/avg/max) = 23.06 | 23.3 | 23.34 Mbytes
Step Time TotEng KinEng PotEng E_mol E_pair Temp Pxx Pyy Pzz Pxy Pxz Pyz Cella Cellb Cellc CellAlpha CellBeta CellGamma Volume Press 
  500503       500000   -6452.1768    709.39518    -7161.572    4411.7494   -11573.321    136.77436   -561.62959    -926.1649   -952.62537   -284.96869    101.58912    75.584047      46.7237      46.7237      46.7237           90           90           90     102002.7   -813.47329 
  501000       500497   -6458.8084    694.61402   -7153.4224    4421.3912   -11574.814    133.92449   -769.06254   -345.70114   -519.40895   -64.222652   -119.65236    124.06718      46.7237      46.7237      46.7237           90           90           90     102002.7   -544.72421 
  502000       501497   -6487.4218    655.14507   -7142.5669    4412.4371   -11555.004    126.31471   -804.28126   -409.39702   -716.81848  -0.11264028   -188.62983   -180.06768      46.7237      46.7237      46.7237           90           90           90     102002.7   -643.49892 
  503000       502497   -6494.1891    669.08555   -7163.2746    4398.2539   -11561.528    129.00249   -539.73533   -490.59729    -809.7912    165.54949   -44.166995    9.0826244      46.7237      46.7237      46.7237           90           90           90     102002.7    -613.3746 
  504000       503497   -6483.5916    667.01752   -7150.6091    4387.2062   -11537.815    128.60377   -496.67525    -217.9467   -766.29695    72.395426    -122.7093    235.41191      46.7237      46.7237      46.7237           90           90           90     102002.7   -493.63963 
  505000       504497   -6495.2607    673.04305   -7168.3038    4381.9815   -11550.285    129.76552   -829.41257   -624.31195   -549.61529    12.996692    200.69891   -196.40247      46.7237      46.7237      46.7237           90           90           90     102002.7   -667.77994 
  506000       505497   -6458.8007    662.88476   -7121.6854    4429.5728   -11551.258    127.80695   -892.17004    -364.8998   -928.08499    40.652487    264.32193    26.886129      46.7237      46.7237      46.7237           90           90           90     102002.7   -728.38494 
  507000       506497    -6505.029    643.49561   -7148.5246    4414.9026   -11563.427    124.06865    -922.9214   -839.34215   -885.91991    238.68349    8.8769448     29.76033      46.7237      46.7237      46.7237           90           90           90     102002.7   -882.72782 
  508000       507497   -6467.8969     667.1857   -7135.0826    4412.2039   -11547.286    128.63619   -350.82214   -468.48124   -590.21941   -12.695052   -241.58782    -272.2037      46.7237      46.7237      46.7237           90           90           90     102002.7   -469.84093 
  509000       508497   -6485.6414    662.72246   -7148.3638    4413.6154   -11561.979    127.77566   -548.19072   -372.54129   -785.43973     82.61284    16.551872    -223.4001      46.7237      46.7237      46.7237           90           90           90     102002.7   -568.72391 
  510000       509497   -6472.3172    683.70515   -7156.0224     4405.612   -11561.634    131.82121   -559.14981   -116.29997   -890.26176   -58.587397   -1.6407202   -121.31625      46.7237      46.7237      46.7237           90           90           90     102002.7   -521.90385 
  511000       510497   -6480.6663     664.3485   -7145.0148    4391.9395   -11536.954    128.08917   -450.23222   -583.57712   -705.52441   -96.043577   -110.69558   -64.467692      46.7237      46.7237      46.7237           90           90           90     102002.7   -579.77792 
  512000       511497   -6459.1525    686.20356    -7145.356    4420.0863   -11565.442    132.30292   -436.99709   -462.54388   -284.92253    227.46106   -245.25151   -156.45809      46.7237      46.7237      46.7237           90           90           90     102002.7   -394.82117 
  513000       512497   -6487.4897    670.43165   -7157.9214    4394.6035   -11552.525    129.26203   -1012.2498    -696.5713   -459.89654    143.07128    128.75541   -406.13674      46.7237      46.7237      46.7237           90           90           90     102002.7   -722.90589 
  514000       513497   -6449.4931    667.62384    -7117.117    4435.0597   -11552.177    128.72067   -35.329009   -435.75079    -461.3399   -94.593043    198.23719   -141.89795      46.7237      46.7237      46.7237           90           90           90     102002.7   -310.80657 
  515000       514497     -6467.94    670.07351   -7138.0135     4412.703   -11550.717    129.19297   -960.33359   -636.37758    37.960802    65.898208   -247.02491   -19.765051      46.7237      46.7237      46.7237           90           90           90     102002.7   -519.58346 
  516000       515497   -6480.0497    661.78664   -7141.8364    4421.3528   -11563.189    127.59523   -553.34898   -861.02299   -1179.0431     -105.392   -103.33051   -226.30999      46.7237      46.7237      46.7237           90           90           90     102002.7   -864.47168 
  517000       516497   -6458.4761     687.3663   -7145.8424    4418.6291   -11564.472     132.5271   -308.55222   -790.78664   -321.96752   -66.501737     270.9787   -69.834756      46.7237      46.7237      46.7237           90           90           90     102002.7   -473.76879 
  518000       517497   -6476.2459     685.9219   -7162.1678    4400.1046   -11562.272    132.24861   -879.96941   -368.85643   -54.638205   -108.82131   -24.903292   -183.58516      46.7237      46.7237      46.7237           90           90           90     102002.7   -434.48802 
  519000       518497    -6520.418    656.60038   -7177.0183    4405.0406   -11582.059     126.5953   -658.60433   -662.88164   -453.46329    236.02977    213.82788   -237.87727      46.7237      46.7237      46.7237           90           90           90     102002.7   -591.64975 
  520000       519497   -6489.5355    664.67712   -7154.2126    4398.2665   -11552.479    128.15253   -75.431534   -175.23547   -174.87593   -47.642989    40.662862   -164.56801      46.7237      46.7237      46.7237           90           90           90     102002.7   -141.84765 
  521000       520497   -6459.6645    705.61291   -7165.2774    4388.5018   -11553.779    136.04512   -315.17534   -372.36609    -748.8089    47.268186   -189.26928   -90.067917      46.7237      46.7237      46.7237           90           90           90     102002.7   -478.78344 
  522000       521497     -6492.68     661.4574   -7154.1374    4391.1473   -11545.285    127.53175   -603.67185   -484.34964   -774.18496   -104.99279   -261.33475    87.824817      46.7237      46.7237      46.7237           90           90           90     102002.7   -620.73548 
  523000       522497   -6450.1233    671.23561   -7121.3589    4442.2599   -11563.619    129.41703   -954.59416   -701.33449   -834.43926      348.301    27.475637   -246.92359      46.7237      46.7237      46.7237           90           90           90     102002.7   -830.12264 
  524000       523497   -6470.7724     661.4348   -7132.2072    4424.8848   -11557.092    127.52739   -779.16504   -706.08858   -1276.2304    81.523802   -148.33111   -228.36077      46.7237      46.7237      46.7237           90           90           90     102002.7   -920.49467 
  525000       524497   -6478.8539    674.47572   -7153.3296    4397.2138   -11550.543    130.04174   -624.91205   -1161.6046   -135.67453    271.15347   -123.51849    104.16061      46.7237      46.7237      46.7237           90           90           90     102002.7   -640.73039 
  526000       525497   -6500.7391    672.03188    -7172.771    4398.8938   -11571.665    129.57056   -555.07658   -872.41186   -532.37595     81.95365   -57.446621    35.294401      46.7237      46.7237      46.7237           90           90           90     102002.7   -653.28813 
  527000       526497   -6463.7051    686.56574   -7150.2709     4396.836   -11547.107    132.37275   -823.02158   -801.72531   -856.20362   -49.827878   -154.41707    82.964297      46.7237      46.7237      46.7237           90           90           90     102002.7    -826.9835 
  528000       527497    -6442.306    678.16181   -7120.4678    4427.0283   -11547.496    130.75243   -495.54295   -951.95163   -591.91544   -144.94103    19.211016   -50.293309      46.7237      46.7237      46.7237           90           90           90     102002.7   -679.80334 
  529000       528497   -6488.1147    667.20799   -7155.3226    4412.1468   -11567.469    128.64049   -1052.3019   -737.74526    -581.4721     224.6907   -95.714011   -25.093039      46.7237      46.7237      46.7237           90           90           90     102002.7   -790.50642 
  530000       529497   -6488.9018    658.63386   -7147.5356    4439.8096   -11587.345    126.98736   -641.74761   -620.49164   -830.85018    66.514877   -59.318217   -202.58495      46.7237      46.7237      46.7237           90           90           90     102002.7   -697.69648 
  531000       530497   -6464.0952    686.93567   -7151.0309    4390.5078   -11541.539    132.44407   -199.40991   -715.62954   -871.29476   -351.42186    284.49267    176.41737      46.7237      46.7237      46.7237           90           90           90     102002.7   -595.44474 
  532000       531497   -6473.3574    658.81184   -7132.1692    4434.5905    -11566.76    127.02168   -781.58082    -570.0214   -705.63552   -211.93225   -33.714178   -90.621039      46.7237      46.7237      46.7237           90           90           90     102002.7   -685.74591 
  533000       532497   -6485.9507    658.51229    -7144.463    4425.5389   -11570.002    126.96392   -380.59451   -446.29443   -891.05976   -231.51083   -104.79376    -97.22374      46.7237      46.7237      46.7237           90           90           90     102002.7   -572.64957 
  534000       533497   -6442.7084     688.5796    -7131.288    4427.9183   -11559.206    132.76103   -712.76112   -590.14161   -865.08827    165.40562    26.415711   -173.62229      46.7237      46.7237      46.7237           90           90           90     102002.7   -722.66367 
  535000       534497   -6490.0695    682.48764   -7172.5572    4377.6466   -11550.204    131.58647   -589.86864   -507.53353   -758.92876    126.46053    186.47368   -1.3834235      46.7237      46.7237      46.7237           90           90           90     102002.7   -618.77698 
  536000       535497   -6482.5788    675.49422    -7158.073    4399.3642   -11557.437    130.23811   -1317.4419   -774.75967   -874.48556   -135.24094   -85.455052   -251.48197      46.7237      46.7237      46.7237           90           90           90     102002.7   -988.89573 
  537000       536497   -6463.6009    672.42712    -7136.028    4424.3311   -11560.359    129.64676    -531.0763   -549.54248   -652.46513     202.6915    70.857961    171.59073      46.7237      46.7237      46.7237           90           90           90     102002.7   -577.69463 
  538000       537497   -6451.7786    688.76157   -7140.5402    4414.1096    -11554.65    132.79611   -347.32619   -597.06725   -913.21063   -56.247296   -201.13268   -76.624453      46.7237      46.7237      46.7237           90           90           90     102002.7   -619.20136 
  539000       538497   -6475.1418    678.08391   -7153.2257    4396.5979   -11549.824    130.73741   -650.34539   -858.00643   -792.69436   -129.85264   -131.60437    -42.56318      46.7237      46.7237      46.7237           90           90           90     102002.7    -767.0154 
  540000       539497   -6477.9937    670.12525   -7148.1189    4409.2927   -11557.412    129.20295   -738.81227   -1133.5466   -1035.6008   -45.381478    47.693352    182.69493      46.7237      46.7237      46.7237           90           90           90     102002.7   -969.31991 
  541000       540497   -6459.2069    680.29705    -7139.504    4443.3684   -11582.872    131.16412    -866.8868   -792.45339   -875.98512    -137.6143   -127.20053    159.18561      46.7237      46.7237      46.7237           90           90           90     102002.7   -845.10844 
  542000       541497   -6487.8135    673.89568   -7161.7092     4397.186   -11558.895    129.92991    -744.6681   -353.23779   -599.48525   -191.44093   -239.41899    292.50069      46.7237      46.7237      46.7237           90           90           90     102002.7   -565.79704 
  543000       542497   -6476.8356    653.91767   -7130.7533    4432.8218   -11563.575    126.07806   -892.71885   -794.85525   -571.40576    56.424376   -136.89615    235.37466      46.7237      46.7237      46.7237           90           90           90     102002.7   -752.99329 
  544000       543497   -6455.0546    656.64392   -7111.6985     4438.138   -11549.837    126.60369   -634.94311   -1008.6706   -711.73006   -4.6353414    149.01054   -149.09235      46.7237      46.7237      46.7237           90           90           90     102002.7   -785.11458 
  545000       544497   -6495.9459    661.92109    -7157.867    4403.1342   -11561.001    127.62116   -645.10649   -427.31665   -828.28947    284.57183    81.312332   -199.82913      46.7237      46.7237      46.7237           90           90           90     102002.7   -633.57087 
  546000       545497   -6465.8598    675.87674   -7141.7366    4397.0177   -11538.754    130.31186   -188.41216   -124.51239   -507.11497    95.315043   -111.69724    48.027759      46.7237      46.7237      46.7237           90           90           90     102002.7    -273.3465 
  547000       546497     -6457.06    685.36814   -7142.4281    4403.4788   -11545.907    132.14184     -761.305   -944.36135   -863.53477    -44.08234    134.92816   -156.14511      46.7237      46.7237      46.7237           90           90           90     102002.7   -856.40037 
  548000       547497   -6475.3185    676.15988   -7151.4784    4407.5711   -11559.049    130.36645   -301.40183   -462.34043   -824.14045   -8.3494645    49.449333    184.73393      46.7237      46.7237      46.7237           90           90           90     102002.7   -529.29423 
  549000       548497   -6506.7208    646.39728   -7153.1181    4414.1899   -11567.308     124.6281   -420.87414   -196.12507   -753.13576    117.81717    39.961081    244.06328      46.7237      46.7237      46.7237           90           90           90     102002.7   -456.71166 
  550000       549497   -6476.5333    669.56446   -7146.0977    4407.5315   -11553.629    129.09483    -694.7776   -874.90103   -1037.1229    185.46323    109.92527    28.069687      46.7237      46.7237      46.7237           90           90           90     102002.7   -868.93386 
  551000       550497   -6470.5549    665.34968   -7135.9046     4408.239   -11544.144     128.2822   -635.61457   -1040.2127   -613.49571    51.969277   -29.567758   -79.325326      46.7237      46.7237      46.7237           90           90           90     102002.7   -763.10765 
  552000       551497   -6477.7242    669.97473    -7147.699    4418.9012     -11566.6    129.17393   -725.86246   -730.43562   -1021.0713    45.326826   -408.05173   -64.338926      46.7237      46.7237      46.7237           90           90           90     102002.7   -825.78979 
  553000       552497   -6447.5159    676.41937   -7123.9352    4434.7583   -11558.694    130.41648    -783.4973   -926.62792   -871.46013    134.61529    35.294164   -56.243212      46.7237      46.7237      46.7237           90           90           90     102002.7   -860.52845 
  554000       553497   -6482.5492    656.39208   -7138.9413    4405.5954   -11544.537    126.55514   -1009.1843   -1065.8404   -726.12532   -54.580635   -122.36417    223.53917      46.7237      46.7237      46.7237           90           90           90     102002.7   -933.71667 
  555000       554497   -6459.5717    670.28101   -7129.8527    4441.2098   -11571.063    129.23298   -982.59524   -842.13353   -680.32587   -13.998398    -313.4417    -33.85445      46.7237      46.7237      46.7237           90           90           90     102002.7   -835.01821 
[...]
  936000       935497   -6496.8894    671.30501   -7168.1944    4395.8261    -11564.02    129.43041   -1037.9214   -1041.2476   -768.33819   -90.229053    64.140085    9.5265474      46.7237      46.7237      46.7237           90           90           90     102002.7   -949.16905 
  937000       936497   -6470.7191    689.56687    -7160.286    4405.8893   -11566.175    132.95138   -876.34605   -1250.2784   -554.49262    7.1855795    45.934593    7.3015869      46.7237      46.7237      46.7237           90           90           90     102002.7   -893.70569 
  938000       937497   -6482.8921    674.71947   -7157.6116    4397.9801   -11555.592    130.08874   -530.56428   -921.37427   -1278.0854    11.589589    166.43749    294.74883      46.7237      46.7237      46.7237           90           90           90     102002.7   -910.00797 
  939000       938497   -6458.4269    685.86537   -7144.2923    4424.6752   -11568.967    132.23771   -647.49879   -1075.5676   -853.02516    162.02535   -142.53966    90.741757      46.7237      46.7237      46.7237           90           90           90     102002.7   -858.69717 
  940000       939497   -6447.1525     686.2507   -7133.4032    4408.1512   -11541.554      132.312   -880.27154   -713.11936   -266.91759   -1.7414919    74.116628   -68.860138      46.7237      46.7237      46.7237           90           90           90     102002.7   -620.10283 
  941000       940497   -6485.7814    678.88012   -7164.6615    4383.0932   -11547.755    130.89093   -469.76496   -605.90874   -637.22386    10.028785    18.827257    132.68159      46.7237      46.7237      46.7237           90           90           90     102002.7   -570.96585 
  942000       941497   -6446.3805     685.3918   -7131.7723    4436.4338   -11568.206    132.14641   -359.25037   -545.29922   -903.54439    28.073571   -16.397709    6.6142876      46.7237      46.7237      46.7237           90           90           90     102002.7   -602.69799 
  943000       942497    -6490.584    678.18323   -7168.7672    4398.9925    -11567.76    130.75656   -406.16311   -913.48243   -708.60732   -6.5565312   -87.798116    92.403864      46.7237      46.7237      46.7237           90           90           90     102002.7   -676.08429 
  944000       943497   -6464.9478    682.85377   -7147.8016    4409.7566   -11557.558    131.65706   -648.67384   -816.09769   -1056.7005   -126.46029   -207.78015   -144.13266      46.7237      46.7237      46.7237           90           90           90     102002.7   -840.49067 
  945000       944497   -6494.5007    661.70257   -7156.2033    4413.7443   -11569.948    127.57902      -925.63   -691.13695   -1220.8943    -138.7682    52.793489    139.06792      46.7237      46.7237      46.7237           90           90           90     102002.7   -945.88709 
  946000       945497   -6461.3152     683.8001   -7145.1153    4422.4361   -11567.551    131.83952   -634.08842   -1289.6439     -450.751   -288.96005    82.547214   -17.366954      46.7237      46.7237      46.7237           90           90           90     102002.7   -791.49443 
  947000       946497   -6503.8202     671.2825   -7175.1027    4398.0478   -11573.151    129.42607   -420.06822   -650.80572   -1002.6527    42.380996     4.316168   -188.12822      46.7237      46.7237      46.7237           90           90           90     102002.7   -691.17553 
  948000       947497   -6473.9064    674.93352   -7148.8399    4402.0653   -11550.905       130.13    14.967661   -569.62149    -463.3164   -14.017995     266.8652    224.84706      46.7237      46.7237      46.7237           90           90           90     102002.7   -339.32341 
  949000       948497   -6510.4916    654.98986   -7165.4814    4386.5672   -11552.049    126.28478   -800.56649   -395.13016   -557.98517   -160.70291    239.53805   -123.43563      46.7237      46.7237      46.7237           90           90           90     102002.7   -584.56061 
  950000       949497   -6446.4452    684.42223   -7130.8674    4430.7647   -11561.632    131.95947   -692.54464    -454.3474    -516.1931     52.65708    186.68378    23.788243      46.7237      46.7237      46.7237           90           90           90     102002.7   -554.36171 
  951000       950497   -6477.5075    671.57922   -7149.0867    4429.9031    -11578.99    129.48328   -823.25191   -387.43911   -378.48156    85.505109   -15.812193   -59.662016      46.7237      46.7237      46.7237           90           90           90     102002.7   -529.72419 
  952000       951497   -6448.1203    678.81028   -7126.9306    4431.8828   -11558.813    130.87746   -797.54295    -850.6432   -846.77532   -162.09853   -292.30074   -290.53435      46.7237      46.7237      46.7237           90           90           90     102002.7   -831.65383 
  953000       952497   -6479.0411    664.19148   -7143.2326    4391.7131   -11534.946    128.05889   -831.95786   -824.70747   -922.40471      53.7107    264.78605   -323.81055      46.7237      46.7237      46.7237           90           90           90     102002.7   -859.69001 
  954000       953497   -6507.4524    658.04439   -7165.4968    4411.7043   -11577.201    126.87371   -988.37927   -532.74856   -1181.3203    54.356123    219.98898    165.97768      46.7237      46.7237      46.7237           90           90           90     102002.7   -900.81603 
  955000       954497   -6480.6177    684.58453   -7165.2023    4381.8963   -11547.099    131.99076   -1085.4364   -1005.9546    -482.5947    89.906684    -233.4809   -279.98888      46.7237      46.7237      46.7237           90           90           90     102002.7   -857.99522 
  956000       955497   -6459.3366    688.85007   -7148.1867      4406.25   -11554.437    132.81317   -377.14009   -562.02624   -1223.8026     54.09524   -67.832107      60.5295      46.7237      46.7237      46.7237           90           90           90     102002.7   -720.98964 
  957000       956497   -6456.5191     687.3069    -7143.826    4413.5058   -11557.332    132.51565   -657.91923   -797.18116   -966.72519   -91.625817   -69.114134   -17.396676      46.7237      46.7237      46.7237           90           90           90     102002.7   -807.27519 
  958000       957497    -6494.369    652.84831   -7147.2173     4408.326   -11555.543    125.87188   -1378.2746   -410.46167   -763.53996    2.2904115    173.04975   -31.977912      46.7237      46.7237      46.7237           90           90           90     102002.7   -850.75874 
  959000       958497    -6468.704    675.17458   -7143.8786    4426.0337   -11569.912    130.17648   -858.28304   -880.75444   -984.42949     114.2414   -170.36608   -219.50667      46.7237      46.7237      46.7237           90           90           90     102002.7   -907.82232 
  960000       959497   -6467.9237    665.68847   -7133.6121    4423.9018   -11557.514    128.34752   -397.77069   -410.73984   -939.48837    129.05155    27.888715    -183.3642      46.7237      46.7237      46.7237           90           90           90     102002.7    -582.6663 
  961000       960497   -6480.4039    671.73746   -7152.1414    4388.1682    -11540.31    129.51379   -551.66599   -630.43125   -1261.4581   -177.78199    275.33855   -358.98564      46.7237      46.7237      46.7237           90           90           90     102002.7   -814.51845 
  962000       961497   -6454.4504    682.99824   -7137.4487    4424.9089   -11562.358    131.68492   -357.25899   -464.02079   -496.54769    -83.70225    291.72858   -336.00695      46.7237      46.7237      46.7237           90           90           90     102002.7   -439.27582 
  963000       962497   -6477.8918    671.75298   -7149.6448    4418.7189   -11568.364    129.51678   -754.44875   -141.08933   -535.70385     3.694924    53.696319   -265.63332      46.7237      46.7237      46.7237           90           90           90     102002.7   -477.08064 
  964000       963497   -6505.7517    659.77927    -7165.531    4387.9329   -11553.464     127.2082   -755.11557   -391.45184   -630.37885   -402.58827    261.94863    -2.055932      46.7237      46.7237      46.7237           90           90           90     102002.7   -592.31542 
  965000       964497   -6480.1036    685.35239    -7165.456    4413.1411   -11578.597    132.13881   -810.12052   -492.65826   -637.99507    28.446874   -228.48792   -3.3863674      46.7237      46.7237      46.7237           90           90           90     102002.7   -646.92462 
  966000       965497   -6481.7087    679.49634   -7161.2051    4406.5521   -11567.757    131.00974   -1009.9897   -975.68609   -1214.2493    -327.2532     -31.9387    88.188524      46.7237      46.7237      46.7237           90           90           90     102002.7   -1066.6417 
  967000       966497   -6503.6793    663.52854   -7167.2079    4390.5074   -11557.715    127.93108   -587.97234   -884.34984   -421.25892   -210.50569   -5.1422358   -110.12408      46.7237      46.7237      46.7237           90           90           90     102002.7    -631.1937 
  968000       967497   -6459.0175    701.58882   -7160.6063    4402.6904   -11563.297    135.26926   -623.44806   -789.49158   -1337.8693    23.812606    250.43267   -109.88984      46.7237      46.7237      46.7237           90           90           90     102002.7   -916.93631 
  969000       968497   -6492.1357    678.27217   -7170.4079    4363.1789   -11533.587    130.77371   -578.31711   -720.95714   -564.10083    13.989504    115.85044      55.2919      46.7237      46.7237      46.7237           90           90           90     102002.7   -621.12502 
  970000       969497   -6455.8517     689.4319   -7145.2836    4420.7485   -11566.032    132.92535   -536.40664   -728.00873   -1097.8387   -80.312584   -10.630803    181.03587      46.7237      46.7237      46.7237           90           90           90     102002.7   -787.41802 
  971000       970497   -6463.9392    687.37794   -7151.3171     4398.899   -11550.216    132.52934   -296.97558   -854.62279   -432.29208   -65.096485    324.68856   -45.859033      46.7237      46.7237      46.7237           90           90           90     102002.7   -527.96348 
  972000       971497   -6489.6108    667.11603   -7156.7268    4407.6927    -11564.42    128.62276   -508.63126   -1006.7318   -738.98184    281.59225   -29.845732    123.81012      46.7237      46.7237      46.7237           90           90           90     102002.7    -751.4483 
  973000       972497   -6444.5777    703.08905   -7147.6668    4404.4202   -11552.087    135.55851   -843.16118   -576.93099   -327.24906    319.32979   -127.44593      183.807      46.7237      46.7237      46.7237           90           90           90     102002.7   -582.44708 
  974000       973497   -6483.7786     659.4245   -7143.2031    4411.5458   -11554.749     127.1398   -274.99496   -926.49494   -709.26653   -9.7106616    67.916185   -2.6578457      46.7237      46.7237      46.7237           90           90           90     102002.7   -636.91881 
  975000       974497   -6479.5104    674.47682   -7153.9872    4400.1372   -11554.124    130.04195    -690.9469    -152.2472   -798.41314   -286.32491   -39.768016    103.91354      46.7237      46.7237      46.7237           90           90           90     102002.7   -547.20241 
  976000       975497   -6471.2418    679.88574   -7151.1275    4400.9786   -11552.106    131.08481     -693.563    -715.0163   -350.29414    163.85227     59.95542     182.1733      46.7237      46.7237      46.7237           90           90           90     102002.7   -586.29114 
  977000       976497   -6480.7251    675.53725   -7156.2624    4394.4475    -11550.71    130.24641   -904.10627   -881.51529   -840.17125    92.269136   -108.81412   -5.0083746      46.7237      46.7237      46.7237           90           90           90     102002.7   -875.26427 
  978000       977497   -6457.9612    671.62322   -7129.5844    4426.9539   -11556.538    129.49176   -614.85469   -826.21116   -770.69836   -124.81051    4.3325666   -185.78773      46.7237      46.7237      46.7237           90           90           90     102002.7   -737.25474 
  979000       978497   -6513.8525    668.14128   -7181.9938    4354.4395   -11536.433    128.82043   -406.28521     -134.715   -551.28745    53.358058     162.3054    -146.6985      46.7237      46.7237      46.7237           90           90           90     102002.7   -364.09589 
  980000       979497   -6472.6494    677.20827   -7149.8577    4391.7248   -11541.582    130.56859   -506.60236   -730.07307   -408.88839   -51.347153   -235.89462    103.92155      46.7237      46.7237      46.7237           90           90           90     102002.7   -548.52127 
  981000       980497   -6484.1916    677.36395   -7161.5555    4401.5396   -11563.095     130.5986   -335.24579   -525.89492   -671.12864   -47.886325   -386.96448   -184.34973      46.7237      46.7237      46.7237           90           90           90     102002.7   -510.75645 
  982000       981497   -6488.2339    660.04432   -7148.2783    4404.9184   -11553.197     127.2593   -912.97307   -378.44753   -612.94827    5.4331876   -221.26221    247.37323      46.7237      46.7237      46.7237           90           90           90     102002.7   -634.78962 
  983000       982497   -6456.7346    695.17895   -7151.9135    4413.3013   -11565.215    134.03341   -1246.3322   -807.16516   -839.99921    37.478882   -119.20027    208.77089      46.7237      46.7237      46.7237           90           90           90     102002.7   -964.49886 
  984000       983497   -6459.0195    665.64846    -7124.668    4429.8474   -11554.515    128.33981   -552.27195   -772.25576   -1094.7149   -172.05668   -41.917972   -218.34672      46.7237      46.7237      46.7237           90           90           90     102002.7   -806.41419 
  985000       984497    -6494.707    660.88779   -7155.5948    4406.7543   -11562.349    127.42193   -704.50106   -983.02534   -1131.3721   -301.56832    169.78265    102.20058      46.7237      46.7237      46.7237           90           90           90     102002.7   -939.63284 
  986000       985497   -6502.1951      664.717   -7166.9121    4383.6136   -11550.526    128.16022   -681.06843   -753.24692   -766.93859    124.33894    161.54026    7.6313479      46.7237      46.7237      46.7237           90           90           90     102002.7   -733.75132 
  987000       986497   -6461.4509    687.15465   -7148.6056    4402.9793   -11551.585    132.48629   -1243.0276   -501.37166   -548.11148    220.66871    -134.7859   -112.58195      46.7237      46.7237      46.7237           90           90           90     102002.7   -764.17025 
  988000       987497   -6480.2132    692.39922   -7172.6124    4381.4157   -11554.028    133.49746   -626.68969   -706.68423   -1281.2476   -72.771761   -69.953296   -108.29191      46.7237      46.7237      46.7237           90           90           90     102002.7   -871.54052 
  989000       988497   -6466.1222    658.41527   -7124.5375    4435.4492   -11559.987    126.94522   -921.50762    -740.8724   -587.60815   -90.523965    10.783744   -116.61667      46.7237      46.7237      46.7237           90           90           90     102002.7   -749.99606 
  990000       989497   -6518.8724    648.85803   -7167.7305    4389.2427   -11556.973    125.10254   -267.01379   -454.31574   -487.30138    216.03375   -238.52549    93.833739      46.7237      46.7237      46.7237           90           90           90     102002.7   -402.87697 
  991000       990497   -6449.3225    691.82147   -7141.1439    4417.3101   -11558.454    133.38607   -423.31395    -1055.672   -504.56622   -141.99278   -49.843406    -53.80962      46.7237      46.7237      46.7237           90           90           90     102002.7   -661.18405 
  992000       991497   -6459.0575    689.17629   -7148.2338    4428.0268   -11576.261    132.87607   -415.49271   -970.56158   -684.89907   -369.77257    198.86772   -34.756395      46.7237      46.7237      46.7237           90           90           90     102002.7   -690.31778 
  993000       992497   -6506.9461    657.72361   -7164.6698    4381.0653   -11545.735    126.81186   -547.34136   -605.39904   -251.27645   -217.59517    139.66617   -104.94619      46.7237      46.7237      46.7237           90           90           90     102002.7   -468.00562 
  994000       993497   -6468.0529    693.27465   -7161.3275     4400.964   -11562.292    133.66625   -635.93148   -886.65009   -693.12814    90.814944   -149.91899    12.774707      46.7237      46.7237      46.7237           90           90           90     102002.7    -738.5699 
  995000       994497   -6451.6809    690.59829   -7142.2792    4399.9053   -11542.184    133.15024   -793.07597   -932.55062   -495.36054   -62.861967   -274.42052     16.17182      46.7237      46.7237      46.7237           90           90           90     102002.7   -740.32905 
  996000       995497   -6481.2176    690.72876   -7171.9464    4378.5065   -11550.453    133.17539   -905.66163   -498.83468   -1177.9452    255.53652   -165.00459    22.718293      46.7237      46.7237      46.7237           90           90           90     102002.7   -860.81383 
  997000       996497   -6441.3867    691.95673   -7133.3435    4432.5941   -11565.938    133.41215   -415.75991    -273.2887   -816.46442     32.00489    6.1241119    159.01826      46.7237      46.7237      46.7237           90           90           90     102002.7   -501.83768 
  998000       997497   -6471.7315    682.66947    -7154.401     4408.443   -11562.844    131.62153   -800.10239   -1121.0988   -430.20195    240.24596   -45.740199    242.43753      46.7237      46.7237      46.7237           90           90           90     102002.7   -783.80103 
  999000       998497   -6504.5496    660.30001   -7164.8496    4388.9134   -11553.763     127.3086   -870.64567   -644.76703   -730.40686   -180.16745   -74.914299    217.01884      46.7237      46.7237      46.7237           90           90           90     102002.7   -748.60652 
 1000000       999497    -6443.262    690.66566   -7133.9277    4427.1829   -11561.111    133.16323   -1042.2962   -500.28149   -1267.1676    47.594413   -135.40799     111.6636      46.7237      46.7237      46.7237           90           90           90     102002.7   -936.58176 
 1000503      1000000   -6471.0501    683.44257   -7154.4926    4410.1816   -11564.674    131.77059   -512.91313   -479.37355   -672.97987   -45.946252    27.643074    105.58076      46.7237      46.7237      46.7237           90           90           90     102002.7   -555.08885 
Loop time of 1352.48 on 16 procs for 500000 steps with 1741 atoms

Performance: 31.941 ns/day, 0.751 hours/ns, 369.692 timesteps/s
99.9% CPU use with 16 MPI tasks x no OpenMP threads

MPI task timing breakdown:
Section |  min time  |  avg time  |  max time  |%varavg| %total
---------------------------------------------------------------
Pair    | 663.04     | 772.84     | 901.5      | 263.9 | 57.14
Bond    | 159.53     | 183.5      | 209.07     | 147.7 | 13.57
Neigh   | 4.2953     | 4.3078     | 4.3191     |   0.4 |  0.32
Comm    | 256.62     | 364.62     | 453.38     | 317.8 | 26.96
Output  | 0.098804   | 0.10413    | 0.10457    |   0.4 |  0.01
Modify  | 21.231     | 21.881     | 22.745     |  11.1 |  1.62
Other   |            | 5.23       |            |       |  0.39

Nlocal:    108.812 ave 137 max 76 min
Histogram: 1 1 1 3 1 2 2 3 0 2
Nghost:    2216.06 ave 2249 max 2190 min
Histogram: 2 0 4 2 2 1 3 0 1 1
Neighs:    11452.8 ave 14880 max 8552 min
Histogram: 1 1 3 1 3 3 2 1 0 1

Total # of neighbors = 183244
Ave neighs/atom = 105.252
Ave special neighs/atom = 6.61689
Neighbor list builds = 3758
Dangerous builds = 0
Total wall time: 0:44:59
