LAMMPS (30 Mar 2018)
Reading data file ...
  orthogonal box = (0 0 0) to (46.7237 46.7237 46.7237)
  2 by 2 by 4 MPI processor grid
  reading atoms ...
  1793 atoms
  scanning bonds ...
  5 = max bonds/atom
  scanning angles ...
  10 = max angles/atom
  scanning dihedrals ...
  32 = max dihedrals/atom
  scanning impropers ...
  3 = max impropers/atom
  reading bonds ...
  2064 bonds
  reading angles ...
  3696 angles
  reading dihedrals ...
  6240 dihedrals
  reading impropers ...
  1008 impropers
Finding 1-2 1-3 1-4 neighbors ...
  special bond factors lj:   0          0          0         
  special bond factors coul: 0          0          0         
  5 = max # of 1-2 neighbors
  8 = max # of 1-3 neighbors
  20 = max # of 1-4 neighbors
  19 = max # of special neighbors
Finding 1-2 1-3 1-4 neighbors ...
  special bond factors lj:   0          0          1         
  special bond factors coul: 1          1          1         
  5 = max # of 1-2 neighbors
  8 = max # of 1-3 neighbors
  19 = max # of special neighbors
WARNING: Using 'neigh_modify every 1 delay 0 check yes' setting during minimization (../min.cpp:168)
Neighbor list info ...
  update every 1 steps, delay 0 steps, check yes
  max neighbors/atom: 2000, page size: 100000
  master list distance cutoff = 16
  ghost atom cutoff = 16
  binsize = 8, bins = 6 6 6
  3 neighbor lists, perpetual/occasional/extra = 3 0 0
  (1) pair buck6d/coul/gauss/dsf, perpetual, skip from (3)
      attributes: half, newton on
      pair build: skip
      stencil: none
      bin: none
  (2) pair lj/cut, perpetual, skip from (3)
      attributes: half, newton on
      pair build: skip
      stencil: none
      bin: none
  (3) neighbor class addition, perpetual
      attributes: half, newton on
      pair build: half/bin/newton
      stencil: half/bin/3d/newton
      bin: standard
Setting up cg style minimization ...
  Unit style    : real
  Current step  : 0
WARNING: Inconsistent image flags (../domain.cpp:786)
Per MPI rank memory allocation (min/avg/max) = 22.89 | 23.35 | 23.79 Mbytes
Step Temp E_pair E_mol TotEng Press 
       0            0    -11690.92    6482.8914   -5208.0283    6213.4134 
     502            0   -11735.448    3736.3328   -7999.1156   -562.28258 
Loop time of 2.67629 on 16 procs for 502 steps with 1793 atoms

99.9% CPU use with 16 MPI tasks x no OpenMP threads

Minimization stats:
  Stopping criterion = max force evaluations
  Energy initial, next-to-last, final = 
        -5208.02832307     -7999.07860433     -7999.11560694
  Force two-norm initial, final = 2576.73 8.71055
  Force max component initial, final = 152.041 1.9019
  Final line search alpha, max atom move = 0.00467708 0.00889534
  Iterations, force evaluations = 502 1000

MPI task timing breakdown:
Section |  min time  |  avg time  |  max time  |%varavg| %total
---------------------------------------------------------------
Pair    | 1.2311     | 1.6135     | 1.932      |  17.5 | 60.29
Bond    | 0.30609    | 0.36068    | 0.41495    |   4.6 | 13.48
Neigh   | 0.018248   | 0.018356   | 0.018557   |   0.1 |  0.69
Comm    | 0.33105    | 0.64467    | 1.0161     |  26.9 | 24.09
Output  | 0          | 0          | 0          |   0.0 |  0.00
Modify  | 0          | 0          | 0          |   0.0 |  0.00
Other   |            | 0.0391     |            |       |  1.46

Nlocal:    112.062 ave 123 max 94 min
Histogram: 1 2 1 0 0 2 1 3 3 3
Nghost:    2248.94 ave 2265 max 2238 min
Histogram: 1 4 4 1 1 1 0 0 2 2
Neighs:    11460.4 ave 15006 max 7759 min
Histogram: 1 3 3 0 1 1 2 0 1 4

Total # of neighbors = 183367
Ave neighs/atom = 102.268
Ave special neighs/atom = 6.42499
Neighbor list builds = 15
Dangerous builds = 0
Neighbor list info ...
  update every 1 steps, delay 10 steps, check yes
  max neighbors/atom: 2000, page size: 100000
  master list distance cutoff = 16
  ghost atom cutoff = 16
  binsize = 8, bins = 6 6 6
  3 neighbor lists, perpetual/occasional/extra = 3 0 0
  (1) pair buck6d/coul/gauss/dsf, perpetual, skip from (3)
      attributes: half, newton on
      pair build: skip
      stencil: none
      bin: none
  (2) pair lj/cut, perpetual, skip from (3)
      attributes: half, newton on
      pair build: skip
      stencil: none
      bin: none
  (3) neighbor class addition, perpetual
      attributes: half, newton on
      pair build: half/bin/newton
      stencil: half/bin/3d/newton
      bin: standard
Setting up Verlet run ...
  Unit style    : real
  Current step  : 502
  Time step     : 1
WARNING: Inconsistent image flags (../domain.cpp:786)
Per MPI rank memory allocation (min/avg/max) = 22.54 | 22.61 | 22.69 Mbytes
Step Temp PotEng TotEng Press Volume Lx Ly Lz 
     502          130   -7999.1156   -7304.7061   -251.08456     102002.7      46.7237      46.7237      46.7237 
    1000    112.94265     -7374.15   -6770.8543   -759.98115     102002.7      46.7237      46.7237      46.7237 
    2000    134.87117   -7287.9121   -6567.4827   -533.54137     102002.7      46.7237      46.7237      46.7237 
    3000    125.48623   -7261.2662   -6590.9675   -1030.5082     102002.7      46.7237      46.7237      46.7237 
    4000    129.57789   -7289.3694   -6597.2146   -879.41047     102002.7      46.7237      46.7237      46.7237 
    5000    131.51996   -7292.6459   -6590.1174   -597.59056     102002.7      46.7237      46.7237      46.7237 
    6000    127.71629   -7301.6653   -6619.4544   -694.55457     102002.7      46.7237      46.7237      46.7237 
    7000    128.09518   -7289.3069   -6605.0722   -626.54134     102002.7      46.7237      46.7237      46.7237 
    8000    129.14515   -7303.5018   -6613.6586   -595.08084     102002.7      46.7237      46.7237      46.7237 
    9000    130.91044   -7308.8026   -6609.5299   -675.51596     102002.7      46.7237      46.7237      46.7237 
   10000    131.47008   -7278.6559   -6576.3938   -948.72504     102002.7      46.7237      46.7237      46.7237 
   11000    129.27021   -7292.7831   -6602.2718    -827.8033     102002.7      46.7237      46.7237      46.7237 
   12000    130.06795   -7297.2708   -6602.4983   -802.00149     102002.7      46.7237      46.7237      46.7237 
   13000     139.0106    -7289.582   -6547.0414   -878.72823     102002.7      46.7237      46.7237      46.7237 
   14000    127.92027   -7265.9485   -6582.6481   -823.40097     102002.7      46.7237      46.7237      46.7237 
   15000    127.34675   -7301.1344   -6620.8975   -1010.3651     102002.7      46.7237      46.7237      46.7237 
   16000    131.41393   -7288.3003   -6586.3381   -554.51454     102002.7      46.7237      46.7237      46.7237 
   17000    126.85791   -7293.9665   -6616.3408   -608.73947     102002.7      46.7237      46.7237      46.7237 
   18000    127.26602   -7266.6858   -6586.8801   -516.67878     102002.7      46.7237      46.7237      46.7237 
   19000    127.80666   -7287.8594   -6605.1658   -635.45594     102002.7      46.7237      46.7237      46.7237 
   20000    128.70861   -7281.5691   -6594.0577    -717.7816     102002.7      46.7237      46.7237      46.7237 
   21000     129.3269   -7311.5832   -6620.7691   -617.67416     102002.7      46.7237      46.7237      46.7237 
   22000    131.34745     -7308.43    -6606.823   -744.06684     102002.7      46.7237      46.7237      46.7237 
   23000    129.57375   -7302.1353   -6610.0027    -842.9941     102002.7      46.7237      46.7237      46.7237 
   24000    129.10737   -7295.3652   -6605.7238   -550.35902     102002.7      46.7237      46.7237      46.7237 
   25000    127.95545   -7257.4807   -6573.9924   -488.61502     102002.7      46.7237      46.7237      46.7237 
   26000    127.06836   -7288.3853   -6609.6355   -556.61923     102002.7      46.7237      46.7237      46.7237 
   27000    134.99571   -7295.3675   -6574.2728   -695.30597     102002.7      46.7237      46.7237      46.7237 
   28000    129.73642   -7277.1021   -6584.1006   -822.40491     102002.7      46.7237      46.7237      46.7237 
   29000    127.12688   -7312.1614   -6633.0989   -669.14002     102002.7      46.7237      46.7237      46.7237 
   30000    127.89278   -7274.5215   -6591.3679   -1020.0732     102002.7      46.7237      46.7237      46.7237 
   31000    128.66471   -7291.9474   -6604.6705    -821.2966     102002.7      46.7237      46.7237      46.7237 
   32000    126.19835   -7288.7178   -6614.6153   -1032.0872     102002.7      46.7237      46.7237      46.7237 
   33000    130.85093   -7270.8581   -6571.9033    -1210.472     102002.7      46.7237      46.7237      46.7237 
   34000    129.82012   -7290.1111   -6596.6624   -789.48652     102002.7      46.7237      46.7237      46.7237 
   35000    129.78667   -7305.2819   -6612.0119    -842.9223     102002.7      46.7237      46.7237      46.7237 
   36000    134.40324   -7315.6427   -6597.7128   -544.56658     102002.7      46.7237      46.7237      46.7237 
   37000    130.98901   -7282.2123   -6582.5199   -628.31791     102002.7      46.7237      46.7237      46.7237 
   38000    132.50793   -7287.3593   -6579.5534   -485.64367     102002.7      46.7237      46.7237      46.7237 
   39000    125.17576   -7280.0428   -6611.4025   -849.81422     102002.7      46.7237      46.7237      46.7237 
   40000    128.00322   -7298.1125    -6614.369   -791.05928     102002.7      46.7237      46.7237      46.7237 
   41000    128.49504   -7276.6831   -6590.3126   -962.39578     102002.7      46.7237      46.7237      46.7237 
   42000     126.4241   -7295.9569   -6620.6484   -664.43064     102002.7      46.7237      46.7237      46.7237 
   43000    127.44627   -7279.2553   -6598.4869   -837.76264     102002.7      46.7237      46.7237      46.7237 
   44000    127.89464   -7308.4001   -6625.2366    -927.0062     102002.7      46.7237      46.7237      46.7237 
   45000    125.68965    -7290.593   -6619.2077   -690.43252     102002.7      46.7237      46.7237      46.7237 
   46000    135.54547   -7288.3798   -6564.3485   -931.18638     102002.7      46.7237      46.7237      46.7237 
   47000    128.05217   -7288.5057   -6604.5007   -921.70197     102002.7      46.7237      46.7237      46.7237 
   48000    126.10807   -7297.5365   -6623.9162   -660.21841     102002.7      46.7237      46.7237      46.7237 
   49000    130.01201    -7278.447   -6583.9734   -1232.6457     102002.7      46.7237      46.7237      46.7237 
   50000    129.94947   -7302.2366    -6608.097   -837.74898     102002.7      46.7237      46.7237      46.7237 
   51000    128.81459   -7314.7945    -6626.717    -560.3984     102002.7      46.7237      46.7237      46.7237 
   52000    130.62248   -7292.4632   -6594.7286   -788.91548     102002.7      46.7237      46.7237      46.7237 
   53000    133.80958   -7301.8338    -6587.075   -801.95069     102002.7      46.7237      46.7237      46.7237 
   54000    129.86699   -7297.0008   -6603.3018   -753.94763     102002.7      46.7237      46.7237      46.7237 
   55000    125.59413   -7308.6695   -6637.7944   -631.42987     102002.7      46.7237      46.7237      46.7237 
   56000    133.17736   -7291.3157    -6579.934   -800.04516     102002.7      46.7237      46.7237      46.7237 
   57000    131.89992   -7304.6769   -6600.1188    -938.4685     102002.7      46.7237      46.7237      46.7237 
   58000    131.35283   -7311.7678    -6610.132   -920.82851     102002.7      46.7237      46.7237      46.7237 
   59000    134.85902   -7279.9386   -6559.5741   -901.96376     102002.7      46.7237      46.7237      46.7237 
   60000    127.35828   -7285.4878   -6605.1893   -762.70105     102002.7      46.7237      46.7237      46.7237 
   61000    132.56387   -7289.5595   -6581.4548   -1073.3309     102002.7      46.7237      46.7237      46.7237 
   62000    130.33134   -7311.3126   -6615.1332   -754.04725     102002.7      46.7237      46.7237      46.7237 
   63000    130.33896    -7283.503   -6587.2828   -1030.3093     102002.7      46.7237      46.7237      46.7237 
   64000    129.61655   -7310.9871   -6618.6258   -993.00926     102002.7      46.7237      46.7237      46.7237 
   65000    125.73379   -7287.4513   -6615.8303   -882.40559     102002.7      46.7237      46.7237      46.7237 
   66000    131.86431    -7270.672   -6566.3041    -1291.625     102002.7      46.7237      46.7237      46.7237 
   67000    130.56409   -7303.0449   -6605.6222   -988.04082     102002.7      46.7237      46.7237      46.7237 
   68000    127.16191     -7319.63   -6640.3804   -775.70663     102002.7      46.7237      46.7237      46.7237 
   69000    125.77193   -7249.6906   -6577.8659   -1118.1043     102002.7      46.7237      46.7237      46.7237 
   70000    132.28574   -7311.0828   -6604.4637    -751.0039     102002.7      46.7237      46.7237      46.7237 
   71000     129.0587    -7288.079   -6598.6975   -560.10984     102002.7      46.7237      46.7237      46.7237 
   72000    127.58743   -7297.0916   -6615.5692   -830.60292     102002.7      46.7237      46.7237      46.7237 
   73000    131.24667    -7286.634   -6585.5653   -757.88123     102002.7      46.7237      46.7237      46.7237 
   74000    131.70412   -7293.7601   -6590.2479   -548.55076     102002.7      46.7237      46.7237      46.7237 
   75000    127.32983   -7317.4233   -6637.2768   -630.12636     102002.7      46.7237      46.7237      46.7237 
   76000     128.6852   -7269.8161   -6582.4297    -592.8978     102002.7      46.7237      46.7237      46.7237 
   77000    126.61684   -7301.9518   -6625.6138   -489.88268     102002.7      46.7237      46.7237      46.7237 
   78000    129.53522   -7294.3742   -6602.4473   -493.78706     102002.7      46.7237      46.7237      46.7237 
   79000    127.58723   -7293.9095    -6612.388   -463.07087     102002.7      46.7237      46.7237      46.7237 
   80000    125.25458   -7269.1154    -6600.054   -529.65712     102002.7      46.7237      46.7237      46.7237 
   81000    133.33075   -7294.3707   -6582.1697   -753.92897     102002.7      46.7237      46.7237      46.7237 
   82000    131.62787   -7284.9757   -6581.8707   -505.09742     102002.7      46.7237      46.7237      46.7237 
   83000    128.88689   -7294.1678   -6605.7041   -744.00164     102002.7      46.7237      46.7237      46.7237 
   84000    132.90685   -7304.3254   -6594.3886   -749.69898     102002.7      46.7237      46.7237      46.7237 
   85000    129.97002   -7296.4657   -6602.2163   -485.53667     102002.7      46.7237      46.7237      46.7237 
   86000    131.47358   -7307.1545   -6604.8737   -739.48305     102002.7      46.7237      46.7237      46.7237 
   87000    127.35843   -7267.3752   -6587.0759   -728.53219     102002.7      46.7237      46.7237      46.7237 
   88000    132.07496   -7283.9034   -6578.4102   -855.98148     102002.7      46.7237      46.7237      46.7237 
   89000    135.42901   -7276.5073   -6553.0981   -569.58849     102002.7      46.7237      46.7237      46.7237 
   90000    129.30861   -7293.8235   -6603.1071   -865.89828     102002.7      46.7237      46.7237      46.7237 
   91000    131.28491   -7290.7939   -6589.5209   -507.36864     102002.7      46.7237      46.7237      46.7237 
   92000    128.79074   -7293.2214   -6605.2713   -933.66053     102002.7      46.7237      46.7237      46.7237 
   93000      130.416   -7294.1066    -6597.475   -617.78546     102002.7      46.7237      46.7237      46.7237 
   94000     129.2963   -7315.2347   -6624.5841   -479.96006     102002.7      46.7237      46.7237      46.7237 
   95000    132.42658   -7293.5967   -6586.2253   -624.99074     102002.7      46.7237      46.7237      46.7237 
   96000     130.0691   -7277.3341   -6582.5555   -648.12495     102002.7      46.7237      46.7237      46.7237 
   97000    131.29061   -7302.5968   -6601.2934   -623.93833     102002.7      46.7237      46.7237      46.7237 
   98000    130.53031      -7270.4   -6573.1578   -825.54333     102002.7      46.7237      46.7237      46.7237 
   99000    128.61825   -7287.2019   -6600.1732   -783.39563     102002.7      46.7237      46.7237      46.7237 
  100000    130.88106    -7292.793   -6593.6772   -931.62917     102002.7      46.7237      46.7237      46.7237 
  101000    127.08724   -7282.4499   -6603.5992   -780.71756     102002.7      46.7237      46.7237      46.7237 
  102000    128.72173    -7307.483   -6619.9015   -814.47181     102002.7      46.7237      46.7237      46.7237 
  103000    131.88604   -7296.1175   -6591.6336   -831.21613     102002.7      46.7237      46.7237      46.7237 
  104000    125.97689   -7302.8258   -6629.9062   -543.49804     102002.7      46.7237      46.7237      46.7237 
  105000    134.24252   -7297.3696   -6580.2981   -780.16192     102002.7      46.7237      46.7237      46.7237 
  106000    127.44604   -7287.1493   -6606.3821   -835.01787     102002.7      46.7237      46.7237      46.7237 
  107000    127.08595   -7292.0658    -6613.222    -768.9626     102002.7      46.7237      46.7237      46.7237 
  108000    131.27081   -7283.3426   -6582.1449   -675.34564     102002.7      46.7237      46.7237      46.7237 
  109000    132.32938    -7261.135   -6554.2829   -453.33155     102002.7      46.7237      46.7237      46.7237 
  110000    135.55311   -7301.4994   -6577.4274   -679.32682     102002.7      46.7237      46.7237      46.7237 
  111000    128.44372   -7300.0389   -6613.9425   -422.30919     102002.7      46.7237      46.7237      46.7237 
  112000    127.61648   -7272.8147   -6591.1371   -673.19815     102002.7      46.7237      46.7237      46.7237 
  113000    128.26468   -7299.5641    -6614.424   -783.48867     102002.7      46.7237      46.7237      46.7237 
  114000    128.13652   -7290.6021   -6606.1466   -699.93715     102002.7      46.7237      46.7237      46.7237 
  115000    135.05744   -7286.8499   -6565.4255   -1024.6209     102002.7      46.7237      46.7237      46.7237 
  116000    129.97823   -7287.7917   -6593.4985   -992.71675     102002.7      46.7237      46.7237      46.7237 
  117000    132.31658   -7288.7159   -6581.9322   -948.75764     102002.7      46.7237      46.7237      46.7237 
  118000    131.14703   -7296.2354   -6595.6989   -802.07162     102002.7      46.7237      46.7237      46.7237 
  119000    130.87011    -7275.653   -6576.5957   -730.80442     102002.7      46.7237      46.7237      46.7237 
  120000    129.38263   -7304.4616   -6613.3499    -913.6616     102002.7      46.7237      46.7237      46.7237 
  121000    130.75384   -7304.9507   -6606.5144   -820.41897     102002.7      46.7237      46.7237      46.7237 
  122000    130.46324   -7271.3945   -6574.5106   -816.12617     102002.7      46.7237      46.7237      46.7237 
  123000    129.72796   -7292.8203   -6599.8639   -702.56871     102002.7      46.7237      46.7237      46.7237 
  124000    124.67137   -7284.0797   -6618.1337   -821.37114     102002.7      46.7237      46.7237      46.7237 
  125000    128.01948   -7308.3961   -6624.5658   -632.39771     102002.7      46.7237      46.7237      46.7237 
  126000     126.8639   -7294.4004   -6616.7427   -710.81967     102002.7      46.7237      46.7237      46.7237 
  127000    132.13956   -7264.7127   -6558.8745   -854.54484     102002.7      46.7237      46.7237      46.7237 
  128000      130.247   -7288.7387   -6593.0098   -792.53494     102002.7      46.7237      46.7237      46.7237 
  129000    128.83941   -7316.1026   -6627.8925   -869.49185     102002.7      46.7237      46.7237      46.7237 
  130000    129.08578   -7276.6577   -6587.1316   -1261.9469     102002.7      46.7237      46.7237      46.7237 
  131000    130.30783   -7301.8623   -6605.8085   -565.64847     102002.7      46.7237      46.7237      46.7237 
  132000    128.11138   -7293.5721   -6609.2509   -678.96514     102002.7      46.7237      46.7237      46.7237 
  133000    132.81618   -7282.9838   -6573.5314   -563.69107     102002.7      46.7237      46.7237      46.7237 
  134000    133.88845   -7294.5368   -6579.3567   -729.67943     102002.7      46.7237      46.7237      46.7237 
  135000    129.36097   -7297.1484   -6606.1523   -807.81541     102002.7      46.7237      46.7237      46.7237 
  136000    129.47569   -7300.8594   -6609.2506   -639.39944     102002.7      46.7237      46.7237      46.7237 
  137000    130.58391   -7272.5871   -6575.0586   -859.75818     102002.7      46.7237      46.7237      46.7237 
  138000    129.31036   -7299.4068   -6608.6811   -879.45345     102002.7      46.7237      46.7237      46.7237 
  139000    129.37035   -7275.3959   -6584.3497   -548.94476     102002.7      46.7237      46.7237      46.7237 
  140000    129.68273   -7308.3242   -6615.6094   -895.66907     102002.7      46.7237      46.7237      46.7237 
  141000    131.60557   -7312.3154   -6609.3296     -765.705     102002.7      46.7237      46.7237      46.7237 
  142000    130.64924   -7285.3117   -6587.4342   -753.15772     102002.7      46.7237      46.7237      46.7237 
  143000    131.08047   -7278.1931   -6578.0122   -673.11312     102002.7      46.7237      46.7237      46.7237 
  144000    127.06067   -7298.2638   -6619.5551    -1052.828     102002.7      46.7237      46.7237      46.7237 
  145000    126.77019   -7270.9786   -6593.8215   -616.38547     102002.7      46.7237      46.7237      46.7237 
  146000    128.78645   -7294.2312   -6606.3041   -645.84654     102002.7      46.7237      46.7237      46.7237 
  147000    134.49846   -7275.5133   -6557.0748   -764.43538     102002.7      46.7237      46.7237      46.7237 
  148000    131.22331   -7303.9107   -6602.9667   -618.07719     102002.7      46.7237      46.7237      46.7237 
  149000    132.42252   -7306.4492   -6599.0996   -658.65358     102002.7      46.7237      46.7237      46.7237 
  150000    130.34475    -7255.658    -6559.407    -578.9633     102002.7      46.7237      46.7237      46.7237 
  151000    127.52803   -7299.2174   -6618.0122    -901.4848     102002.7      46.7237      46.7237      46.7237 
  152000     131.7865   -7279.2371   -6575.2848   -721.27503     102002.7      46.7237      46.7237      46.7237 
  153000    126.73728   -7286.4177   -6609.4364    -892.3385     102002.7      46.7237      46.7237      46.7237 
  154000    131.16294   -7270.2417   -6569.6203   -326.82171     102002.7      46.7237      46.7237      46.7237 
  155000    130.18419   -7303.0493   -6607.6559   -726.32699     102002.7      46.7237      46.7237      46.7237 
  156000    131.13503    -7292.638   -6592.1656   -672.25752     102002.7      46.7237      46.7237      46.7237 
  157000    126.25891   -7293.3874   -6618.9613    -571.0985     102002.7      46.7237      46.7237      46.7237 
  158000    133.48495     -7298.51   -6585.4852   -887.15653     102002.7      46.7237      46.7237      46.7237 
  159000    128.30748   -7254.6342   -6569.2655   -501.48714     102002.7      46.7237      46.7237      46.7237 
  160000    129.17181   -7296.1322   -6606.1465   -601.79817     102002.7      46.7237      46.7237      46.7237 
  161000    122.35911   -7282.9502   -6629.3554   -659.00952     102002.7      46.7237      46.7237      46.7237 
  162000     128.0915    -7294.926   -6610.7109   -814.89114     102002.7      46.7237      46.7237      46.7237 
  163000    133.77169   -7288.3145   -6573.7581   -442.39525     102002.7      46.7237      46.7237      46.7237 
  164000    127.55514   -7283.2647   -6601.9147   -941.66932     102002.7      46.7237      46.7237      46.7237 
  165000    133.33025   -7265.1555   -6552.9571   -840.93114     102002.7      46.7237      46.7237      46.7237 
  166000     129.8068   -7287.0588   -6593.6813   -632.12744     102002.7      46.7237      46.7237      46.7237 
  167000     130.9968   -7301.6848   -6601.9508   -975.65245     102002.7      46.7237      46.7237      46.7237 
  168000    129.50541   -7269.9041   -6578.1365   -788.58732     102002.7      46.7237      46.7237      46.7237 
  169000    134.15156   -7316.7369   -6600.1513   -1016.9027     102002.7      46.7237      46.7237      46.7237 
  170000    131.25289   -7293.2027   -6592.1008   -785.80638     102002.7      46.7237      46.7237      46.7237 
  171000    127.64713   -7309.3969   -6627.5555   -900.91498     102002.7      46.7237      46.7237      46.7237 
  172000    128.89368   -7276.7046   -6588.2046   -992.67091     102002.7      46.7237      46.7237      46.7237 
  173000    131.94638   -7283.8896   -6579.0832   -613.00911     102002.7      46.7237      46.7237      46.7237 
  174000    127.25434   -7304.8001   -6625.0569   -1095.1747     102002.7      46.7237      46.7237      46.7237 
  175000    126.96605   -7301.2452   -6623.0419   -1036.1266     102002.7      46.7237      46.7237      46.7237 
  176000    131.53968   -7287.5941   -6584.9602   -847.55257     102002.7      46.7237      46.7237      46.7237 
  177000    130.88401   -7279.1548   -6580.0232   -854.08013     102002.7      46.7237      46.7237      46.7237 
  178000    128.69969   -7298.4389   -6610.9752   -1009.2839     102002.7      46.7237      46.7237      46.7237 
  179000       131.19   -7288.7425   -6587.9765   -975.19671     102002.7      46.7237      46.7237      46.7237 
  180000    129.68344    -7294.679   -6601.9604   -984.92659     102002.7      46.7237      46.7237      46.7237 
  181000     132.4102   -7259.8347   -6552.5508   -1123.2433     102002.7      46.7237      46.7237      46.7237 
  182000    128.78953   -7302.0117   -6614.0681   -890.76809     102002.7      46.7237      46.7237      46.7237 
  183000    127.60917   -7276.6667   -6595.0281   -602.50997     102002.7      46.7237      46.7237      46.7237 
  184000    128.21401   -7312.1889   -6627.3195   -1086.4945     102002.7      46.7237      46.7237      46.7237 
  185000    130.88027   -7286.5607   -6587.4492   -619.64653     102002.7      46.7237      46.7237      46.7237 
  186000     128.0653   -7301.9579   -6617.8828   -1217.1917     102002.7      46.7237      46.7237      46.7237 
  187000    132.99681   -7286.5089   -6576.0916   -763.05451     102002.7      46.7237      46.7237      46.7237 
  188000    124.83678   -7290.8634   -6624.0338   -882.21853     102002.7      46.7237      46.7237      46.7237 
  189000    131.49006   -7310.4244   -6608.0556    -764.5741     102002.7      46.7237      46.7237      46.7237 
  190000     132.3829   -7270.9006   -6563.7626   -912.67783     102002.7      46.7237      46.7237      46.7237 
  191000    129.68297   -7295.4521   -6602.7361   -851.32096     102002.7      46.7237      46.7237      46.7237 
  192000    123.92725   -7285.3471   -6623.3759   -618.95825     102002.7      46.7237      46.7237      46.7237 
  193000    131.98272   -7290.2403   -6585.2399   -811.10725     102002.7      46.7237      46.7237      46.7237 
  194000    128.25254   -7271.8865   -6586.8112   -268.15065     102002.7      46.7237      46.7237      46.7237 
  195000    129.84366   -7287.4174    -6593.843   -470.06604     102002.7      46.7237      46.7237      46.7237 
  196000    130.93254   -7272.1168   -6572.7261   -830.35652     102002.7      46.7237      46.7237      46.7237 
  197000     130.6992   -7304.0737   -6605.9293    -723.0239     102002.7      46.7237      46.7237      46.7237 
  198000    127.46093   -7286.1533   -6605.3066   -456.66534     102002.7      46.7237      46.7237      46.7237 
  199000    129.97662   -7289.2122   -6594.9276   -928.22272     102002.7      46.7237      46.7237      46.7237 
  200000    129.15537   -7285.1592   -6595.2613   -416.41783     102002.7      46.7237      46.7237      46.7237 
  201000    132.37465   -7262.3668   -6555.2729   -861.06947     102002.7      46.7237      46.7237      46.7237 
  202000    132.13786   -7311.8049   -6605.9758   -846.94851     102002.7      46.7237      46.7237      46.7237 
  203000    128.25066   -7256.2021   -6571.1369   -752.66898     102002.7      46.7237      46.7237      46.7237 
  204000    126.74746   -7299.2984   -6622.2627   -1126.4446     102002.7      46.7237      46.7237      46.7237 
  205000    132.07792   -7270.3918   -6564.8829   -1074.7927     102002.7      46.7237      46.7237      46.7237 
  206000     129.9579   -7300.1702   -6605.9856    -866.1366     102002.7      46.7237      46.7237      46.7237 
  207000    132.15061   -7290.3447   -6584.4475   -722.03553     102002.7      46.7237      46.7237      46.7237 
  208000    133.43951   -7284.6655   -6571.8834   -419.53842     102002.7      46.7237      46.7237      46.7237 
  209000    130.84048   -7296.2182   -6597.3191   -834.27008     102002.7      46.7237      46.7237      46.7237 
  210000    129.02437   -7279.7598   -6590.5618    -637.5818     102002.7      46.7237      46.7237      46.7237 
  211000    128.57285   -7288.3576   -6601.5714   -911.92834     102002.7      46.7237      46.7237      46.7237 
  212000    130.59517   -7289.8197    -6592.231   -790.79211     102002.7      46.7237      46.7237      46.7237 
  213000     127.5346    -7290.975   -6609.7347   -1001.5458     102002.7      46.7237      46.7237      46.7237 
  214000    126.41435    -7303.695   -6628.4387    -562.7304     102002.7      46.7237      46.7237      46.7237 
  215000    128.08203   -7265.9939   -6581.8294   -1259.8019     102002.7      46.7237      46.7237      46.7237 
  216000     127.0113   -7311.8284   -6633.3834   -581.71829     102002.7      46.7237      46.7237      46.7237 
  217000    129.57215   -7307.4287   -6615.3046   -756.97489     102002.7      46.7237      46.7237      46.7237 
  218000    129.99059   -7264.7773    -6570.418   -1049.5158     102002.7      46.7237      46.7237      46.7237 
  219000    131.16329   -7280.9077   -6580.2844   -508.18928     102002.7      46.7237      46.7237      46.7237 
  220000    128.77882   -7293.7236   -6605.8371   -607.93386     102002.7      46.7237      46.7237      46.7237 
  221000    126.66332   -7298.7126   -6622.1263   -732.32036     102002.7      46.7237      46.7237      46.7237 
  222000    133.22576   -7297.0917   -6585.4515   -856.56535     102002.7      46.7237      46.7237      46.7237 
  223000    132.54732   -7293.8694   -6585.8531    -719.4316     102002.7      46.7237      46.7237      46.7237 
  224000    125.51586   -7290.9481   -6620.4912   -829.63962     102002.7      46.7237      46.7237      46.7237 
  225000    130.05457   -7279.2093   -6584.5083   -813.40555     102002.7      46.7237      46.7237      46.7237 
  226000    128.53734   -7289.3623   -6602.7657   -750.36716     102002.7      46.7237      46.7237      46.7237 
  227000    130.16706   -7286.1144   -6590.8125   -795.81529     102002.7      46.7237      46.7237      46.7237 
  228000    130.88203   -7301.3795   -6602.2585   -750.89096     102002.7      46.7237      46.7237      46.7237 
  229000    127.51274   -7283.0399   -6601.9164   -848.18007     102002.7      46.7237      46.7237      46.7237 
  230000    133.92403   -7296.4041   -6581.0339    -790.8467     102002.7      46.7237      46.7237      46.7237 
  231000     131.2001   -7297.3525   -6596.5325   -602.71608     102002.7      46.7237      46.7237      46.7237 
  232000    131.01234   -7295.3909   -6595.5739   -888.71141     102002.7      46.7237      46.7237      46.7237 
  233000    134.38449   -7290.7616   -6572.9319   -221.17189     102002.7      46.7237      46.7237      46.7237 
  234000    127.39836   -7293.3359   -6612.8234   -1010.0383     102002.7      46.7237      46.7237      46.7237 
  235000    129.32445   -7282.7586   -6591.9576   -936.55202     102002.7      46.7237      46.7237      46.7237 
  236000    139.60616   -7285.6021   -6539.8803   -537.85462     102002.7      46.7237      46.7237      46.7237 
  237000    128.44929   -7293.9639   -6607.8377   -489.60993     102002.7      46.7237      46.7237      46.7237 
  238000    130.83627   -7286.4957   -6587.6192   -605.35372     102002.7      46.7237      46.7237      46.7237 
  239000    131.51457   -7291.5432   -6589.0435   -711.10853     102002.7      46.7237      46.7237      46.7237 
  240000    129.58389   -7279.4146   -6587.2278   -709.04279     102002.7      46.7237      46.7237      46.7237 
  241000    130.33737   -7265.9006    -6569.689    -1026.958     102002.7      46.7237      46.7237      46.7237 
  242000    128.41011   -7284.2476   -6598.3306   -664.96509     102002.7      46.7237      46.7237      46.7237 
  243000    127.27561   -7304.7293   -6624.8725    -1083.433     102002.7      46.7237      46.7237      46.7237 
  244000    128.55254   -7316.3048    -6629.627   -1081.1221     102002.7      46.7237      46.7237      46.7237 
  245000    129.80215   -7279.1609   -6585.8082   -841.42833     102002.7      46.7237      46.7237      46.7237 
  246000    131.29305   -7295.0146   -6593.6981   -757.04383     102002.7      46.7237      46.7237      46.7237 
  247000    126.39656   -7284.7394   -6609.5781   -929.78058     102002.7      46.7237      46.7237      46.7237 
  248000    127.01284   -7296.1798   -6617.7266   -845.74588     102002.7      46.7237      46.7237      46.7237 
  249000    128.64371   -7301.6227   -6614.4579   -905.66379     102002.7      46.7237      46.7237      46.7237 
  250000    125.41668   -7266.6111   -6596.6839   -990.56211     102002.7      46.7237      46.7237      46.7237 
  251000    135.68477   -7300.9643    -6576.189   -543.33114     102002.7      46.7237      46.7237      46.7237 
  252000     128.7745   -7285.5884   -6597.7251   -1139.0714     102002.7      46.7237      46.7237      46.7237 
  253000    126.79199   -7291.1537   -6613.8801   -830.73241     102002.7      46.7237      46.7237      46.7237 
  254000    130.93416   -7271.1248   -6571.7253   -838.86308     102002.7      46.7237      46.7237      46.7237 
  255000    130.67025   -7279.8683   -6581.8786    -1001.416     102002.7      46.7237      46.7237      46.7237 
  256000    129.28651    -7305.743   -6615.1447   -796.98394     102002.7      46.7237      46.7237      46.7237 
  257000    124.40756   -7286.5496   -6622.0127   -850.35887     102002.7      46.7237      46.7237      46.7237 
  258000    126.65156   -7282.9066   -6606.3831   -938.47373     102002.7      46.7237      46.7237      46.7237 
  259000    134.20477    -7279.937   -6563.0672   -390.86484     102002.7      46.7237      46.7237      46.7237 
  260000    130.40146   -7305.0206   -6608.4666   -919.80942     102002.7      46.7237      46.7237      46.7237 
  261000    127.97285   -7274.4882    -6590.907   -437.51275     102002.7      46.7237      46.7237      46.7237 
  262000    128.15264    -7260.069   -6575.5274    -717.3901     102002.7      46.7237      46.7237      46.7237 
  263000    128.12637   -7298.0056   -6613.6043   -737.17249     102002.7      46.7237      46.7237      46.7237 
  264000    129.65326   -7283.8171   -6591.2597   -832.57998     102002.7      46.7237      46.7237      46.7237 
  265000     129.2783    -7258.234   -6567.6796   -618.90322     102002.7      46.7237      46.7237      46.7237 
  266000    128.59007   -7290.8245   -6603.9463   -907.03098     102002.7      46.7237      46.7237      46.7237 
  267000    131.65048   -7288.9397   -6585.7139   -854.06778     102002.7      46.7237      46.7237      46.7237 
  268000    129.85152   -7304.7706   -6611.1543   -729.98765     102002.7      46.7237      46.7237      46.7237 
  269000    128.58992   -7298.4353   -6611.5579   -889.29059     102002.7      46.7237      46.7237      46.7237 
  270000    135.96051   -7310.5607   -6584.3124   -1041.1291     102002.7      46.7237      46.7237      46.7237 
  271000    129.15464   -7292.3295   -6602.4356   -871.77166     102002.7      46.7237      46.7237      46.7237 
  272000     132.0908   -7282.9756   -6577.3979   -765.95495     102002.7      46.7237      46.7237      46.7237 
  273000    131.05436   -7292.4224   -6592.3809    -790.6059     102002.7      46.7237      46.7237      46.7237 
  274000    124.95777   -7312.9184   -6645.4425   -1063.7831     102002.7      46.7237      46.7237      46.7237 
  275000    134.72543   -7300.1951   -6580.5442   -1012.1339     102002.7      46.7237      46.7237      46.7237 
  276000    129.41857   -7286.6622   -6595.3584   -902.70424     102002.7      46.7237      46.7237      46.7237 
  277000    132.33718   -7306.4389   -6599.5451   -867.58646     102002.7      46.7237      46.7237      46.7237 
  278000    129.94684   -7293.9912   -6599.8656   -750.81026     102002.7      46.7237      46.7237      46.7237 
  279000     124.9907   -7273.7854   -6606.1336   -826.70225     102002.7      46.7237      46.7237      46.7237 
  280000    126.62158   -7295.2307   -6618.8674   -795.21856     102002.7      46.7237      46.7237      46.7237 
  281000    132.14166   -7298.5657   -6592.7163   -710.52504     102002.7      46.7237      46.7237      46.7237 
  282000    126.96402   -7280.9849   -6602.7924   -729.73078     102002.7      46.7237      46.7237      46.7237 
  283000    129.70259   -7296.2516   -6603.4307   -1065.7995     102002.7      46.7237      46.7237      46.7237 
  284000    128.74502   -7284.4739    -6596.768   -703.35198     102002.7      46.7237      46.7237      46.7237 
  285000    131.64537   -7287.7184   -6584.5199   -967.10055     102002.7      46.7237      46.7237      46.7237 
  286000     125.6639   -7330.4681   -6659.2204   -811.72768     102002.7      46.7237      46.7237      46.7237 
  287000    132.56113   -7295.0072   -6586.9171   -507.07301     102002.7      46.7237      46.7237      46.7237 
  288000    125.98707   -7289.1208   -6616.1468   -686.05204     102002.7      46.7237      46.7237      46.7237 
  289000    128.87491   -7295.8594   -6607.4597   -836.74767     102002.7      46.7237      46.7237      46.7237 
  290000      131.379   -7282.5008   -6580.7252   -768.36107     102002.7      46.7237      46.7237      46.7237 
  291000    129.93498   -7303.1649   -6609.1027   -748.53913     102002.7      46.7237      46.7237      46.7237 
  292000    130.89639   -7278.7496    -6579.552   -692.68846     102002.7      46.7237      46.7237      46.7237 
  293000     129.4092   -7270.0003   -6578.7466   -1045.8565     102002.7      46.7237      46.7237      46.7237 
  294000    131.93838   -7308.1005   -6603.3369    -828.3393     102002.7      46.7237      46.7237      46.7237 
  295000    126.15088   -7296.9023   -6623.0533   -516.03403     102002.7      46.7237      46.7237      46.7237 
  296000    131.35428   -7294.0595    -6592.416   -894.32917     102002.7      46.7237      46.7237      46.7237 
  297000     132.4248   -7285.4709   -6578.1091   -645.39495     102002.7      46.7237      46.7237      46.7237 
  298000    126.37898   -7312.0139   -6636.9464   -911.53458     102002.7      46.7237      46.7237      46.7237 
  299000    129.84542   -7297.6732   -6604.0894   -478.18733     102002.7      46.7237      46.7237      46.7237 
  300000    134.23735   -7280.4385   -6563.3947   -1110.9282     102002.7      46.7237      46.7237      46.7237 
  301000    128.50498   -7296.8679   -6610.4442   -712.77026     102002.7      46.7237      46.7237      46.7237 
  302000    132.25417   -7297.6994    -6591.249   -942.12274     102002.7      46.7237      46.7237      46.7237 
  303000     134.7999   -7293.0472   -6572.9985   -911.44262     102002.7      46.7237      46.7237      46.7237 
  304000    127.92975   -7303.5223   -6620.1713   -602.47399     102002.7      46.7237      46.7237      46.7237 
  305000     132.4817   -7283.2819   -6575.6162   -936.02362     102002.7      46.7237      46.7237      46.7237 
  306000    126.29629    -7276.806   -6602.1802    -538.4768     102002.7      46.7237      46.7237      46.7237 
  307000    132.49747   -7302.8359   -6595.0859   -678.36026     102002.7      46.7237      46.7237      46.7237 
  308000    131.21204   -7275.0023   -6574.1186   -786.46353     102002.7      46.7237      46.7237      46.7237 
  309000    131.48946     -7298.33   -6595.9644   -717.71074     102002.7      46.7237      46.7237      46.7237 
  310000    132.84748   -7303.7872   -6594.1675   -765.66393     102002.7      46.7237      46.7237      46.7237 
  311000    126.88563   -7266.7604   -6588.9867    -1025.827     102002.7      46.7237      46.7237      46.7237 
  312000     129.7719   -7285.2078   -6592.0168   -695.33634     102002.7      46.7237      46.7237      46.7237 
  313000    129.88414    -7296.664   -6602.8733   -867.47754     102002.7      46.7237      46.7237      46.7237 
  314000    127.69383    -7280.744   -6598.6532   -553.03168     102002.7      46.7237      46.7237      46.7237 
  315000    127.81244   -7279.5502   -6596.8258   -654.59477     102002.7      46.7237      46.7237      46.7237 
  316000     129.2827   -7295.7582   -6605.1803   -648.99775     102002.7      46.7237      46.7237      46.7237 
  317000    130.09349   -7281.7884   -6586.8795   -259.11828     102002.7      46.7237      46.7237      46.7237 
  318000    130.34459   -7295.0569   -6598.8067   -772.11705     102002.7      46.7237      46.7237      46.7237 
  319000    128.49605   -7295.3139   -6608.9379   -661.24007     102002.7      46.7237      46.7237      46.7237 
  320000    132.45517   -7277.5001    -6569.976   -778.81805     102002.7      46.7237      46.7237      46.7237 
  321000    129.06572   -7267.8749    -6578.456   -377.84596     102002.7      46.7237      46.7237      46.7237 
  322000    123.22191   -7298.6998   -6640.4962   -631.63617     102002.7      46.7237      46.7237      46.7237 
  323000    129.26373   -7289.4512   -6598.9745   -545.25485     102002.7      46.7237      46.7237      46.7237 
  324000    134.54771   -7283.1739   -6564.4722   -484.60676     102002.7      46.7237      46.7237      46.7237 
  325000    126.70704   -7288.2804   -6611.4606   -899.56726     102002.7      46.7237      46.7237      46.7237 
  326000    132.43532   -7299.8028   -6592.3847   -770.41675     102002.7      46.7237      46.7237      46.7237 
  327000    132.20918   -7298.0461    -6591.836   -970.90144     102002.7      46.7237      46.7237      46.7237 
  328000    128.63254   -7292.1504   -6605.0453    -678.9168     102002.7      46.7237      46.7237      46.7237 
  329000    125.07029   -7284.4274   -6616.3505   -951.83317     102002.7      46.7237      46.7237      46.7237 
  330000    133.01086   -7286.9241   -6576.4318   -900.79876     102002.7      46.7237      46.7237      46.7237 
  331000    125.72265   -7301.2233   -6629.6617   -846.41511     102002.7      46.7237      46.7237      46.7237 
  332000    132.19376   -7294.9955   -6588.8678   -912.11417     102002.7      46.7237      46.7237      46.7237 
  333000    127.47994   -7287.9328   -6606.9845   -786.06393     102002.7      46.7237      46.7237      46.7237 
  334000     128.7581   -7286.8824   -6599.1066   -899.81596     102002.7      46.7237      46.7237      46.7237 
  335000     131.4929   -7271.1223   -6568.7382   -1017.6978     102002.7      46.7237      46.7237      46.7237 
  336000    129.06696   -7307.2124   -6617.7868   -998.36474     102002.7      46.7237      46.7237      46.7237 
  337000    122.81999    -7290.126   -6634.0693   -499.33227     102002.7      46.7237      46.7237      46.7237 
  338000    131.70095   -7286.3553     -6582.86   -813.36752     102002.7      46.7237      46.7237      46.7237 
  339000    125.60114   -7299.2848   -6628.3723   -965.63208     102002.7      46.7237      46.7237      46.7237 
  340000    130.96927   -7313.3092   -6613.7222   -796.19695     102002.7      46.7237      46.7237      46.7237 
  341000    127.26679   -7299.5774   -6619.7676   -1107.8243     102002.7      46.7237      46.7237      46.7237 
  342000    125.38587   -7275.9987    -6606.236   -736.57345     102002.7      46.7237      46.7237      46.7237 
  343000    132.71148   -7297.6876   -6588.7944   -1208.9101     102002.7      46.7237      46.7237      46.7237 
  344000    126.95345   -7285.5905   -6607.4544   -894.51351     102002.7      46.7237      46.7237      46.7237 
  345000    130.04301   -7269.8959   -6575.2567   -584.43409     102002.7      46.7237      46.7237      46.7237 
  346000    131.29856   -7291.1119    -6589.766   -813.50471     102002.7      46.7237      46.7237      46.7237 
  347000    131.49673   -7312.8784   -6610.4739   -721.42271     102002.7      46.7237      46.7237      46.7237 
  348000    129.97545    -7283.433   -6589.1547   -736.12603     102002.7      46.7237      46.7237      46.7237 
  349000    129.93759   -7298.8199   -6604.7437    -455.7805     102002.7      46.7237      46.7237      46.7237 
  350000    127.69524   -7305.9027   -6623.8043   -525.36924     102002.7      46.7237      46.7237      46.7237 
  351000    130.57934   -7296.5051    -6599.001   -736.49093     102002.7      46.7237      46.7237      46.7237 
  352000     130.0926   -7291.6858   -6596.7817   -713.62171     102002.7      46.7237      46.7237      46.7237 
  353000    128.51184   -7273.0669   -6586.6066   -664.51471     102002.7      46.7237      46.7237      46.7237 
  354000    131.48899   -7311.2606   -6608.8975   -767.33244     102002.7      46.7237      46.7237      46.7237 
  355000    128.22599   -7267.2598   -6582.3264   -977.67374     102002.7      46.7237      46.7237      46.7237 
  356000    126.28829   -7290.3016   -6615.7187   -731.78678     102002.7      46.7237      46.7237      46.7237 
  357000    131.42545   -7288.5085   -6586.4848   -880.55163     102002.7      46.7237      46.7237      46.7237 
  358000    127.06138   -7289.0709   -6610.3584   -946.55987     102002.7      46.7237      46.7237      46.7237 
  359000    129.34455   -7286.7641   -6595.8558   -865.99544     102002.7      46.7237      46.7237      46.7237 
  360000    129.77436   -7302.2067   -6609.0025   -525.66591     102002.7      46.7237      46.7237      46.7237 
  361000    126.57761   -7276.0552   -6599.9267   -747.19902     102002.7      46.7237      46.7237      46.7237 
  362000    132.54981   -7297.1938   -6589.1642   -861.78688     102002.7      46.7237      46.7237      46.7237 
  363000    129.01719   -7301.0369   -6611.8772   -656.28825     102002.7      46.7237      46.7237      46.7237 
  364000    127.96418   -7290.8692   -6607.3343   -956.77729     102002.7      46.7237      46.7237      46.7237 
  365000     125.2581   -7303.1739   -6634.0938   -714.99488     102002.7      46.7237      46.7237      46.7237 
  366000    128.77554   -7282.8974   -6595.0285   -643.01106     102002.7      46.7237      46.7237      46.7237 
  367000    128.54821   -7275.2643   -6588.6097   -618.68788     102002.7      46.7237      46.7237      46.7237 
  368000     130.0559   -7302.0644   -6607.3563   -909.36385     102002.7      46.7237      46.7237      46.7237 
  369000    131.28658   -7271.4326   -6570.1507   -651.72102     102002.7      46.7237      46.7237      46.7237 
  370000    131.09899   -7295.2109   -6594.9311   -534.78506     102002.7      46.7237      46.7237      46.7237 
  371000    132.58773   -7299.4577   -6591.2256   -691.69731     102002.7      46.7237      46.7237      46.7237 
  372000    132.56061   -7310.1427   -6602.0555   -804.95096     102002.7      46.7237      46.7237      46.7237 
  373000    131.23901   -7291.7703   -6590.7425   -830.49169     102002.7      46.7237      46.7237      46.7237 
  374000    132.57259   -7295.6609   -6587.5097   -754.19046     102002.7      46.7237      46.7237      46.7237 
  375000    131.61492   -7287.5426   -6584.5068   -892.48123     102002.7      46.7237      46.7237      46.7237 
  376000     130.4112   -7305.8367   -6609.2308   -813.14336     102002.7      46.7237      46.7237      46.7237 
  377000     132.0366    -7267.257   -6561.9687   -857.74951     102002.7      46.7237      46.7237      46.7237 
  378000    127.78458   -7299.3331   -6616.7575    -684.5949     102002.7      46.7237      46.7237      46.7237 
  379000    132.25425   -7293.1466   -6586.6958   -983.56707     102002.7      46.7237      46.7237      46.7237 
  380000    133.91911   -7285.4782   -6570.1344    -599.0245     102002.7      46.7237      46.7237      46.7237 
  381000    127.79368   -7279.7964   -6597.1722   -954.43532     102002.7      46.7237      46.7237      46.7237 
  382000    131.71413   -7298.5114   -6594.9456   -910.78166     102002.7      46.7237      46.7237      46.7237 
  383000    131.32165    -7281.588   -6580.1188   -653.84629     102002.7      46.7237      46.7237      46.7237 
  384000    128.67236   -7300.8886   -6613.5709   -790.39547     102002.7      46.7237      46.7237      46.7237 
  385000     133.8984   -7259.5093   -6544.2761   -888.09271     102002.7      46.7237      46.7237      46.7237 
  386000    129.65899    -7298.554   -6605.9661   -663.88857     102002.7      46.7237      46.7237      46.7237 
  387000    129.93992   -7281.8951   -6587.8065   -1102.9201     102002.7      46.7237      46.7237      46.7237 
  388000    130.90987   -7291.7152   -6592.4456   -769.95705     102002.7      46.7237      46.7237      46.7237 
  389000    130.02154   -7274.0688   -6579.5442   -642.94864     102002.7      46.7237      46.7237      46.7237 
  390000    131.01968     -7265.47   -6565.6138    -922.4947     102002.7      46.7237      46.7237      46.7237 
  391000    127.93845   -7281.5588   -6598.1613   -681.79647     102002.7      46.7237      46.7237      46.7237 
  392000    128.14319   -7277.0923   -6592.6012   -577.88731     102002.7      46.7237      46.7237      46.7237 
  393000    126.88675    -7286.565   -6608.7853   -873.33829     102002.7      46.7237      46.7237      46.7237 
  394000    132.66396   -7296.5148   -6587.8754   -677.63751     102002.7      46.7237      46.7237      46.7237 
  395000    133.44489   -7296.4358    -6583.625   -688.58808     102002.7      46.7237      46.7237      46.7237 
  396000    127.26923   -7304.2449    -6624.422   -811.74976     102002.7      46.7237      46.7237      46.7237 
  397000    130.92297   -7287.8428   -6588.5032   -658.52262     102002.7      46.7237      46.7237      46.7237 
  398000    126.70738   -7311.2545   -6634.4329    -891.4384     102002.7      46.7237      46.7237      46.7237 
  399000    128.57077   -7265.4809   -6578.7058   -821.85774     102002.7      46.7237      46.7237      46.7237 
  400000    131.80322   -7328.8514   -6624.8099   -889.23381     102002.7      46.7237      46.7237      46.7237 
  401000    127.33111   -7274.4474   -6594.2941   -794.13717     102002.7      46.7237      46.7237      46.7237 
  402000    130.67241   -7270.5163   -6572.5151   -464.39192     102002.7      46.7237      46.7237      46.7237 
  403000    132.90646   -7285.7018   -6575.7671   -895.21514     102002.7      46.7237      46.7237      46.7237 
  404000    127.02895   -7288.3404   -6609.8011   -844.82432     102002.7      46.7237      46.7237      46.7237 
  405000    131.98728   -7279.0735   -6574.0487   -663.50245     102002.7      46.7237      46.7237      46.7237 
  406000    132.94058   -7290.8877   -6580.7707   -888.47502     102002.7      46.7237      46.7237      46.7237 
  407000    135.30604   -7277.4171   -6554.6648   -746.93654     102002.7      46.7237      46.7237      46.7237 
  408000    128.03139   -7286.7124   -6602.8184   -863.21465     102002.7      46.7237      46.7237      46.7237 
  409000    132.24552   -7286.7426   -6580.3384   -870.42986     102002.7      46.7237      46.7237      46.7237 
  410000    128.72275   -7291.2724   -6603.6855   -923.32239     102002.7      46.7237      46.7237      46.7237 
  411000    131.54739   -7301.4758   -6598.8007   -780.59016     102002.7      46.7237      46.7237      46.7237 
  412000    131.29377   -7292.3981   -6591.0778   -810.58005     102002.7      46.7237      46.7237      46.7237 
  413000    123.75517    -7294.316    -6633.264   -708.62288     102002.7      46.7237      46.7237      46.7237 
  414000     130.6744   -7286.1251   -6588.1132   -405.23607     102002.7      46.7237      46.7237      46.7237 
  415000    125.87347   -7325.8502   -6653.4831    -903.1112     102002.7      46.7237      46.7237      46.7237 
  416000     130.9117   -7286.6921   -6587.4127   -848.64571     102002.7      46.7237      46.7237      46.7237 
  417000    124.43871   -7279.8012    -6615.098   -664.43069     102002.7      46.7237      46.7237      46.7237 
  418000    131.02019   -7285.0775   -6585.2185   -350.37366     102002.7      46.7237      46.7237      46.7237 
  419000    128.45562   -7295.2753   -6609.1153   -691.39991     102002.7      46.7237      46.7237      46.7237 
  420000    129.83509   -7291.5831   -6598.0544   -775.39937     102002.7      46.7237      46.7237      46.7237 
  421000    132.59449   -7244.4036   -6536.1354   -838.97609     102002.7      46.7237      46.7237      46.7237 
  422000    129.01913   -7301.9297   -6612.7596    -768.5054     102002.7      46.7237      46.7237      46.7237 
  423000    133.78889   -7296.5821   -6581.9338   -619.76978     102002.7      46.7237      46.7237      46.7237 
  424000    126.53442   -7289.1136   -6613.2159   -752.37209     102002.7      46.7237      46.7237      46.7237 
  425000    130.55091   -7284.4947   -6587.1424   -661.70562     102002.7      46.7237      46.7237      46.7237 
  426000    132.43885   -7278.8951   -6571.4582    -933.8531     102002.7      46.7237      46.7237      46.7237 
  427000    129.94393   -7283.3709    -6589.261   -748.27907     102002.7      46.7237      46.7237      46.7237 
  428000    130.33707   -7301.8562   -6605.6462   -836.59875     102002.7      46.7237      46.7237      46.7237 
  429000    133.24034   -7278.6204   -6566.9023    -945.9751     102002.7      46.7237      46.7237      46.7237 
  430000    129.54549   -7305.1876   -6613.2059    -801.9853     102002.7      46.7237      46.7237      46.7237 
  431000    126.82205   -7287.3996   -6609.9655   -1011.4859     102002.7      46.7237      46.7237      46.7237 
  432000    130.13748   -7304.5942   -6609.4504   -969.71009     102002.7      46.7237      46.7237      46.7237 
  433000    130.77052   -7271.2971   -6572.7717   -995.02825     102002.7      46.7237      46.7237      46.7237 
  434000    133.82446   -7309.6589   -6594.8206   -858.38463     102002.7      46.7237      46.7237      46.7237 
  435000    129.20808   -7288.5376   -6598.3582   -936.66624     102002.7      46.7237      46.7237      46.7237 
  436000    130.01145   -7298.1949   -6603.7242   -769.57099     102002.7      46.7237      46.7237      46.7237 
  437000    132.23804   -7299.4867   -6593.1224   -586.81827     102002.7      46.7237      46.7237      46.7237 
  438000    132.44725   -7303.1499   -6595.6681   -1017.3829     102002.7      46.7237      46.7237      46.7237 
  439000    131.16877   -7320.8912   -6620.2386   -682.23014     102002.7      46.7237      46.7237      46.7237 
  440000    130.25459    -7305.214   -6609.4445    -599.1566     102002.7      46.7237      46.7237      46.7237 
  441000    131.47529   -7294.9357   -6592.6457    -675.3586     102002.7      46.7237      46.7237      46.7237 
  442000    131.24965   -7282.7826   -6581.6979   -905.23897     102002.7      46.7237      46.7237      46.7237 
  443000    132.40758   -7289.8941   -6582.6243   -790.27438     102002.7      46.7237      46.7237      46.7237 
  444000    130.60204   -7326.6231   -6628.9977   -751.75442     102002.7      46.7237      46.7237      46.7237 
  445000    131.42034   -7280.0167   -6578.0203   -1094.8877     102002.7      46.7237      46.7237      46.7237 
  446000    130.06206   -7299.9092   -6605.1682    -637.0018     102002.7      46.7237      46.7237      46.7237 
  447000    125.28728   -7280.3697   -6611.1337   -621.43384     102002.7      46.7237      46.7237      46.7237 
  448000    132.54909   -7288.3647   -6580.3389   -776.44176     102002.7      46.7237      46.7237      46.7237 
  449000    127.30459   -7310.5874   -6630.5758   -457.05686     102002.7      46.7237      46.7237      46.7237 
  450000    128.63093   -7299.4365   -6612.3401   -409.06681     102002.7      46.7237      46.7237      46.7237 
  451000    135.51427   -7267.6333   -6543.7687   -572.03922     102002.7      46.7237      46.7237      46.7237 
  452000    126.66565   -7283.9245   -6607.3257   -578.48388     102002.7      46.7237      46.7237      46.7237 
  453000    129.57758   -7305.9933   -6613.8402   -650.18608     102002.7      46.7237      46.7237      46.7237 
  454000    131.59027   -7282.1884   -6579.2842   -465.48489     102002.7      46.7237      46.7237      46.7237 
  455000    131.19485   -7305.9243   -6605.1324   -762.84044     102002.7      46.7237      46.7237      46.7237 
  456000     131.0761   -7301.2636    -6601.106   -736.38978     102002.7      46.7237      46.7237      46.7237 
  457000     133.4556   -7294.8339   -6581.9659   -762.26519     102002.7      46.7237      46.7237      46.7237 
  458000    130.96126   -7278.8272    -6579.283   -715.88182     102002.7      46.7237      46.7237      46.7237 
  459000    132.13481   -7291.3534   -6585.5405   -685.50315     102002.7      46.7237      46.7237      46.7237 
  460000    132.06185   -7285.2177   -6579.7945   -871.66509     102002.7      46.7237      46.7237      46.7237 
  461000    131.32758   -7286.3743   -6584.8734   -809.85602     102002.7      46.7237      46.7237      46.7237 
  462000    126.11974   -7291.3674   -6617.6847   -1024.0934     102002.7      46.7237      46.7237      46.7237 
  463000    131.92012   -7274.0152   -6569.3491   -619.30968     102002.7      46.7237      46.7237      46.7237 
  464000    130.16831   -7296.4371   -6601.1286   -639.01749     102002.7      46.7237      46.7237      46.7237 
  465000    131.29727    -7302.115   -6600.7759   -705.85856     102002.7      46.7237      46.7237      46.7237 
  466000    132.25453   -7263.8456   -6557.3933   -785.10562     102002.7      46.7237      46.7237      46.7237 
  467000    128.50782   -7273.6808    -6587.242   -913.72553     102002.7      46.7237      46.7237      46.7237 
  468000     131.4339   -7295.3389     -6593.27   -849.70312     102002.7      46.7237      46.7237      46.7237 
  469000    128.63124   -7298.8333   -6611.7351    -706.0176     102002.7      46.7237      46.7237      46.7237 
  470000    130.48882   -7283.3263   -6586.3057   -637.90713     102002.7      46.7237      46.7237      46.7237 
  471000    129.57504   -7248.5856   -6556.4461   -676.84897     102002.7      46.7237      46.7237      46.7237 
  472000    128.92146   -7278.7952   -6590.1468   -689.50292     102002.7      46.7237      46.7237      46.7237 
  473000     125.1213   -7279.0596   -6610.7102   -491.09857     102002.7      46.7237      46.7237      46.7237 
  474000    130.58221   -7273.8761   -6576.3566   -713.16782     102002.7      46.7237      46.7237      46.7237 
  475000    125.20129   -7290.9474   -6622.1708   -552.73195     102002.7      46.7237      46.7237      46.7237 
  476000    131.40866   -7305.3125   -6603.3784   -709.11862     102002.7      46.7237      46.7237      46.7237 
  477000    128.76902   -7313.1834   -6625.3493   -691.21025     102002.7      46.7237      46.7237      46.7237 
  478000    132.61735   -7302.7155   -6594.3251   -633.84319     102002.7      46.7237      46.7237      46.7237 
  479000    127.37575   -7279.2949   -6598.9031   -725.30578     102002.7      46.7237      46.7237      46.7237 
  480000    129.18252   -7285.8408   -6595.7979   -666.31745     102002.7      46.7237      46.7237      46.7237 
  481000    134.37966   -7309.4152   -6591.6112        -1173     102002.7      46.7237      46.7237      46.7237 
  482000    125.81396     -7281.55   -6609.5007   -941.04769     102002.7      46.7237      46.7237      46.7237 
  483000    129.54651   -7265.6032   -6573.6161   -1194.2915     102002.7      46.7237      46.7237      46.7237 
  484000    127.89933   -7296.8232   -6613.6347   -880.04384     102002.7      46.7237      46.7237      46.7237 
  485000    129.39749   -7296.7526   -6605.5614   -785.88244     102002.7      46.7237      46.7237      46.7237 
  486000    125.89154   -7266.8173   -6594.3536   -415.26866     102002.7      46.7237      46.7237      46.7237 
  487000    127.97222   -7275.6846   -6592.1068   -681.97637     102002.7      46.7237      46.7237      46.7237 
  488000    132.13622   -7289.2101   -6583.3897   -1171.5442     102002.7      46.7237      46.7237      46.7237 
  489000    132.15697   -7305.3992    -6599.468   -586.96489     102002.7      46.7237      46.7237      46.7237 
  490000    127.64729   -7302.4436   -6620.6014   -566.98039     102002.7      46.7237      46.7237      46.7237 
  491000    134.65563   -7297.0264   -6577.7483   -887.03462     102002.7      46.7237      46.7237      46.7237 
  492000     130.5525   -7284.9036   -6587.5429   -781.42027     102002.7      46.7237      46.7237      46.7237 
  493000    129.71841     -7295.25   -6602.3446   -951.06817     102002.7      46.7237      46.7237      46.7237 
  494000     130.2064   -7284.3246   -6588.8126   -1036.1001     102002.7      46.7237      46.7237      46.7237 
  495000    132.65821   -7296.5615   -6587.9529   -728.04544     102002.7      46.7237      46.7237      46.7237 
  496000     130.0072   -7317.4267   -6622.9788   -554.75229     102002.7      46.7237      46.7237      46.7237 
  497000    130.49778   -7286.9984   -6589.9299   -615.82225     102002.7      46.7237      46.7237      46.7237 
  498000    128.55614   -7321.1335   -6634.4365   -760.96471     102002.7      46.7237      46.7237      46.7237 
  499000    129.94341   -7277.2339   -6583.1267   -836.68873     102002.7      46.7237      46.7237      46.7237 
  500000     134.9372   -7289.8908   -6569.1087   -707.22602     102002.7      46.7237      46.7237      46.7237 
  500502    130.49199   -7293.3362   -6596.2987    -921.6214     102002.7      46.7237      46.7237      46.7237 
Loop time of 1364.46 on 16 procs for 500000 steps with 1793 atoms

Performance: 31.661 ns/day, 0.758 hours/ns, 366.446 timesteps/s
99.8% CPU use with 16 MPI tasks x no OpenMP threads

MPI task timing breakdown:
Section |  min time  |  avg time  |  max time  |%varavg| %total
---------------------------------------------------------------
Pair    | 471.31     | 701.53     | 923.87     | 637.1 | 51.41
Bond    | 151.86     | 174.16     | 194.68     | 138.0 | 12.76
Neigh   | 5.6146     | 5.6501     | 5.7203     |   1.4 |  0.41
Comm    | 230.38     | 469.51     | 716.22     | 856.9 | 34.41
Output  | 0.020518   | 0.020962   | 0.023663   |   0.5 |  0.00
Modify  | 7.3416     | 8.1274     | 8.6711     |  14.9 |  0.60
Other   |            | 5.46       |            |       |  0.40

Nlocal:    112.062 ave 141 max 72 min
Histogram: 2 1 0 1 1 2 4 0 2 3
Nghost:    2275.88 ave 2312 max 2248 min
Histogram: 2 2 2 1 2 3 0 2 0 2
Neighs:    11470.3 ave 18328 max 4741 min
Histogram: 1 1 2 4 0 2 1 2 2 1

Total # of neighbors = 183525
Ave neighs/atom = 102.356
Ave special neighs/atom = 6.42499
Neighbor list builds = 4341
Dangerous builds = 0
Neighbor list info ...
  update every 1 steps, delay 10 steps, check yes
  max neighbors/atom: 2000, page size: 100000
  master list distance cutoff = 16
  ghost atom cutoff = 16
  binsize = 8, bins = 6 6 6
  3 neighbor lists, perpetual/occasional/extra = 3 0 0
  (1) pair buck6d/coul/gauss/dsf, perpetual, skip from (3)
      attributes: half, newton on
      pair build: skip
      stencil: none
      bin: none
  (2) pair lj/cut, perpetual, skip from (3)
      attributes: half, newton on
      pair build: skip
      stencil: none
      bin: none
  (3) neighbor class addition, perpetual
      attributes: half, newton on
      pair build: half/bin/newton
      stencil: half/bin/3d/newton
      bin: standard
Setting up Verlet run ...
  Unit style    : real
  Current step  : 500502
  Time step     : 1
WARNING: Inconsistent image flags (../domain.cpp:786)
Per MPI rank memory allocation (min/avg/max) = 22.88 | 23.29 | 23.34 Mbytes
Step Time TotEng KinEng PotEng E_mol E_pair Temp Pxx Pyy Pzz Pxy Pxz Pyz Cella Cellb Cellc CellAlpha CellBeta CellGamma Volume Press 
  500502       500000   -6596.2987    697.03753   -7293.3362    4410.4253   -11703.761    130.49199   -909.74474   -747.81273   -1107.3067    42.075661   -303.94076    224.50037      46.7237      46.7237      46.7237           90           90           90     102002.7    -921.6214 
  501000       500498   -6597.0933    695.36281   -7292.4561    4402.5365   -11694.993    130.17847   -644.57523   -427.11388   -811.67819    137.14244   -28.641912    51.910215      46.7237      46.7237      46.7237           90           90           90     102002.7    -627.7891 
  502000       501498   -6591.4339    706.52364   -7297.9575    4404.3584   -11702.316    132.26788   -745.13794    -1283.551   -527.17293   -9.7462871     224.2825    18.174164      46.7237      46.7237      46.7237           90           90           90     102002.7   -851.95394 
  503000       502498   -6639.5954    656.11534   -7295.7108    4415.6764   -11711.387    122.83097   -700.59779   -814.87897   -1348.2059   -149.26697     150.1082    325.32167      46.7237      46.7237      46.7237           90           90           90     102002.7   -954.56087 
  504000       503498   -6595.4485    684.93759   -7280.3861    4410.3351   -11690.721    128.22677   -586.46839   -840.21663   -697.53263   -105.43038    2.6675373   -9.8309376      46.7237      46.7237      46.7237           90           90           90     102002.7   -708.07255 
  505000       504498   -6591.7564    700.53323   -7292.2896    4410.9636   -11703.253    131.14642   -1064.2942   -879.09356    -377.3316   -191.52018    295.59734    91.914765      46.7237      46.7237      46.7237           90           90           90     102002.7   -773.57313 
  506000       505498   -6619.0656    686.54805   -7305.6136    4397.7958   -11703.409    128.52826    -552.4994   -1084.8983   -1114.8976   -41.001776   -176.34144    161.78391      46.7237      46.7237      46.7237           90           90           90     102002.7   -917.43176 
  507000       506498   -6566.8251    717.61826   -7284.4433    4435.5774   -11720.021     134.3449   -725.92735   -561.52481   -1052.7476   -360.99766   -5.8478604    43.382629      46.7237      46.7237      46.7237           90           90           90     102002.7   -780.06658 
  508000       507498   -6603.0777    686.32787   -7289.4055    4423.6263   -11713.032    128.48704   -842.30848   -987.89459   -346.97964   -89.500262    108.45998   -311.34784      46.7237      46.7237      46.7237           90           90           90     102002.7   -725.72757 
  509000       508498   -6603.8979    687.26641   -7291.1643    4406.7959    -11697.96    128.66274    -378.9098   -220.20979   -817.89106     17.58651   -84.158978     119.6723      46.7237      46.7237      46.7237           90           90           90     102002.7   -472.33688 
  510000       509498    -6583.403    706.07514   -7289.4782     4420.506   -11709.984    132.18392   -242.95891   -506.79754   -911.33324   -203.62462    28.592751     391.7459      46.7237      46.7237      46.7237           90           90           90     102002.7   -553.69657 
  511000       510498   -6643.0748    667.75708   -7310.8319    4391.4662   -11702.298    125.01041   -795.02188   -1195.6061   -372.06511   -163.13719     154.2193    184.34386      46.7237      46.7237      46.7237           90           90           90     102002.7   -787.56435 
  512000       511498   -6602.3801    693.78864   -7296.1688    4403.9009    -11700.07    129.88377   -656.53087   -727.51139   -1090.5891    327.90308    110.65063   -214.12776      46.7237      46.7237      46.7237           90           90           90     102002.7   -824.87712 
  513000       512498   -6584.4033    689.87585   -7274.2791    4434.8521   -11709.131    129.15126   -718.67115    -901.8136   -760.25751   -130.13621   -209.16298    101.57048      46.7237      46.7237      46.7237           90           90           90     102002.7   -793.58075 
  514000       513498   -6592.9558    693.10074   -7286.0566    4408.2636    -11694.32    129.75499     -1171.35   -851.44489    -1263.512    244.26725   -139.09658    199.92641      46.7237      46.7237      46.7237           90           90           90     102002.7   -1095.4356 
  515000       514498   -6569.3385    706.50349    -7275.842    4416.2191   -11692.061    132.26411   -834.61771   -828.02512   -906.43455    163.52395    135.26125    203.41609      46.7237      46.7237      46.7237           90           90           90     102002.7   -856.35913 
  516000       515498   -6567.8903    704.78953   -7272.6798    4429.5716   -11702.251    131.94324   -633.53177   -823.42205   -815.05298   -13.485413   -16.870431    69.837801      46.7237      46.7237      46.7237           90           90           90     102002.7    -757.3356 
  517000       516498   -6599.7806    697.05136   -7296.8319    4394.8834   -11691.715    130.49458   -1188.1738   -782.68448   -589.33222    51.745762    39.701555    307.82023      46.7237      46.7237      46.7237           90           90           90     102002.7   -853.39683 
  518000       517498   -6580.7761    704.84083    -7285.617    4411.7578   -11697.375    131.95284   -876.62815   -667.05731   -965.13002   -82.495985   -5.1685232    197.93577      46.7237      46.7237      46.7237           90           90           90     102002.7   -836.27183 
  519000       518498   -6612.4511    683.78459   -7296.2357    4397.3642     -11693.6    128.01092   -384.13166   -987.75917   -1109.0265    185.29116   -254.34323    175.43449      46.7237      46.7237      46.7237           90           90           90     102002.7   -826.97245 
  520000       519498   -6604.1552    673.10831   -7277.2635    4427.0895   -11704.353    126.01222   -1194.4578   -773.25463   -1079.1654   -254.24816   -151.27565    110.60329      46.7237      46.7237      46.7237           90           90           90     102002.7   -1015.6259 
  521000       520498   -6588.9043    683.72797   -7272.6323    4434.4896   -11707.122    128.00031   -684.01114   -1202.5006   -661.10733    73.972761    111.11694   -97.638829      46.7237      46.7237      46.7237           90           90           90     102002.7   -849.20634 
  522000       521498   -6615.8692    705.33259   -7321.2018    4378.5678    -11699.77     132.0449    -958.7539   -724.56828   -640.38125   -232.11575    243.09964    51.471793      46.7237      46.7237      46.7237           90           90           90     102002.7   -774.56781 
  523000       522498   -6577.8556    675.55048    -7253.406    4455.3032   -11708.709    126.46941   -1097.3226   -758.12612   -1060.5768   -118.74638    77.752969   -127.91583      46.7237      46.7237      46.7237           90           90           90     102002.7   -972.00849 
  524000       523498    -6602.453    680.89901    -7283.352    4417.9904   -11701.342    127.47071   -958.27688   -1039.2877   -162.70822   -45.183512    167.06475    145.12574      46.7237      46.7237      46.7237           90           90           90     102002.7   -720.09093 
  525000       524498    -6620.347    673.47208   -7293.8191    4414.4204   -11708.239    126.08032   -951.52542   -995.63052   -764.75182   -25.282562    95.136591    191.12531      46.7237      46.7237      46.7237           90           90           90     102002.7   -903.96925 
  526000       525498   -6588.3755    705.36427   -7293.7398    4428.3376   -11722.077    132.05083   -834.03511   -690.44776   -476.77008   -114.49194    28.907854    9.5088504      46.7237      46.7237      46.7237           90           90           90     102002.7   -667.08432 
  527000       526498   -6610.4718    682.74222    -7293.214     4402.171   -11695.385    127.81577   -875.62785   -683.95172   -408.97334    198.91103    36.864348   -106.66374      46.7237      46.7237      46.7237           90           90           90     102002.7    -656.1843 
  528000       527498   -6587.3675    711.43455   -7298.8021    4397.3483    -11696.15    133.18725   -643.09465   -1039.1884   -619.39212     99.99656   -106.44547   -136.10235      46.7237      46.7237      46.7237           90           90           90     102002.7   -767.22505 
  529000       528498   -6595.6479    696.30875   -7291.9566    4408.3777   -11700.334    130.35556   -64.988065   -727.58623    -931.9517   -129.21999    96.579158    71.786806      46.7237      46.7237      46.7237           90           90           90     102002.7     -574.842 
  530000       529498   -6601.0953    681.66467     -7282.76    4425.4989   -11708.259    127.61405    -225.4376   -398.48291   -621.49857   -30.826485    17.614937    -336.5493      46.7237      46.7237      46.7237           90           90           90     102002.7    -415.1397 
  531000       530498   -6543.5877    725.45162   -7269.0394     4423.052   -11692.091    135.81137   -797.01476   -607.21858   -607.93498    -218.1608    11.878241   -140.92033      46.7237      46.7237      46.7237           90           90           90     102002.7   -670.72277 
  532000       531498   -6602.5942    686.14977    -7288.744     4407.543   -11696.287     128.4537   -681.80828   -429.74494    -926.0047    189.05254   -10.630623   -61.116362      46.7237      46.7237      46.7237           90           90           90     102002.7   -679.18597 
  533000       532498   -6562.9116    711.09472   -7274.0064     4433.681   -11707.687    133.12363   -908.70164   -1272.5098   -994.74841   -64.185323   -123.03994     8.413305      46.7237      46.7237      46.7237           90           90           90     102002.7   -1058.6533 
  534000       533498   -6600.2677    682.75865   -7283.0264    4419.6417   -11702.668    127.81885   -1066.3459   -826.05879   -422.96883    356.43779    -252.0021     -332.976      46.7237      46.7237      46.7237           90           90           90     102002.7   -771.79118 
  535000       534498   -6616.6977     688.4214   -7305.1191    4392.5186   -11697.638    128.87897   -954.27048   -847.41217   -1139.5413    148.31765  0.078575362    28.838763      46.7237      46.7237      46.7237           90           90           90     102002.7   -980.40799 
  536000       535498   -6591.3215    704.80878   -7296.1303     4405.892   -11702.022    131.94684   -851.31228   -677.18898   -928.31785   -291.77411    117.09688    90.126801      46.7237      46.7237      46.7237           90           90           90     102002.7   -818.93971 
  537000       536498   -6619.4318    693.37963   -7312.8114    4413.6781    -11726.49     129.8072   -1218.8699   -1388.2889   -893.90002    36.622515    -46.14193    91.881248      46.7237      46.7237      46.7237           90           90           90     102002.7   -1167.0196 
  538000       537498   -6595.8349    697.75963   -7293.5945    4392.6271   -11686.222    130.62717   -1075.0107   -1298.0902   -1150.9296   -110.20146   -225.56439    -88.11578      46.7237      46.7237      46.7237           90           90           90     102002.7   -1174.6768 
  539000       538498   -6580.1465    719.52762   -7299.6742    4411.6301   -11711.304    134.70235   -1058.3435   -536.34541   -1069.9075    -32.82066    176.00223    89.536745      46.7237      46.7237      46.7237           90           90           90     102002.7   -888.19879 
  540000       539498   -6598.7375    693.11451    -7291.852    4417.4031   -11709.255    129.75756   -1378.6663   -583.01246   -1251.0596    47.833449    131.86006   -147.65781      46.7237      46.7237      46.7237           90           90           90     102002.7   -1070.9128 
  541000       540498    -6608.457    701.34552   -7309.8025    4401.0008   -11710.803    131.29849   -867.91823   -646.61281   -673.60074    32.251554   -40.800105   -59.187854      46.7237      46.7237      46.7237           90           90           90     102002.7   -729.37726 
  542000       541498    -6604.969    691.81348   -7296.7825    4408.1634   -11704.946      129.514   -657.00857   -534.98161   -485.85678    18.457483   -145.67574    101.23044      46.7237      46.7237      46.7237           90           90           90     102002.7   -559.28232 
  543000       542498    -6580.397    693.61241   -7274.0094    4436.9595   -11710.969    129.85078   -864.92019   -159.40665   -759.08282    139.23649    260.45979   -114.21708      46.7237      46.7237      46.7237           90           90           90     102002.7   -594.46989 
  544000       543498   -6620.5085    693.78229   -7314.2908    4399.3184   -11713.609    129.88258   -918.03895   -454.17512   -429.99952   -79.170623   -104.11151    64.148926      46.7237      46.7237      46.7237           90           90           90     102002.7   -600.73786 
  545000       544498     -6608.75    696.51458   -7305.2645    4391.8386   -11697.103    130.39409   -634.33142   -431.82298   -1013.7538   -160.44209      158.157    179.90847      46.7237      46.7237      46.7237           90           90           90     102002.7   -693.30274 
  546000       545498    -6588.908    681.09787   -7270.0059    4427.5001   -11697.506    127.50794   -738.64329   -742.47752   -316.64671    105.57655    117.81887   -323.17483      46.7237      46.7237      46.7237           90           90           90     102002.7   -599.25584 
  547000       546498   -6576.7973    721.89429   -7298.6915    4398.2763   -11696.968    135.14541    -427.2504   -875.80436   -935.60053   -37.154563    159.69911   -56.996428      46.7237      46.7237      46.7237           90           90           90     102002.7   -746.21843 
  548000       547498   -6626.1091    683.97742   -7310.0865    4384.7084   -11694.795    128.04701   -870.83287   -675.63885   -926.96502   -42.183488   -53.093576    215.00574      46.7237      46.7237      46.7237           90           90           90     102002.7   -824.47891 
  549000       548498   -6595.5984    688.95037   -7284.5488    4432.2122   -11716.761      128.978   -1073.3454   -488.71636     -201.929   -86.933764    453.42188   -88.019605      46.7237      46.7237      46.7237           90           90           90     102002.7   -587.99693 
  550000       549498   -6597.9344    687.38297   -7285.3174     4410.312   -11695.629    128.68457   -777.12927    -586.7486    -545.2823   -61.670444     146.3153   -16.633903      46.7237      46.7237      46.7237           90           90           90     102002.7   -636.38672 
  551000       550498    -6572.585    701.34277   -7273.9278    4438.7967   -11712.724    131.29797   -628.77429   -680.77149   -765.29699   -3.9640644   -164.15013    52.512848      46.7237      46.7237      46.7237           90           90           90     102002.7   -691.61425 
  552000       551498   -6604.5241    681.59993    -7286.124    4417.4477   -11703.572    127.60193   -984.60156   -750.16549   -870.14837     48.98912    77.372063    22.035169      46.7237      46.7237      46.7237           90           90           90     102002.7   -868.30514 
  553000       552498    -6617.445    680.15487   -7297.5998    4400.1839   -11697.784     127.3314    -369.8502   -730.99088   -808.43972    27.697231   -178.83111    3.9038547      46.7237      46.7237      46.7237           90           90           90     102002.7   -636.42693 
  554000       553498   -6587.0456    694.19951   -7281.2451    4410.9711   -11692.216    129.96069   -777.37368   -438.52075   -1023.3453    24.697577   -51.449238   -127.24466      46.7237      46.7237      46.7237           90           90           90     102002.7   -746.41326 
  555000       554498   -6635.6823    679.27628   -7314.9586      4381.91   -11696.869    127.16692   -396.84218   -439.53926   -1116.7904   -45.013147   -221.01679   -16.663569      46.7237      46.7237      46.7237           90           90           90     102002.7   -651.05728 
[...]
  936000       935498   -6628.3225     673.4631   -7301.7856    4403.8723   -11705.658    126.07864   -1501.5373   -661.06877    -657.4802   -139.94349    203.54432    15.778376      46.7237      46.7237      46.7237           90           90           90     102002.7   -940.02877 
  937000       936498   -6581.3563    695.68875    -7277.045    4426.9826   -11704.028    130.23949   -580.43157   -613.02527   -622.61292    63.983983    204.02278   -143.32127      46.7237      46.7237      46.7237           90           90           90     102002.7   -605.35659 
  938000       937498   -6609.1224    707.74289   -7316.8653    4384.6765   -11701.542    132.49614   -786.31526   -906.11944   -767.87998    253.97177    39.950878    234.61008      46.7237      46.7237      46.7237           90           90           90     102002.7    -820.1049 
  939000       938498   -6558.6213    700.03239   -7258.6537    4454.7763    -11713.43    131.05266   -905.74824   -205.59538   -999.25787    264.53683   -203.24523    -87.00056      46.7237      46.7237      46.7237           90           90           90     102002.7   -703.53383 
  940000       939498   -6567.6266    685.37645   -7253.0031    4423.9068    -11676.91    128.30893   -826.17976   -987.44883   -1097.1252   -166.98433    175.80902   -68.351595      46.7237      46.7237      46.7237           90           90           90     102002.7   -970.25126 
  941000       940498   -6600.4921    703.78001   -7304.2721    4390.6337   -11694.906    131.75425   -1162.7416   -513.83388   -872.12315   -65.401798   -98.298343     94.60532      46.7237      46.7237      46.7237           90           90           90     102002.7   -849.56619 
  942000       941498   -6583.5167    693.55491   -7277.0716    4433.5044   -11710.576    129.84001   -900.47647   -690.20117   -954.40897    80.956086    93.691596    37.998476      46.7237      46.7237      46.7237           90           90           90     102002.7    -848.3622 
  943000       942498   -6592.6882    700.56704   -7293.2552     4396.307   -11689.562    131.15275   -659.92508   -932.18927   -153.66941   -156.54719    306.11773      202.036      46.7237      46.7237      46.7237           90           90           90     102002.7   -581.92792 
  944000       943498   -6620.6507    689.86206   -7310.5127    4390.7452   -11701.258    129.14867   -440.52968     -827.595   -669.36164    270.60484   -124.46344   -209.63859      46.7237      46.7237      46.7237           90           90           90     102002.7   -645.82877 
  945000       944498   -6585.1712    698.24159   -7283.4128     4426.448   -11709.861     130.7174   -412.43556   -683.52437   -888.26397   -106.60696   -17.160751    145.95884      46.7237      46.7237      46.7237           90           90           90     102002.7   -661.40797 
  946000       945498    -6564.507    700.28262   -7264.7896    4435.4777   -11700.267     131.0995    -902.0061   -907.22505   -862.15423   -192.77772    -4.192216    71.604603      46.7237      46.7237      46.7237           90           90           90     102002.7   -890.46179 
  947000       946498   -6594.5286    703.23108   -7297.7597    4398.1103    -11695.87    131.65148   -965.73275   -1009.1248   -1254.2665   -4.1803169    115.08784   -111.39957      46.7237      46.7237      46.7237           90           90           90     102002.7   -1076.3747 
  948000       947498   -6600.0058    701.24198   -7301.2478    4394.9301   -11696.178     131.2791   -1404.1062   -883.67609   -958.69025   -80.372844   -176.17467   -11.706385      46.7237      46.7237      46.7237           90           90           90     102002.7   -1082.1575 
  949000       948498    -6570.314    678.47968   -7248.7936    4457.5304   -11706.324    127.01779   -858.22485   -1335.8321   -1041.0261    303.89738    378.43374    49.298607      46.7237      46.7237      46.7237           90           90           90     102002.7    -1078.361 
  950000       949498   -6609.9983     701.9129   -7311.9112    4409.7421   -11721.653    131.40471   -1162.1765     -735.383   -642.68263    71.756211   0.47312266    9.2193287      46.7237      46.7237      46.7237           90           90           90     102002.7   -846.74737 
  951000       950498   -6640.6327    675.17937   -7315.8121    4389.4012   -11705.213    126.39994   -1129.1937    -656.9739   -1194.4371   -118.84155   -314.19813   -124.99239      46.7237      46.7237      46.7237           90           90           90     102002.7   -993.53491 
  952000       951498    -6579.844    716.74377   -7296.5877    4411.8456   -11708.433    134.18118   -1092.3961   -1348.1346   -553.48724   -122.16253   -180.06889   -48.416739      46.7237      46.7237      46.7237           90           90           90     102002.7   -998.00598 
  953000       952498   -6576.2597    703.83865   -7280.0983    4432.3387   -11712.437    131.76522   -799.63111   -515.78706   -952.62591   -1.7570616    -127.1688    147.32495      46.7237      46.7237      46.7237           90           90           90     102002.7   -756.01469 
  954000       953498   -6609.1875    701.59604   -7310.7836    4404.7019   -11715.486    131.34539   -776.72078   -908.76113   -890.47554   -334.13113    124.83163    76.256289      46.7237      46.7237      46.7237           90           90           90     102002.7   -858.65249 
  955000       954498   -6573.8481      709.959   -7283.8071    4412.2641   -11696.071    132.91101   -514.50548   -654.30953   -204.05698   -284.82466   -77.109107    63.620182      46.7237      46.7237      46.7237           90           90           90     102002.7     -457.624 
  956000       955498   -6572.4405    714.90054    -7287.341    4407.3315   -11694.673    133.83611    -847.1335   -816.48192   -1112.9146   -74.715116    120.67369    -88.30841      46.7237      46.7237      46.7237           90           90           90     102002.7      -925.51 
  957000       956498   -6604.2434    682.31959    -7286.563    4405.8689   -11692.432    127.73665   -412.17929   -591.92496   -559.45485   -107.33703   -311.27941    553.85864      46.7237      46.7237      46.7237           90           90           90     102002.7   -521.18637 
  958000       957498    -6631.875     666.9588   -7298.8338    4395.6732   -11694.507    124.86097   -965.06717   -803.53138   -607.22929    69.616695    201.89971   -261.78191      46.7237      46.7237      46.7237           90           90           90     102002.7   -791.94261 
  959000       958498   -6581.6622    699.85885   -7281.5211    4416.5201   -11698.041    131.02017   -671.88769   -446.97484   -658.81541   -122.22342   -54.154901    128.84256      46.7237      46.7237      46.7237           90           90           90     102002.7   -592.55931 
  960000       959498   -6590.8152    699.29718   -7290.1124    4413.3457   -11703.458    130.91502   -491.84933   -223.07765   -876.98804    48.313126    31.929767   -23.996883      46.7237      46.7237      46.7237           90           90           90     102002.7   -530.63834 
  961000       960498   -6612.9774    686.31775   -7299.2951    4379.4753    -11678.77    128.48515   -814.78669   -761.75162   -343.64722    110.43564   -331.46253    4.9829014      46.7237      46.7237      46.7237           90           90           90     102002.7   -640.06184 
  962000       961498   -6602.4868    704.68763   -7307.1745    4396.1318   -11703.306    131.92416   -325.65881   -837.90012   -766.98627   -283.55437    147.86749   -77.824532      46.7237      46.7237      46.7237           90           90           90     102002.7   -643.51507 
  963000       962498   -6567.9679    704.69897   -7272.6669    4419.4332     -11692.1    131.92628   -932.86694   -244.08692   -900.36974    44.523618   -90.893653   -1.1440012      46.7237      46.7237      46.7237           90           90           90     102002.7    -692.4412 
  964000       963498   -6565.0327    696.88846   -7261.9211    4405.2515   -11667.173    130.46408   -264.78536   -751.36638   -398.17531    8.5867669     40.94433   -349.07315      46.7237      46.7237      46.7237           90           90           90     102002.7   -471.44235 
  965000       964498   -6602.7379    685.16894   -7287.9068    4417.0804   -11704.987    128.27008   -624.45871   -569.60505   -705.09605     63.28738   -104.55634   -149.03381      46.7237      46.7237      46.7237           90           90           90     102002.7   -633.05327 
  966000       965498    -6620.713    681.75838   -7302.4714    4396.7593   -11699.231    127.63159   -365.89556    -698.3756   -722.53648    158.50068    250.88725    40.602804      46.7237      46.7237      46.7237           90           90           90     102002.7   -595.60255 
  967000       966498   -6592.2959    686.02871   -7278.3246    4396.1505   -11674.475    128.43104   -695.79186   -452.89327   -915.29291    -98.80973    75.338942   -197.40791      46.7237      46.7237      46.7237           90           90           90     102002.7   -687.99268 
  968000       967498   -6613.5938    690.66861   -7304.2624    4378.6455   -11682.908    129.29967   -709.09223   -591.03837    -693.0265   -6.8425804    153.45133    70.752495      46.7237      46.7237      46.7237           90           90           90     102002.7    -664.3857 
  969000       968498   -6578.9372    703.44455   -7282.3818      4420.63   -11703.012    131.69144   -1424.8861   -820.18632   -486.49583     159.7044   -219.76789    133.76596      46.7237      46.7237      46.7237           90           90           90     102002.7   -910.52275 
  970000       969498   -6606.5811    684.85214   -7291.4333    4413.4747   -11704.908    128.21077   -922.50716   -558.20271   -565.40344    88.005639    88.137871   -13.888778      46.7237      46.7237      46.7237           90           90           90     102002.7   -682.03777 
  971000       970498   -6584.4451    696.24018   -7280.6852    4403.8591   -11684.544    130.34272   -698.21359   -621.54549   -443.52739   -79.079895    68.151993    171.92691      46.7237      46.7237      46.7237           90           90           90     102002.7   -587.76216 
  972000       971498   -6598.8594    683.03357    -7281.893    4430.7607   -11712.654    127.87032   -883.65402   -948.14822   -1178.0297    48.755961   -42.141009    48.350045      46.7237      46.7237      46.7237           90           90           90     102002.7   -1003.2773 
  973000       972498   -6532.6577    698.93175   -7231.5895    4464.3909    -11695.98    130.84661   -379.11773   -1087.7056   -1354.4203   -59.553465   -51.405046   -142.52369      46.7237      46.7237      46.7237           90           90           90     102002.7   -940.41457 
  974000       973498   -6596.4829    688.51296   -7284.9959     4401.394    -11686.39    128.89611   -1094.4012   -659.65528    -358.8592    14.010297    136.28323   -46.107176      46.7237      46.7237      46.7237           90           90           90     102002.7   -704.30524 
  975000       974498   -6553.6858    712.59169   -7266.2774     4420.099   -11686.376    133.40388   -776.63928   -555.19739   -726.14386    66.197683    353.91502    18.708837      46.7237      46.7237      46.7237           90           90           90     102002.7   -685.99351 
  976000       975498   -6576.3307    706.74293   -7283.0736    4420.0932   -11703.167    132.30893    -1167.464   -52.187841   -250.91925   -7.7921514   -88.986188    121.96158      46.7237      46.7237      46.7237           90           90           90     102002.7   -490.19036 
  977000       976498   -6603.8251    682.67509   -7286.5002     4410.482   -11696.982    127.80321   -533.18217   -411.54298   -203.34793    99.729606   -35.830845   -12.490382      46.7237      46.7237      46.7237           90           90           90     102002.7   -382.69102 
  978000       977498   -6562.4206    711.54924   -7273.9698    4394.9907    -11668.96    133.20872   -657.15416   -408.65403   -995.80518    176.96246     24.89745    97.030161      46.7237      46.7237      46.7237           90           90           90     102002.7   -687.20446 
  979000       978498   -6583.8236    707.72775   -7291.5513     4425.764   -11717.315     132.4933   -715.81066    -1208.793   -741.25685    103.48648    61.918519    100.16844      46.7237      46.7237      46.7237           90           90           90     102002.7   -888.62016 
  980000       979498   -6606.3296    686.41448   -7292.7441    4411.7005   -11704.445    128.50326   -932.78418   -1164.5759   -802.62116   -219.49596   -10.383185   -157.55827      46.7237      46.7237      46.7237           90           90           90     102002.7   -966.66042 
  981000       980498   -6555.0279    714.06043   -7269.0883    4422.2312    -11691.32    133.67884   -923.53831   -681.81183   -596.71046   -284.34741     48.82749   0.44885401      46.7237      46.7237      46.7237           90           90           90     102002.7    -734.0202 
  982000       981498   -6625.9543    685.02578   -7310.9801    4413.2957   -11724.276    128.24328   -819.51384   -1072.6258   -843.26678    186.63084    187.93314   -35.399761      46.7237      46.7237      46.7237           90           90           90     102002.7   -911.80214 
  983000       982498   -6597.9062    691.40495   -7289.3112    4403.5397   -11692.851    129.43752   -1321.0269   -478.24302   -817.07655    -40.88432    24.644033    102.01698      46.7237      46.7237      46.7237           90           90           90     102002.7   -872.11548 
  984000       983498   -6598.6063    693.73785   -7292.3441    4419.8791   -11712.223    129.87426   -636.25843   -832.87719   -635.08234    45.707865   -17.213258   -125.78294      46.7237      46.7237      46.7237           90           90           90     102002.7   -701.40599 
  985000       984498   -6606.0233    675.31081   -7281.3341    4416.1745   -11697.509    126.42454   -905.31386   -659.96992   -893.61403    174.09132   -190.17722   -179.01828      46.7237      46.7237      46.7237           90           90           90     102002.7    -819.6326 
  986000       985498   -6576.4808    701.55688   -7278.0377    4433.8954   -11711.933    131.33805   -777.90008   -1409.6113   -979.03005     -305.317   -46.428033    35.112491      46.7237      46.7237      46.7237           90           90           90     102002.7   -1055.5138 
  987000       986498   -6597.5838    699.19836   -7296.7822    4412.4381    -11709.22    130.89652    -942.7058   -689.17049   -1205.2173    10.456017    101.76646    137.72556      46.7237      46.7237      46.7237           90           90           90     102002.7   -945.69786 
  988000       987498   -6592.5022     694.6213   -7287.1235    4421.7447   -11708.868    130.03965   -787.54551   -746.97984   -645.38281    43.316335    200.20161    229.90267      46.7237      46.7237      46.7237           90           90           90     102002.7   -726.63605 
  989000       988498   -6607.0083    701.22528   -7308.2336    4416.1193   -11724.353    131.27598   -1011.0574   -1068.1418    -671.9317   -189.59034   -192.59875    131.70451      46.7237      46.7237      46.7237           90           90           90     102002.7   -917.04361 
  990000       989498    -6608.197    687.70947   -7295.9065    4387.7429   -11683.649    128.74569   -615.87589    -798.5892   -674.81758    213.15012    398.49379   -92.784751      46.7237      46.7237      46.7237           90           90           90     102002.7   -696.42756 
  991000       990498     -6590.06    708.85082   -7298.9109    4394.9713   -11693.882    132.70355   -1097.0363    -1113.563   -475.64112   -77.516396   -118.74936    25.411088      46.7237      46.7237      46.7237           90           90           90     102002.7   -895.41349 
  992000       991498   -6608.9013    688.23464   -7297.1359    4419.0293   -11716.165    128.84401   -807.01969   -864.27146   -621.46521   -78.462115    48.903623    -173.8509      46.7237      46.7237      46.7237           90           90           90     102002.7   -764.25212 
  993000       992498   -6568.6695     716.7329   -7285.4024    4417.5943   -11702.997    134.17915    -685.8391   -440.39938   -1142.1044   -32.719158   -75.138884    104.36533      46.7237      46.7237      46.7237           90           90           90     102002.7   -756.11428 
  994000       993498   -6601.9938    689.82345   -7291.8172    4408.3674   -11700.185    129.14145   -639.52869   -562.10171   -572.49764    64.327281   -49.661025   -173.47766      46.7237      46.7237      46.7237           90           90           90     102002.7   -591.37602 
  995000       994498   -6588.8935    699.16807   -7288.0616    4421.0832   -11709.145    130.89085   -992.51253   -1026.1138   -1206.2645    225.29627    274.39349   -155.43076      46.7237      46.7237      46.7237           90           90           90     102002.7   -1074.9636 
  996000       995498   -6588.4743    702.03781   -7290.5121     4398.648    -11689.16    131.42809   -670.88373   -572.61198   -999.25811    208.71605   -146.15936   -90.276037      46.7237      46.7237      46.7237           90           90           90     102002.7   -747.58461 
  997000       996498   -6594.1406    688.37573   -7282.5163    4418.8267   -11701.343    128.87042   -1101.2601   -1665.7238   -867.09667   -44.109241   -18.869263   -245.65673      46.7237      46.7237      46.7237           90           90           90     102002.7   -1211.3602 
  998000       997498   -6613.5768    670.02376   -7283.6005    4438.5729   -11722.173    125.43476   -917.65509   -1647.0978   -1323.6453    6.4961039   -99.610804    95.678583      46.7237      46.7237      46.7237           90           90           90     102002.7   -1296.1327 
  999000       998498   -6583.7442    696.43854   -7280.1827    4431.7947   -11711.977    130.37985   -1361.5713   -848.98276    -915.0006     200.3217    116.55428    335.52732      46.7237      46.7237      46.7237           90           90           90     102002.7   -1041.8516 
 1000000       999498   -6622.5353    674.94408   -7297.4794    4400.1483   -11697.628    126.35589   -687.80747    -635.4666   -836.34235    41.904728   -23.171857   -187.44396      46.7237      46.7237      46.7237           90           90           90     102002.7   -719.87214 
 1000502      1000000   -6613.5671    689.55833   -7303.1254    4389.6763   -11692.802    129.09181   -893.75046   -1088.1315    -514.3334   -257.17577    101.61648    82.124152      46.7237      46.7237      46.7237           90           90           90     102002.7   -832.07179 
Loop time of 1435.16 on 16 procs for 500000 steps with 1793 atoms

Performance: 30.101 ns/day, 0.797 hours/ns, 348.394 timesteps/s
99.8% CPU use with 16 MPI tasks x no OpenMP threads

MPI task timing breakdown:
Section |  min time  |  avg time  |  max time  |%varavg| %total
---------------------------------------------------------------
Pair    | 589.51     | 793.18     | 978.06     | 433.3 | 55.27
Bond    | 173.14     | 183.33     | 197.5      |  57.7 | 12.77
Neigh   | 5.3678     | 5.4002     | 5.4584     |   1.2 |  0.38
Comm    | 241.53     | 425.53     | 630.22     | 577.4 | 29.65
Output  | 0.098001   | 0.10294    | 0.10348    |   0.4 |  0.01
Modify  | 21.522     | 22.321     | 23.151     |  11.1 |  1.56
Other   |            | 5.285      |            |       |  0.37

Nlocal:    112.062 ave 141 max 84 min
Histogram: 3 0 0 2 3 3 1 1 2 1
Nghost:    2289.56 ave 2321 max 2259 min
Histogram: 2 0 2 2 2 4 1 0 0 3
Neighs:    11466.9 ave 16187 max 7607 min
Histogram: 1 1 2 4 2 3 0 2 0 1

Total # of neighbors = 183470
Ave neighs/atom = 102.326
Ave special neighs/atom = 6.42499
Neighbor list builds = 4327
Dangerous builds = 0
Total wall time: 0:46:42
