LAMMPS (30 Mar 2018)
Reading data file ...
  orthogonal box = (0 0 0) to (46.7237 46.7237 46.7237)
  2 by 3 by 4 MPI processor grid
  reading atoms ...
  1730 atoms
  scanning bonds ...
  5 = max bonds/atom
  scanning angles ...
  10 = max angles/atom
  scanning dihedrals ...
  32 = max dihedrals/atom
  scanning impropers ...
  3 = max impropers/atom
  reading bonds ...
  2064 bonds
  reading angles ...
  3696 angles
  reading dihedrals ...
  6240 dihedrals
  reading impropers ...
  1008 impropers
Finding 1-2 1-3 1-4 neighbors ...
  special bond factors lj:   0          0          0         
  special bond factors coul: 0          0          0         
  5 = max # of 1-2 neighbors
  8 = max # of 1-3 neighbors
  20 = max # of 1-4 neighbors
  19 = max # of special neighbors
Finding 1-2 1-3 1-4 neighbors ...
  special bond factors lj:   0          0          1         
  special bond factors coul: 1          1          1         
  5 = max # of 1-2 neighbors
  8 = max # of 1-3 neighbors
  19 = max # of special neighbors
WARNING: Using 'neigh_modify every 1 delay 0 check yes' setting during minimization (../min.cpp:168)
Neighbor list info ...
  update every 1 steps, delay 0 steps, check yes
  max neighbors/atom: 2000, page size: 100000
  master list distance cutoff = 16
  ghost atom cutoff = 16
  binsize = 8, bins = 6 6 6
  3 neighbor lists, perpetual/occasional/extra = 3 0 0
  (1) pair buck6d/coul/gauss/dsf, perpetual, skip from (3)
      attributes: half, newton on
      pair build: skip
      stencil: none
      bin: none
  (2) pair lj/cut, perpetual, skip from (3)
      attributes: half, newton on
      pair build: skip
      stencil: none
      bin: none
  (3) neighbor class addition, perpetual
      attributes: half, newton on
      pair build: half/bin/newton
      stencil: half/bin/3d/newton
      bin: standard
Setting up cg style minimization ...
  Unit style    : real
  Current step  : 0
WARNING: Inconsistent image flags (../domain.cpp:786)
Per MPI rank memory allocation (min/avg/max) = 22.87 | 23.28 | 24.42 Mbytes
Step Temp E_pair E_mol TotEng Press 
       0            0   -11519.085    6482.8914   -5036.1933    6290.6886 
     501            0   -11540.395    3737.8183   -7802.5763   -461.65814 
Loop time of 1.21846 on 24 procs for 501 steps with 1730 atoms

99.8% CPU use with 24 MPI tasks x no OpenMP threads

Minimization stats:
  Stopping criterion = max force evaluations
  Energy initial, next-to-last, final = 
        -5036.19325902     -7802.52612432      -7802.5763401
  Force two-norm initial, final = 2576.97 10.8525
  Force max component initial, final = 151.967 1.54641
  Final line search alpha, max atom move = 0.0052781 0.00816209
  Iterations, force evaluations = 501 1001

MPI task timing breakdown:
Section |  min time  |  avg time  |  max time  |%varavg| %total
---------------------------------------------------------------
Pair    | 0.49133    | 0.61054    | 0.76764    |   8.3 | 50.11
Bond    | 0.11989    | 0.1587     | 0.20333    |   5.4 | 13.02
Neigh   | 0.0067907  | 0.0068756  | 0.006976   |   0.1 |  0.56
Comm    | 0.2739     | 0.42097    | 0.53737    |   9.4 | 34.55
Output  | 0          | 0          | 0          |   0.0 |  0.00
Modify  | 0          | 0          | 0          |   0.0 |  0.00
Other   |            | 0.02137    |            |       |  1.75

Nlocal:    72.0833 ave 86 max 61 min
Histogram: 3 1 4 1 4 5 3 1 0 2
Nghost:    1967.67 ave 2140 max 1871 min
Histogram: 14 2 0 0 0 0 0 0 0 8
Neighs:    7629.38 ave 10289 max 4598 min
Histogram: 1 1 5 1 4 2 1 5 1 3

Total # of neighbors = 183105
Ave neighs/atom = 105.841
Ave special neighs/atom = 6.65896
Neighbor list builds = 13
Dangerous builds = 0
Neighbor list info ...
  update every 1 steps, delay 10 steps, check yes
  max neighbors/atom: 2000, page size: 100000
  master list distance cutoff = 16
  ghost atom cutoff = 16
  binsize = 8, bins = 6 6 6
  3 neighbor lists, perpetual/occasional/extra = 3 0 0
  (1) pair buck6d/coul/gauss/dsf, perpetual, skip from (3)
      attributes: half, newton on
      pair build: skip
      stencil: none
      bin: none
  (2) pair lj/cut, perpetual, skip from (3)
      attributes: half, newton on
      pair build: skip
      stencil: none
      bin: none
  (3) neighbor class addition, perpetual
      attributes: half, newton on
      pair build: half/bin/newton
      stencil: half/bin/3d/newton
      bin: standard
Setting up Verlet run ...
  Unit style    : real
  Current step  : 501
  Time step     : 1
WARNING: Inconsistent image flags (../domain.cpp:786)
Per MPI rank memory allocation (min/avg/max) = 22.52 | 22.67 | 23.29 Mbytes
Step Temp PotEng TotEng Press Volume Lx Ly Lz 
     501          110   -7802.5763   -7235.6561   -207.59413     102002.7      46.7237      46.7237      46.7237 
    1000    92.731315   -7271.5904   -6793.6698   -406.62881     102002.7      46.7237      46.7237      46.7237 
    2000    115.50751   -7239.1977   -6643.8926   -508.41632     102002.7      46.7237      46.7237      46.7237 
    3000    102.67886   -7199.3567   -6670.1682   -946.60594     102002.7      46.7237      46.7237      46.7237 
    4000    105.68812   -7216.0601   -6671.3626   -690.61351     102002.7      46.7237      46.7237      46.7237 
    5000    110.65545   -7222.8222   -6652.5239   -946.38441     102002.7      46.7237      46.7237      46.7237 
    6000     106.1529    -7246.638    -6699.545   -573.70057     102002.7      46.7237      46.7237      46.7237 
    7000    108.78262   -7213.3593   -6652.7132   -548.15354     102002.7      46.7237      46.7237      46.7237 
    8000    111.46523   -7246.6283   -6672.1565   -681.06504     102002.7      46.7237      46.7237      46.7237 
    9000    112.59926   -7218.8351   -6638.5187   -679.85713     102002.7      46.7237      46.7237      46.7237 
   10000    110.08266   -7225.4196   -6658.0734   -653.27772     102002.7      46.7237      46.7237      46.7237 
   11000    108.05826   -7236.5168   -6679.6039   -798.33112     102002.7      46.7237      46.7237      46.7237 
   12000     110.6475   -7193.4703   -6623.2129   -691.80166     102002.7      46.7237      46.7237      46.7237 
   13000    111.06357   -7224.3408   -6651.9391   -513.56973     102002.7      46.7237      46.7237      46.7237 
   14000    108.79374   -7228.3323   -6667.6289   -555.29393     102002.7      46.7237      46.7237      46.7237 
   15000    109.87162   -7202.5374   -6636.2788   -383.23116     102002.7      46.7237      46.7237      46.7237 
   16000    110.85268   -7237.9781   -6666.6632   -799.55071     102002.7      46.7237      46.7237      46.7237 
   17000    110.86238   -7216.4394   -6645.0746   -554.94354     102002.7      46.7237      46.7237      46.7237 
   18000    107.57448   -7221.7346    -6667.315   -412.62341     102002.7      46.7237      46.7237      46.7237 
   19000    109.17454   -7214.4045   -6651.7385     -546.378     102002.7      46.7237      46.7237      46.7237 
   20000    107.59537   -7211.7871   -6657.2598   -684.61595     102002.7      46.7237      46.7237      46.7237 
   21000    110.21739    -7245.045   -6677.0044   -489.07198     102002.7      46.7237      46.7237      46.7237 
   22000    110.48067   -7221.2311   -6651.8336   -678.60103     102002.7      46.7237      46.7237      46.7237 
   23000    107.99905   -7242.5858    -6685.978   -1013.0145     102002.7      46.7237      46.7237      46.7237 
   24000    107.30488   -7223.7918   -6670.7617   -978.22915     102002.7      46.7237      46.7237      46.7237 
   25000    112.10117    -7225.315   -6647.5657   -887.51802     102002.7      46.7237      46.7237      46.7237 
   26000    111.60368   -7229.7993    -6654.614   -1106.2715     102002.7      46.7237      46.7237      46.7237 
   27000    108.72514   -7231.9117   -6671.5619   -792.23363     102002.7      46.7237      46.7237      46.7237 
   28000    108.58346   -7234.5811   -6674.9615   -880.58938     102002.7      46.7237      46.7237      46.7237 
   29000    112.08529   -7218.6619   -6640.9944   -901.49453     102002.7      46.7237      46.7237      46.7237 
   30000    111.73246   -7241.1356   -6665.2865   -921.91474     102002.7      46.7237      46.7237      46.7237 
   31000    104.92354   -7217.8727   -6677.1156   -862.86138     102002.7      46.7237      46.7237      46.7237 
   32000    110.26789   -7229.9482   -6661.6473   -703.92564     102002.7      46.7237      46.7237      46.7237 
   33000    112.21007   -7230.1095   -6651.7989   -886.03528     102002.7      46.7237      46.7237      46.7237 
   34000    109.48832   -7218.7755   -6654.4923   -677.31735     102002.7      46.7237      46.7237      46.7237 
   35000    107.86811   -7224.9422   -6669.0093   -782.46102     102002.7      46.7237      46.7237      46.7237 
   36000     112.0639    -7215.996   -6638.4388   -795.52428     102002.7      46.7237      46.7237      46.7237 
   37000    110.30955   -7238.6373   -6670.1217    -865.1403     102002.7      46.7237      46.7237      46.7237 
   38000    105.00702   -7235.5642   -6694.3768   -701.97997     102002.7      46.7237      46.7237      46.7237 
   39000    109.57941   -7222.0097   -6657.2571   -582.78654     102002.7      46.7237      46.7237      46.7237 
   40000     108.5014   -7211.4245   -6652.2278   -602.58074     102002.7      46.7237      46.7237      46.7237 
   41000    112.87815   -7236.8443   -6655.0905   -597.31694     102002.7      46.7237      46.7237      46.7237 
   42000    104.61046   -7230.6071   -6691.4636    -687.7023     102002.7      46.7237      46.7237      46.7237 
   43000    114.16021   -7235.8301   -6647.4689   -951.88932     102002.7      46.7237      46.7237      46.7237 
   44000    106.15938   -7224.4374    -6677.311   -655.56728     102002.7      46.7237      46.7237      46.7237 
   45000    109.07933   -7240.4873    -6678.312   -616.53975     102002.7      46.7237      46.7237      46.7237 
   46000     110.8144   -7241.6803   -6670.5628   -912.88275     102002.7      46.7237      46.7237      46.7237 
   47000    109.00389   -7238.6661   -6676.8796   -258.85645     102002.7      46.7237      46.7237      46.7237 
   48000    112.46351   -7219.4177   -6639.8009   -771.42216     102002.7      46.7237      46.7237      46.7237 
   49000    110.40761   -7239.1667   -6670.1457   -715.46349     102002.7      46.7237      46.7237      46.7237 
   50000    113.21581   -7218.3216   -6634.8277   -490.31845     102002.7      46.7237      46.7237      46.7237 
   51000     110.6502   -7227.8472   -6657.5759   -804.82994     102002.7      46.7237      46.7237      46.7237 
   52000    106.59735   -7250.1059   -6700.7223   -631.62346     102002.7      46.7237      46.7237      46.7237 
   53000    109.97283   -7223.6936   -6656.9134   -745.71358     102002.7      46.7237      46.7237      46.7237 
   54000    103.41495   -7225.7328   -6692.7507   -499.37301     102002.7      46.7237      46.7237      46.7237 
   55000    108.96758   -7211.3509   -6649.7515   -656.67189     102002.7      46.7237      46.7237      46.7237 
   56000     105.8023   -7219.1009   -6673.8148    -771.0933     102002.7      46.7237      46.7237      46.7237 
   57000    108.90485   -7254.9329   -6693.6568   -529.33008     102002.7      46.7237      46.7237      46.7237 
   58000    110.22993   -7219.1547   -6651.0494    -778.2406     102002.7      46.7237      46.7237      46.7237 
   59000    105.81524   -7229.9353   -6684.5825   -647.07476     102002.7      46.7237      46.7237      46.7237 
   60000    113.78516   -7236.7336   -6650.3053   -665.48395     102002.7      46.7237      46.7237      46.7237 
   61000    108.96399   -7261.2153   -6699.6344   -500.98611     102002.7      46.7237      46.7237      46.7237 
   62000    111.42102   -7228.0926   -6653.8487   -632.66895     102002.7      46.7237      46.7237      46.7237 
   63000    109.55953   -7230.3671   -6665.7169   -817.72009     102002.7      46.7237      46.7237      46.7237 
   64000     109.9633   -7233.9572   -6667.2261   -882.87202     102002.7      46.7237      46.7237      46.7237 
   65000    111.83515   -7212.6645   -6636.2862   -649.20366     102002.7      46.7237      46.7237      46.7237 
   66000    105.98867   -7225.0968   -6678.8502    -816.5292     102002.7      46.7237      46.7237      46.7237 
   67000    111.13818   -7232.0951   -6659.3089   -665.93334     102002.7      46.7237      46.7237      46.7237 
   68000    109.62009   -7233.5825   -6668.6202   -791.13234     102002.7      46.7237      46.7237      46.7237 
   69000    110.25635   -7214.2221   -6645.9806   -867.74598     102002.7      46.7237      46.7237      46.7237 
   70000    110.68733   -7226.3455   -6655.8828   -696.29275     102002.7      46.7237      46.7237      46.7237 
   71000    109.99473   -7245.2903   -6678.3972   -494.96955     102002.7      46.7237      46.7237      46.7237 
   72000    108.56147   -7210.0719   -6650.5656   -795.44704     102002.7      46.7237      46.7237      46.7237 
   73000    111.87216   -7247.0346   -6670.4655   -459.85554     102002.7      46.7237      46.7237      46.7237 
   74000    107.05297   -7245.4831   -6693.7514   -720.11545     102002.7      46.7237      46.7237      46.7237 
   75000    108.92372   -7212.8544    -6651.481   -654.22189     102002.7      46.7237      46.7237      46.7237 
   76000    109.14672   -7243.9343   -6681.4117   -477.10069     102002.7      46.7237      46.7237      46.7237 
   77000    109.50463    -7215.438   -6651.0708   -955.16569     102002.7      46.7237      46.7237      46.7237 
   78000     107.4706   -7236.2328   -6682.3486   -637.59817     102002.7      46.7237      46.7237      46.7237 
   79000    108.73422   -7212.5451   -6652.1484   -711.61822     102002.7      46.7237      46.7237      46.7237 
   80000    109.55322   -7245.2884   -6680.6708   -850.33324     102002.7      46.7237      46.7237      46.7237 
   81000    109.64147   -7236.2825     -6671.21   -979.98504     102002.7      46.7237      46.7237      46.7237 
   82000    113.96068   -7215.7189   -6628.3859   -1115.8111     102002.7      46.7237      46.7237      46.7237 
   83000    108.73005   -7212.3498   -6651.9746   -1026.9534     102002.7      46.7237      46.7237      46.7237 
   84000    107.92962   -7226.4355   -6670.1856   -1126.3721     102002.7      46.7237      46.7237      46.7237 
   85000    109.58854   -7223.2803   -6658.4807   -777.74473     102002.7      46.7237      46.7237      46.7237 
   86000    110.04139   -7235.7464   -6668.6128   -726.61811     102002.7      46.7237      46.7237      46.7237 
   87000    110.22523   -7197.2873   -6629.2062   -823.60357     102002.7      46.7237      46.7237      46.7237 
   88000    112.07256   -7227.5062   -6649.9044    -692.2744     102002.7      46.7237      46.7237      46.7237 
   89000    108.49568   -7225.6928   -6666.5255   -849.35342     102002.7      46.7237      46.7237      46.7237 
   90000    111.86711   -7229.7505   -6653.2075   -685.08565     102002.7      46.7237      46.7237      46.7237 
   91000    107.27719   -7234.6603    -6681.773    -1116.952     102002.7      46.7237      46.7237      46.7237 
   92000    111.10766    -7211.005   -6638.3761   -904.09565     102002.7      46.7237      46.7237      46.7237 
   93000    107.35446   -7211.9233   -6658.6376   -778.17852     102002.7      46.7237      46.7237      46.7237 
   94000    108.04205   -7239.1972   -6682.3678   -543.61935     102002.7      46.7237      46.7237      46.7237 
   95000    110.68512   -7223.0211   -6652.5698   -779.80979     102002.7      46.7237      46.7237      46.7237 
   96000    106.07887   -7222.6261   -6675.9146   -756.28993     102002.7      46.7237      46.7237      46.7237 
   97000    108.10787   -7217.8361   -6660.6676   -432.48116     102002.7      46.7237      46.7237      46.7237 
   98000    108.05041   -7216.1087   -6659.2362   -802.84186     102002.7      46.7237      46.7237      46.7237 
   99000    107.99772   -7242.2932   -6685.6924   -377.45858     102002.7      46.7237      46.7237      46.7237 
  100000    109.04636   -7224.2861   -6662.2807   -873.75931     102002.7      46.7237      46.7237      46.7237 
  101000    111.21463   -7233.0536   -6659.8734   -508.04363     102002.7      46.7237      46.7237      46.7237 
  102000     109.3691   -7240.0571   -6676.3884   -613.45617     102002.7      46.7237      46.7237      46.7237 
  103000    114.44224   -7231.2765   -6641.4617   -660.52119     102002.7      46.7237      46.7237      46.7237 
  104000    110.71122   -7239.8444   -6669.2586   -522.54114     102002.7      46.7237      46.7237      46.7237 
  105000    106.80936   -7238.8248   -6688.3485   -792.83639     102002.7      46.7237      46.7237      46.7237 
  106000    109.19356   -7221.0333   -6658.2693   -781.59593     102002.7      46.7237      46.7237      46.7237 
  107000    109.86727   -7233.6712    -6667.435   -918.92369     102002.7      46.7237      46.7237      46.7237 
  108000    110.12107   -7189.2105   -6621.6663   -665.53022     102002.7      46.7237      46.7237      46.7237 
  109000    105.79469   -7219.4498    -6674.203   -759.69183     102002.7      46.7237      46.7237      46.7237 
  110000    105.91993     -7235.94   -6690.0477   -672.84499     102002.7      46.7237      46.7237      46.7237 
  111000    111.21055   -7236.5786   -6663.4194   -802.33728     102002.7      46.7237      46.7237      46.7237 
  112000    107.06921   -7234.2482   -6682.4327   -671.48063     102002.7      46.7237      46.7237      46.7237 
  113000    110.96376    -7221.649   -6649.7617   -628.83349     102002.7      46.7237      46.7237      46.7237 
  114000    111.61535   -7202.4099   -6627.1644   -596.52092     102002.7      46.7237      46.7237      46.7237 
  115000    110.02207   -7233.7859    -6666.752   -429.32388     102002.7      46.7237      46.7237      46.7237 
  116000    108.47651   -7210.3724   -6651.3039   -1113.2803     102002.7      46.7237      46.7237      46.7237 
  117000    112.01482   -7236.5327   -6659.2284   -792.40898     102002.7      46.7237      46.7237      46.7237 
  118000    107.37779   -7229.3983   -6675.9925   -955.99666     102002.7      46.7237      46.7237      46.7237 
  119000    111.52277   -7203.3559   -6628.5876   -762.84486     102002.7      46.7237      46.7237      46.7237 
  120000    112.24291   -7236.9355   -6658.4557   -808.93748     102002.7      46.7237      46.7237      46.7237 
  121000    110.05787   -7238.0043   -6670.7858   -986.12285     102002.7      46.7237      46.7237      46.7237 
  122000    108.36088   -7234.6505    -6676.178   -656.38967     102002.7      46.7237      46.7237      46.7237 
  123000    111.07825   -7204.5659   -6632.0885   -812.92155     102002.7      46.7237      46.7237      46.7237 
  124000    106.09933   -7227.4355   -6680.6186   -690.91451     102002.7      46.7237      46.7237      46.7237 
  125000    108.80474   -7233.0378   -6672.2776   -675.03992     102002.7      46.7237      46.7237      46.7237 
  126000    110.46115   -7232.3351   -6663.0381   -813.60258     102002.7      46.7237      46.7237      46.7237 
  127000     107.5347   -7218.5088   -6664.2943   -699.53081     102002.7      46.7237      46.7237      46.7237 
  128000    111.88419   -7214.2323   -6637.6013   -678.29741     102002.7      46.7237      46.7237      46.7237 
  129000    112.74038   -7235.7296   -6654.6859   -669.73181     102002.7      46.7237      46.7237      46.7237 
  130000    114.27336   -7224.2325   -6635.2882   -711.62318     102002.7      46.7237      46.7237      46.7237 
  131000     111.2382   -7229.8624   -6656.5607   -763.67085     102002.7      46.7237      46.7237      46.7237 
  132000    110.58429   -7257.5742   -6687.6427   -834.13643     102002.7      46.7237      46.7237      46.7237 
  133000    110.95524   -7229.8959   -6658.0525   -751.04148     102002.7      46.7237      46.7237      46.7237 
  134000    106.89531   -7232.1244   -6681.2052   -788.36581     102002.7      46.7237      46.7237      46.7237 
  135000    110.34026   -7219.0027   -6650.3288   -769.59966     102002.7      46.7237      46.7237      46.7237 
  136000    104.80005   -7229.9674   -6689.8468    -714.8529     102002.7      46.7237      46.7237      46.7237 
  137000    109.33412   -7226.6923   -6663.2039   -627.21503     102002.7      46.7237      46.7237      46.7237 
  138000    109.84777   -7226.6889   -6660.5531   -780.81377     102002.7      46.7237      46.7237      46.7237 
  139000    112.80688   -7220.4907   -6639.1043   -698.86101     102002.7      46.7237      46.7237      46.7237 
  140000    111.17932   -7230.7234   -6657.7251   -854.15318     102002.7      46.7237      46.7237      46.7237 
  141000    110.84006   -7230.8603   -6659.6105   -601.22805     102002.7      46.7237      46.7237      46.7237 
  142000    112.78124    -7236.295   -6655.0407   -790.03762     102002.7      46.7237      46.7237      46.7237 
  143000    107.72717    -7209.619   -6654.4125   -993.52439     102002.7      46.7237      46.7237      46.7237 
  144000    107.16003   -7225.2518   -6672.9683   -451.71944     102002.7      46.7237      46.7237      46.7237 
  145000    108.45358   -7220.0896   -6661.1393   -822.53014     102002.7      46.7237      46.7237      46.7237 
  146000    112.38935   -7216.9418   -6637.7072   -733.54323     102002.7      46.7237      46.7237      46.7237 
  147000    107.51903    -7223.179   -6669.0451   -983.15727     102002.7      46.7237      46.7237      46.7237 
  148000    108.00093   -7242.2164   -6685.5989   -1005.8387     102002.7      46.7237      46.7237      46.7237 
  149000    111.01438   -7221.4253   -6649.2771   -571.85994     102002.7      46.7237      46.7237      46.7237 
  150000     113.9364   -7221.1728    -6633.965   -850.45931     102002.7      46.7237      46.7237      46.7237 
  151000    108.08383   -7222.3747     -6665.33   -579.91805     102002.7      46.7237      46.7237      46.7237 
  152000    113.31896   -7240.5252   -6656.4996   -905.90461     102002.7      46.7237      46.7237      46.7237 
  153000    109.52375   -7241.0468    -6676.581   -742.97606     102002.7      46.7237      46.7237      46.7237 
  154000    114.95833   -7238.8913   -6646.4167    -697.3513     102002.7      46.7237      46.7237      46.7237 
  155000    111.01837   -7232.2876   -6660.1189   -771.74925     102002.7      46.7237      46.7237      46.7237 
  156000    109.62069   -7239.2235   -6674.2582   -910.81476     102002.7      46.7237      46.7237      46.7237 
  157000    112.18547   -7217.3988    -6639.215   -904.23561     102002.7      46.7237      46.7237      46.7237 
  158000    111.52202   -7229.2774    -6654.513   -579.06474     102002.7      46.7237      46.7237      46.7237 
  159000    108.02812     -7229.94   -6673.1825   -822.12813     102002.7      46.7237      46.7237      46.7237 
  160000    109.68397    -7245.542   -6680.2505   -631.02271     102002.7      46.7237      46.7237      46.7237 
  161000    112.38121   -7224.7741   -6645.5815   -1216.1956     102002.7      46.7237      46.7237      46.7237 
  162000    110.37897   -7224.2733   -6655.3999    -1049.441     102002.7      46.7237      46.7237      46.7237 
  163000    110.06744   -7213.1564   -6645.8885   -991.72402     102002.7      46.7237      46.7237      46.7237 
  164000     109.3466   -7230.6292   -6667.0764    -1016.648     102002.7      46.7237      46.7237      46.7237 
  165000    109.88361   -7243.0651   -6676.7447   -639.52808     102002.7      46.7237      46.7237      46.7237 
  166000     109.7166    -7219.202   -6653.7423   -1134.5388     102002.7      46.7237      46.7237      46.7237 
  167000     105.4409   -7224.9938   -6681.5704   -684.08543     102002.7      46.7237      46.7237      46.7237 
  168000    111.70189   -7208.8421   -6633.1506   -1040.9417     102002.7      46.7237      46.7237      46.7237 
  169000    113.40719   -7232.6262   -6648.1459   -682.25121     102002.7      46.7237      46.7237      46.7237 
  170000    110.95457   -7231.1731   -6659.3331   -985.30467     102002.7      46.7237      46.7237      46.7237 
  171000    110.08757   -7240.1795   -6672.8079   -593.09913     102002.7      46.7237      46.7237      46.7237 
  172000    109.69497   -7230.4974   -6665.1492   -671.59479     102002.7      46.7237      46.7237      46.7237 
  173000     110.7969   -7211.2921   -6640.2648    -712.6391     102002.7      46.7237      46.7237      46.7237 
  174000     109.1316   -7241.0656   -6678.6209   -700.79512     102002.7      46.7237      46.7237      46.7237 
  175000    109.91634    -7205.491    -6639.002   -891.24668     102002.7      46.7237      46.7237      46.7237 
  176000    108.38489     -7239.72   -6681.1237   -357.45899     102002.7      46.7237      46.7237      46.7237 
  177000    112.15947   -7217.8917   -6639.8419   -492.81361     102002.7      46.7237      46.7237      46.7237 
  178000    108.74189   -7225.7643   -6665.3281   -442.46187     102002.7      46.7237      46.7237      46.7237 
  179000    114.86033   -7232.7246    -6640.755   -191.43988     102002.7      46.7237      46.7237      46.7237 
  180000    111.03983   -7232.8458   -6660.5665   -584.86812     102002.7      46.7237      46.7237      46.7237 
  181000     107.9907   -7194.3792   -6637.8146   -571.53814     102002.7      46.7237      46.7237      46.7237 
  182000     109.8784   -7217.6457   -6651.3521   -640.59155     102002.7      46.7237      46.7237      46.7237 
  183000    112.92648   -7228.4748    -6646.472   -447.87353     102002.7      46.7237      46.7237      46.7237 
  184000    109.84756   -7229.6518   -6663.5171   -524.78961     102002.7      46.7237      46.7237      46.7237 
  185000    113.49776   -7220.9009   -6635.9538   -617.53894     102002.7      46.7237      46.7237      46.7237 
  186000    110.89162   -7232.9205    -6661.405   -712.43256     102002.7      46.7237      46.7237      46.7237 
  187000     111.3383    -7239.687   -6665.8694   -479.30197     102002.7      46.7237      46.7237      46.7237 
  188000    108.62168   -7233.8909   -6674.0742   -616.35063     102002.7      46.7237      46.7237      46.7237 
  189000    110.61434   -7250.1698   -6680.0833   -736.02706     102002.7      46.7237      46.7237      46.7237 
  190000    108.33244   -7220.4835   -6662.1575   -760.69078     102002.7      46.7237      46.7237      46.7237 
  191000    106.70039   -7225.6728   -6675.7581   -860.49582     102002.7      46.7237      46.7237      46.7237 
  192000    110.26001   -7233.0779   -6664.8176   -592.19339     102002.7      46.7237      46.7237      46.7237 
  193000    117.04533   -7221.1646    -6617.934   -729.28059     102002.7      46.7237      46.7237      46.7237 
  194000    110.36515   -7236.2699   -6667.4677   -646.01215     102002.7      46.7237      46.7237      46.7237 
  195000    109.79577   -7250.9097   -6685.0419   -595.20444     102002.7      46.7237      46.7237      46.7237 
  196000    107.81133   -7214.9723    -6659.332   -508.51963     102002.7      46.7237      46.7237      46.7237 
  197000    112.31102    -7237.101   -6658.2702   -475.39501     102002.7      46.7237      46.7237      46.7237 
  198000    111.61865   -7215.6199   -6640.3574   -465.06773     102002.7      46.7237      46.7237      46.7237 
  199000    108.02333   -7219.9147   -6663.1818   -592.87349     102002.7      46.7237      46.7237      46.7237 
  200000    115.00871   -7215.4698   -6622.7355   -925.36712     102002.7      46.7237      46.7237      46.7237 
  201000    110.49121   -7242.4986   -6673.0468   -728.16859     102002.7      46.7237      46.7237      46.7237 
  202000    109.69726   -7225.3777   -6660.0178   -726.93955     102002.7      46.7237      46.7237      46.7237 
  203000    110.70467   -7204.8044   -6634.2524   -575.36463     102002.7      46.7237      46.7237      46.7237 
  204000    106.70422   -7216.2938   -6666.3594   -847.82501     102002.7      46.7237      46.7237      46.7237 
  205000    108.83203   -7228.6581   -6667.7574   -653.28145     102002.7      46.7237      46.7237      46.7237 
  206000    112.33236   -7233.3725   -6654.4317   -864.53216     102002.7      46.7237      46.7237      46.7237 
  207000    107.72423   -7237.2838   -6682.0924   -844.65382     102002.7      46.7237      46.7237      46.7237 
  208000    111.27954   -7228.8925   -6655.3777   -703.84862     102002.7      46.7237      46.7237      46.7237 
  209000    107.40115   -7241.2266   -6687.7003    -676.3541     102002.7      46.7237      46.7237      46.7237 
  210000    110.84212   -7211.5871   -6640.3267   -550.99567     102002.7      46.7237      46.7237      46.7237 
  211000    108.97452   -7232.2121   -6670.5769   -717.19336     102002.7      46.7237      46.7237      46.7237 
  212000     112.4345    -7217.655   -6638.1878   -731.86414     102002.7      46.7237      46.7237      46.7237 
  213000    111.84146   -7234.2726   -6657.8618   -810.49078     102002.7      46.7237      46.7237      46.7237 
  214000    105.82134   -7238.6295   -6693.2453   -772.29771     102002.7      46.7237      46.7237      46.7237 
  215000    112.00222   -7227.9372   -6650.6978   -616.48716     102002.7      46.7237      46.7237      46.7237 
  216000    109.81242   -7202.4871   -6636.5335   -929.15554     102002.7      46.7237      46.7237      46.7237 
  217000    108.90656   -7228.9223   -6667.6375   -475.24737     102002.7      46.7237      46.7237      46.7237 
  218000     110.7286   -7228.1202   -6657.4449   -885.33531     102002.7      46.7237      46.7237      46.7237 
  219000    108.52366   -7235.8415   -6676.5301   -762.83362     102002.7      46.7237      46.7237      46.7237 
  220000    112.45354   -7237.5927   -6658.0274   -577.79382     102002.7      46.7237      46.7237      46.7237 
  221000     110.2524   -7213.1932   -6644.9722   -994.43131     102002.7      46.7237      46.7237      46.7237 
  222000     106.0295   -7228.7139   -6682.2569   -523.95617     102002.7      46.7237      46.7237      46.7237 
  223000    111.21549   -7221.9435   -6648.7588   -782.61199     102002.7      46.7237      46.7237      46.7237 
  224000    111.19451   -7219.3072   -6646.2306   -838.26773     102002.7      46.7237      46.7237      46.7237 
  225000    112.18265   -7238.8938   -6660.7246    -705.6312     102002.7      46.7237      46.7237      46.7237 
  226000    108.76746   -7225.8627   -6665.2947   -772.68268     102002.7      46.7237      46.7237      46.7237 
  227000    110.53661   -7236.6576   -6666.9718    -558.2477     102002.7      46.7237      46.7237      46.7237 
  228000    111.43205   -7234.3511   -6660.0503   -796.11701     102002.7      46.7237      46.7237      46.7237 
  229000    110.38499   -7224.0558   -6655.1514   -768.23893     102002.7      46.7237      46.7237      46.7237 
  230000      106.777   -7230.8458   -6680.5363   -878.25396     102002.7      46.7237      46.7237      46.7237 
  231000    106.49885   -7209.2698   -6660.3938   -654.73686     102002.7      46.7237      46.7237      46.7237 
  232000    112.60663   -7206.9654   -6626.6111   -688.57128     102002.7      46.7237      46.7237      46.7237 
  233000    108.00332   -7222.2968    -6665.667   -641.89479     102002.7      46.7237      46.7237      46.7237 
  234000    111.24333     -7229.03   -6655.7018   -714.12531     102002.7      46.7237      46.7237      46.7237 
  235000    110.42468   -7207.5103   -6638.4013   -1069.6399     102002.7      46.7237      46.7237      46.7237 
  236000    107.35774   -7217.2324   -6663.9299   -688.92188     102002.7      46.7237      46.7237      46.7237 
  237000    111.00119   -7229.2662    -6657.186   -930.40126     102002.7      46.7237      46.7237      46.7237 
  238000    110.22241   -7231.8511   -6663.7846   -1195.2671     102002.7      46.7237      46.7237      46.7237 
  239000    108.36681   -7216.1552   -6657.6521   -700.45447     102002.7      46.7237      46.7237      46.7237 
  240000    110.90722   -7225.2296   -6653.6337   -998.47977     102002.7      46.7237      46.7237      46.7237 
  241000     109.4441   -7240.6702    -6676.615   -919.92164     102002.7      46.7237      46.7237      46.7237 
  242000    111.27026   -7241.1359   -6667.6689   -736.83038     102002.7      46.7237      46.7237      46.7237 
  243000    110.67792   -7208.1969   -6637.7828   -727.27651     102002.7      46.7237      46.7237      46.7237 
  244000    106.68438   -7224.2986   -6674.4665   -402.37984     102002.7      46.7237      46.7237      46.7237 
  245000    111.60404   -7210.4159   -6635.2287   -815.94691     102002.7      46.7237      46.7237      46.7237 
  246000    107.47001   -7221.8668   -6667.9856   -526.50164     102002.7      46.7237      46.7237      46.7237 
  247000    114.35213   -7225.9848   -6636.6344   -735.03579     102002.7      46.7237      46.7237      46.7237 
  248000    108.62722   -7235.0982    -6675.253   -499.47103     102002.7      46.7237      46.7237      46.7237 
  249000    108.22474   -7211.7993   -6654.0285   -585.09413     102002.7      46.7237      46.7237      46.7237 
  250000    112.13088   -7261.4797   -6683.5772   -645.82966     102002.7      46.7237      46.7237      46.7237 
  251000    109.55399     -7230.38   -6665.7584    -538.0328     102002.7      46.7237      46.7237      46.7237 
  252000     113.7917   -7224.2712   -6637.8092   -892.06449     102002.7      46.7237      46.7237      46.7237 
  253000    105.77894   -7230.2579   -6685.0922   -664.68928     102002.7      46.7237      46.7237      46.7237 
  254000    109.70203   -7218.1599   -6652.7753   -990.86077     102002.7      46.7237      46.7237      46.7237 
  255000     108.1829   -7228.6291   -6671.0738   -407.55849     102002.7      46.7237      46.7237      46.7237 
  256000    109.84172   -7228.1134   -6662.0089   -749.92338     102002.7      46.7237      46.7237      46.7237 
  257000    113.17242   -7234.9923   -6651.7219     -594.418     102002.7      46.7237      46.7237      46.7237 
  258000    108.51248   -7237.0309    -6677.777   -595.48579     102002.7      46.7237      46.7237      46.7237 
  259000    110.27884   -7217.2021   -6648.8448   -640.08987     102002.7      46.7237      46.7237      46.7237 
  260000    113.15252   -7229.1579   -6645.9901   -563.79655     102002.7      46.7237      46.7237      46.7237 
  261000    114.15172     -7224.32   -6636.0025   -853.72162     102002.7      46.7237      46.7237      46.7237 
  262000    109.28796   -7230.4959   -6667.2454   -735.36295     102002.7      46.7237      46.7237      46.7237 
  263000    107.98248   -7226.1218   -6669.5995   -704.91596     102002.7      46.7237      46.7237      46.7237 
  264000    112.10219   -7214.0274   -6636.2728   -772.54263     102002.7      46.7237      46.7237      46.7237 
  265000    109.73966   -7211.7315    -6646.153   -160.73675     102002.7      46.7237      46.7237      46.7237 
  266000    111.80673   -7216.0311   -6639.7992   -592.44069     102002.7      46.7237      46.7237      46.7237 
  267000    107.26256   -7235.3402   -6682.5282   -582.48211     102002.7      46.7237      46.7237      46.7237 
  268000    109.12227    -7224.851   -6662.4544   -1016.3025     102002.7      46.7237      46.7237      46.7237 
  269000    111.55335   -7211.3779   -6636.4519   -1032.1427     102002.7      46.7237      46.7237      46.7237 
  270000    107.54781   -7231.5268   -6677.2446   -966.57982     102002.7      46.7237      46.7237      46.7237 
  271000    110.76353   -7220.9269   -6650.0715   -930.74826     102002.7      46.7237      46.7237      46.7237 
  272000    106.09087    -7240.433   -6693.6596   -702.85035     102002.7      46.7237      46.7237      46.7237 
  273000    111.48773   -7240.2113   -6665.6236   -404.34326     102002.7      46.7237      46.7237      46.7237 
  274000    110.42021    -7214.112    -6645.026   -667.14655     102002.7      46.7237      46.7237      46.7237 
  275000    110.03354   -7234.1801    -6667.087   -522.56311     102002.7      46.7237      46.7237      46.7237 
  276000    112.15715   -7238.9124   -6660.8746   -657.58933     102002.7      46.7237      46.7237      46.7237 
  277000    110.67612   -7228.4427   -6658.0378   -735.36155     102002.7      46.7237      46.7237      46.7237 
  278000    112.00124   -7219.2826   -6642.0483   -792.64942     102002.7      46.7237      46.7237      46.7237 
  279000     108.7433    -7228.401   -6667.9575   -433.59427     102002.7      46.7237      46.7237      46.7237 
  280000     110.7666    -7235.106   -6664.2349   -591.56899     102002.7      46.7237      46.7237      46.7237 
  281000    109.87122   -7223.5445    -6657.288   -737.36816     102002.7      46.7237      46.7237      46.7237 
  282000    110.41152   -7232.7863   -6663.7452   -780.54296     102002.7      46.7237      46.7237      46.7237 
  283000    111.04353    -7217.715   -6645.4165   -780.95281     102002.7      46.7237      46.7237      46.7237 
  284000    111.25457   -7224.2402   -6650.8541   -1058.7233     102002.7      46.7237      46.7237      46.7237 
  285000    109.31997   -7235.7567   -6672.3412   -639.28907     102002.7      46.7237      46.7237      46.7237 
  286000    107.40299   -7221.8092   -6668.2735   -792.52783     102002.7      46.7237      46.7237      46.7237 
  287000    109.90022   -7229.9351   -6663.5291   -774.24359     102002.7      46.7237      46.7237      46.7237 
  288000    113.40114    -7228.849   -6644.3999   -892.20573     102002.7      46.7237      46.7237      46.7237 
  289000    108.54336   -7236.1805   -6676.7675   -639.90106     102002.7      46.7237      46.7237      46.7237 
  290000     112.7966   -7240.1747   -6658.8413   -518.33788     102002.7      46.7237      46.7237      46.7237 
  291000    112.95775   -7232.5065   -6650.3425   -741.34534     102002.7      46.7237      46.7237      46.7237 
  292000    108.84621   -7227.0614   -6666.0876   -782.02995     102002.7      46.7237      46.7237      46.7237 
  293000     106.8913   -7226.4764   -6675.5779   -663.28443     102002.7      46.7237      46.7237      46.7237 
  294000    107.57335   -7238.9977    -6684.584   -398.74036     102002.7      46.7237      46.7237      46.7237 
  295000    112.38135   -7225.9553    -6646.762    -742.3556     102002.7      46.7237      46.7237      46.7237 
  296000    111.24566   -7231.6888   -6658.3486   -567.51184     102002.7      46.7237      46.7237      46.7237 
  297000    111.19867   -7204.8234   -6631.7254     -731.001     102002.7      46.7237      46.7237      46.7237 
  298000    109.98878   -7243.6855    -6676.823   -528.84823     102002.7      46.7237      46.7237      46.7237 
  299000    113.32474   -7234.2754     -6650.22   -858.20952     102002.7      46.7237      46.7237      46.7237 
  300000    109.82517   -7227.3983   -6661.3791   -1060.7932     102002.7      46.7237      46.7237      46.7237 
  301000    113.66905   -7224.5183   -6638.6885   -654.27531     102002.7      46.7237      46.7237      46.7237 
  302000    107.39935   -7211.8668   -6658.3498   -994.15827     102002.7      46.7237      46.7237      46.7237 
  303000    111.20486   -7249.8647   -6676.7348   -719.58388     102002.7      46.7237      46.7237      46.7237 
  304000    116.15571   -7241.1252   -6642.4796   -909.21684     102002.7      46.7237      46.7237      46.7237 
  305000    110.14766   -7242.1397   -6674.4584     -674.947     102002.7      46.7237      46.7237      46.7237 
  306000    111.39419   -7225.2583   -6651.1526   -842.67935     102002.7      46.7237      46.7237      46.7237 
  307000    110.81977   -7238.9268   -6667.7816   -674.74387     102002.7      46.7237      46.7237      46.7237 
  308000    114.10195   -7207.5116   -6619.4506   -582.27799     102002.7      46.7237      46.7237      46.7237 
  309000    108.93923   -7227.1903   -6665.7371   -812.41216     102002.7      46.7237      46.7237      46.7237 
  310000    108.09424   -7242.9109   -6685.8126   -519.46958     102002.7      46.7237      46.7237      46.7237 
  311000     109.3467   -7219.2488   -6655.6955   -689.65582     102002.7      46.7237      46.7237      46.7237 
  312000    108.21796   -7232.0485   -6674.3126   -613.07193     102002.7      46.7237      46.7237      46.7237 
  313000    111.41001   -7215.7092    -6641.522   -514.87316     102002.7      46.7237      46.7237      46.7237 
  314000    110.09903   -7239.6947   -6672.2641   -742.63114     102002.7      46.7237      46.7237      46.7237 
  315000    107.78693   -7224.4758   -6668.9613   -683.97004     102002.7      46.7237      46.7237      46.7237 
  316000    110.81596   -7235.4846    -6664.359    -843.5618     102002.7      46.7237      46.7237      46.7237 
  317000    111.10001   -7226.8263   -6654.2368   -658.20781     102002.7      46.7237      46.7237      46.7237 
  318000    112.25045   -7219.0299   -6640.5112   -625.02623     102002.7      46.7237      46.7237      46.7237 
  319000    109.23881   -7227.9507   -6664.9534   -770.70379     102002.7      46.7237      46.7237      46.7237 
  320000    106.96677   -7226.4001   -6675.1126   -458.79514     102002.7      46.7237      46.7237      46.7237 
  321000    112.23177   -7218.0622   -6639.6398   -807.40702     102002.7      46.7237      46.7237      46.7237 
  322000    113.26559   -7232.8926   -6649.1421   -517.74364     102002.7      46.7237      46.7237      46.7237 
  323000    108.41595   -7231.2503    -6672.494   -714.90815     102002.7      46.7237      46.7237      46.7237 
  324000    111.49173   -7227.0825   -6652.4742   -747.27851     102002.7      46.7237      46.7237      46.7237 
  325000     110.1596    -7233.888   -6666.1451   -521.74638     102002.7      46.7237      46.7237      46.7237 
  326000    107.61398   -7245.5133   -6690.8901   -659.39272     102002.7      46.7237      46.7237      46.7237 
  327000    110.57519   -7219.7059   -6649.8212   -473.66553     102002.7      46.7237      46.7237      46.7237 
  328000    110.66413   -7235.4672   -6665.1241   -640.51106     102002.7      46.7237      46.7237      46.7237 
  329000    109.06283   -7232.8725   -6670.7822    -598.7917     102002.7      46.7237      46.7237      46.7237 
  330000    109.97323   -7232.0058   -6665.2235   -680.24868     102002.7      46.7237      46.7237      46.7237 
  331000    107.96174   -7222.1425   -6665.7271   -988.65137     102002.7      46.7237      46.7237      46.7237 
  332000    112.95178   -7244.3733   -6662.2401   -219.52462     102002.7      46.7237      46.7237      46.7237 
  333000    112.07433   -7225.2065   -6647.5955   -631.68115     102002.7      46.7237      46.7237      46.7237 
  334000    110.08125    -7254.071   -6686.7319   -755.09517     102002.7      46.7237      46.7237      46.7237 
  335000    112.45175   -7220.3085   -6640.7523   -483.85417     102002.7      46.7237      46.7237      46.7237 
  336000    112.51187    -7234.637    -6654.771   -987.30352     102002.7      46.7237      46.7237      46.7237 
  337000    109.35396   -7232.5873   -6668.9967   -887.63555     102002.7      46.7237      46.7237      46.7237 
  338000    110.95792   -7236.7048   -6664.8476   -867.66891     102002.7      46.7237      46.7237      46.7237 
  339000    110.46412   -7231.3232   -6662.0109   -789.44342     102002.7      46.7237      46.7237      46.7237 
  340000    109.17822   -7235.1888   -6672.5039   -510.23081     102002.7      46.7237      46.7237      46.7237 
  341000    112.44482   -7218.4334    -6638.913   -517.66999     102002.7      46.7237      46.7237      46.7237 
  342000    108.81099   -7225.9086   -6665.1163   -996.87359     102002.7      46.7237      46.7237      46.7237 
  343000    111.80836   -7189.1628   -6612.9226    -680.0991     102002.7      46.7237      46.7237      46.7237 
  344000    106.77263   -7227.0234   -6676.7364   -1040.8428     102002.7      46.7237      46.7237      46.7237 
  345000    105.75142   -7216.5821   -6671.5582   -710.27914     102002.7      46.7237      46.7237      46.7237 
  346000    108.37388   -7239.6613   -6681.1218   -933.90176     102002.7      46.7237      46.7237      46.7237 
  347000     112.7279   -7226.0843   -6645.1049    -575.2855     102002.7      46.7237      46.7237      46.7237 
  348000    108.18637    -7226.472   -6668.8988   -326.35137     102002.7      46.7237      46.7237      46.7237 
  349000    111.90536   -7237.5379   -6660.7978   -646.00005     102002.7      46.7237      46.7237      46.7237 
  350000    110.95721   -7205.9013   -6634.0478   -541.34401     102002.7      46.7237      46.7237      46.7237 
  351000    108.75629   -7230.1813   -6669.6709    -679.4004     102002.7      46.7237      46.7237      46.7237 
  352000    110.66222    -7241.017   -6670.6838   -923.76279     102002.7      46.7237      46.7237      46.7237 
  353000    112.56019   -7240.7147   -6660.5997   -718.12557     102002.7      46.7237      46.7237      46.7237 
  354000    111.51764   -7232.5674   -6657.8255   -683.24771     102002.7      46.7237      46.7237      46.7237 
  355000    112.14461   -7223.4034   -6645.4302   -595.92701     102002.7      46.7237      46.7237      46.7237 
  356000    105.52742   -7236.3243   -6692.4549   -671.49298     102002.7      46.7237      46.7237      46.7237 
  357000     110.5375   -7231.4788   -6661.7884   -673.89257     102002.7      46.7237      46.7237      46.7237 
  358000     111.4977   -7222.1033   -6647.4641   -639.76087     102002.7      46.7237      46.7237      46.7237 
  359000    109.42322   -7222.4271   -6658.4794   -542.15712     102002.7      46.7237      46.7237      46.7237 
  360000    110.39189   -7235.7237   -6666.7837   -633.78535     102002.7      46.7237      46.7237      46.7237 
  361000    109.54957   -7237.6697   -6673.0709   -552.01989     102002.7      46.7237      46.7237      46.7237 
  362000    114.32904   -7223.4802   -6634.2488    -610.2553     102002.7      46.7237      46.7237      46.7237 
  363000    107.30158   -7225.1965   -6672.1835   -599.19328     102002.7      46.7237      46.7237      46.7237 
  364000     106.1038   -7249.6764   -6702.8364    -775.2918     102002.7      46.7237      46.7237      46.7237 
  365000    111.56855   -7217.0115   -6642.0072   -1080.8401     102002.7      46.7237      46.7237      46.7237 
  366000    103.58311   -7221.2945   -6687.4457   -908.18226     102002.7      46.7237      46.7237      46.7237 
  367000    108.75067   -7232.0289   -6671.5474   -922.92908     102002.7      46.7237      46.7237      46.7237 
  368000    111.53631   -7219.4582     -6644.62   -626.89822     102002.7      46.7237      46.7237      46.7237 
  369000    111.33567    -7236.939   -6663.1349    -689.0901     102002.7      46.7237      46.7237      46.7237 
  370000    110.05583   -7224.5535   -6657.3455   -912.62934     102002.7      46.7237      46.7237      46.7237 
  371000    108.25014   -7239.8202   -6681.9184   -790.35481     102002.7      46.7237      46.7237      46.7237 
  372000    110.88692   -7236.2321   -6664.7408   -934.25481     102002.7      46.7237      46.7237      46.7237 
  373000    111.04945   -7216.9892   -6644.6603   -834.38492     102002.7      46.7237      46.7237      46.7237 
  374000    106.12804   -7199.8006   -6652.8357   -774.09677     102002.7      46.7237      46.7237      46.7237 
  375000    110.38667    -7237.387   -6668.4739   -808.83875     102002.7      46.7237      46.7237      46.7237 
  376000    112.70929   -7219.4161   -6638.5326    -539.9019     102002.7      46.7237      46.7237      46.7237 
  377000    109.32769   -7217.1869   -6653.7316   -935.51552     102002.7      46.7237      46.7237      46.7237 
  378000    110.61308   -7231.6564   -6661.5764   -723.93064     102002.7      46.7237      46.7237      46.7237 
  379000    110.36104   -7226.3433   -6657.5623   -608.86637     102002.7      46.7237      46.7237      46.7237 
  380000    109.02758   -7220.0591   -6658.1505   -687.72918     102002.7      46.7237      46.7237      46.7237 
  381000    108.64906   -7239.0195   -6679.0618   -760.52353     102002.7      46.7237      46.7237      46.7237 
  382000    108.76783   -7210.9061   -6650.3362   -478.94537     102002.7      46.7237      46.7237      46.7237 
  383000    110.31447   -7225.4227   -6656.8817   -462.93494     102002.7      46.7237      46.7237      46.7237 
  384000    110.82622   -7236.6584     -6665.48   -714.42198     102002.7      46.7237      46.7237      46.7237 
  385000    110.44158   -7209.7845   -6640.5884   -642.56211     102002.7      46.7237      46.7237      46.7237 
  386000    108.69031   -7237.2964    -6677.126   -691.51821     102002.7      46.7237      46.7237      46.7237 
  387000    111.83402   -7216.2933   -6639.9208   -642.00164     102002.7      46.7237      46.7237      46.7237 
  388000    108.98376   -7238.1567    -6676.474   -718.29624     102002.7      46.7237      46.7237      46.7237 
  389000    110.69461   -7224.7927   -6654.2925   -921.29799     102002.7      46.7237      46.7237      46.7237 
  390000    108.12136   -7224.0494   -6666.8113   -732.00402     102002.7      46.7237      46.7237      46.7237 
  391000    113.30075   -7230.1768   -6646.2451   -1042.3717     102002.7      46.7237      46.7237      46.7237 
  392000    112.07586    -7223.336   -6645.7171   -568.44634     102002.7      46.7237      46.7237      46.7237 
  393000    110.25529   -7236.6651   -6668.4291    -610.7769     102002.7      46.7237      46.7237      46.7237 
  394000    107.24515   -7246.4862   -6693.7639   -705.41422     102002.7      46.7237      46.7237      46.7237 
  395000     109.9461   -7224.1267   -6657.4842   -824.20723     102002.7      46.7237      46.7237      46.7237 
  396000    111.49558   -7233.4485   -6658.8203   -625.12837     102002.7      46.7237      46.7237      46.7237 
  397000    108.67849   -7226.2705    -6666.161   -694.30839     102002.7      46.7237      46.7237      46.7237 
  398000    107.20173   -7217.3656   -6664.8672   -808.20691     102002.7      46.7237      46.7237      46.7237 
  399000    113.28428   -7215.6481   -6631.8013   -738.45177     102002.7      46.7237      46.7237      46.7237 
  400000    112.33968   -7228.1741   -6649.1956   -895.15234     102002.7      46.7237      46.7237      46.7237 
  401000    111.89904   -7240.9158   -6664.2082   -587.92465     102002.7      46.7237      46.7237      46.7237 
  402000    113.36324    -7229.705   -6645.4512   -834.48067     102002.7      46.7237      46.7237      46.7237 
  403000    111.16103   -7219.6996   -6646.7956   -1008.2393     102002.7      46.7237      46.7237      46.7237 
  404000    109.30382   -7231.8804   -6668.5481   -709.94479     102002.7      46.7237      46.7237      46.7237 
  405000     111.5845   -7203.3766   -6628.2901   -961.40824     102002.7      46.7237      46.7237      46.7237 
  406000    108.73162   -7236.2747   -6675.8914   -1073.3334     102002.7      46.7237      46.7237      46.7237 
  407000    111.61467   -7228.2881   -6653.0461   -939.45549     102002.7      46.7237      46.7237      46.7237 
  408000    108.77069   -7226.2082   -6665.6236   -748.12722     102002.7      46.7237      46.7237      46.7237 
  409000    110.28137   -7231.8122   -6663.4419   -748.09574     102002.7      46.7237      46.7237      46.7237 
  410000    108.12866   -7245.7449   -6688.4692   -982.82448     102002.7      46.7237      46.7237      46.7237 
  411000    110.04411   -7209.5967   -6642.4491   -1020.7419     102002.7      46.7237      46.7237      46.7237 
  412000    109.97217   -7231.4826   -6664.7057    -1044.258     102002.7      46.7237      46.7237      46.7237 
  413000    111.00513   -7238.4339   -6666.3334   -761.74046     102002.7      46.7237      46.7237      46.7237 
  414000    110.32799    -7238.286   -6669.6753   -1083.5834     102002.7      46.7237      46.7237      46.7237 
  415000    111.63943   -7213.7218   -6638.3523   -1212.3217     102002.7      46.7237      46.7237      46.7237 
  416000    111.02477   -7240.6658   -6668.4641   -624.17306     102002.7      46.7237      46.7237      46.7237 
  417000    110.64109   -7227.9689   -6657.7446   -779.75827     102002.7      46.7237      46.7237      46.7237 
  418000    112.98188   -7221.1898   -6638.9014   -765.74277     102002.7      46.7237      46.7237      46.7237 
  419000    106.91354   -7241.2207   -6690.2075   -556.25204     102002.7      46.7237      46.7237      46.7237 
  420000    109.48407   -7229.4504   -6665.1891    -954.6435     102002.7      46.7237      46.7237      46.7237 
  421000    111.62523   -7218.7853   -6643.4889   -680.55019     102002.7      46.7237      46.7237      46.7237 
  422000    108.82747   -7247.3446   -6686.4673   -717.87888     102002.7      46.7237      46.7237      46.7237 
  423000    108.41199    -7218.576     -6659.84   -762.16171     102002.7      46.7237      46.7237      46.7237 
  424000    108.44221   -7245.1331   -6686.2414   -552.25573     102002.7      46.7237      46.7237      46.7237 
  425000    111.49007   -7225.2279   -6650.6281     -739.945     102002.7      46.7237      46.7237      46.7237 
  426000    109.72964   -7230.5426   -6665.0157   -800.80758     102002.7      46.7237      46.7237      46.7237 
  427000    108.38259   -7213.2477   -6654.6632    -940.4292     102002.7      46.7237      46.7237      46.7237 
  428000    109.50283   -7251.8981   -6687.5402   -1056.4148     102002.7      46.7237      46.7237      46.7237 
  429000    113.94375   -7237.4069   -6650.1612   -894.11478     102002.7      46.7237      46.7237      46.7237 
  430000    109.43645   -7237.7859   -6673.7701   -661.92043     102002.7      46.7237      46.7237      46.7237 
  431000    110.30281   -7226.0769    -6657.596   -583.72105     102002.7      46.7237      46.7237      46.7237 
  432000    107.45102   -7230.8567   -6677.0735   -757.53462     102002.7      46.7237      46.7237      46.7237 
  433000    113.31432   -7232.1567    -6648.155   -680.62076     102002.7      46.7237      46.7237      46.7237 
  434000    108.54602   -7238.7806   -6679.3539   -689.04686     102002.7      46.7237      46.7237      46.7237 
  435000    108.29195   -7241.7097   -6683.5924   -855.36565     102002.7      46.7237      46.7237      46.7237 
  436000    112.13561    -7243.723   -6665.7962    -621.4243     102002.7      46.7237      46.7237      46.7237 
  437000     110.1642   -7218.5417   -6650.7752    -878.6111     102002.7      46.7237      46.7237      46.7237 
  438000    107.23367   -7244.5221    -6691.859   -778.47785     102002.7      46.7237      46.7237      46.7237 
  439000    110.22489   -7226.8182   -6658.7389   -757.89007     102002.7      46.7237      46.7237      46.7237 
  440000    105.55954   -7244.2276   -6700.1926    -808.7255     102002.7      46.7237      46.7237      46.7237 
  441000     110.0866   -7225.7298   -6658.3632   -646.28151     102002.7      46.7237      46.7237      46.7237 
  442000    113.45822   -7239.0903    -6654.347    -805.5599     102002.7      46.7237      46.7237      46.7237 
  443000     110.3153   -7228.9389   -6660.3936   -1122.4473     102002.7      46.7237      46.7237      46.7237 
  444000    110.62453   -7213.9933   -6643.8543   -859.05078     102002.7      46.7237      46.7237      46.7237 
  445000    109.91477   -7213.6331   -6647.1521   -664.72937     102002.7      46.7237      46.7237      46.7237 
  446000    109.37551    -7220.646   -6656.9442    -922.4978     102002.7      46.7237      46.7237      46.7237 
  447000    110.02276   -7217.1614   -6650.1238   -682.96829     102002.7      46.7237      46.7237      46.7237 
  448000    108.84512   -7234.4006   -6673.4323   -842.60714     102002.7      46.7237      46.7237      46.7237 
  449000    108.66334   -7229.9316   -6669.9003   -623.69291     102002.7      46.7237      46.7237      46.7237 
  450000     110.6185   -7242.2946   -6672.1866   -424.87231     102002.7      46.7237      46.7237      46.7237 
  451000    109.52131   -7244.0618   -6679.6087   -588.34159     102002.7      46.7237      46.7237      46.7237 
  452000    109.49204   -7229.2507   -6664.9484   -729.71693     102002.7      46.7237      46.7237      46.7237 
  453000    112.80154   -7252.1915   -6670.8326   -681.69196     102002.7      46.7237      46.7237      46.7237 
  454000    112.63477   -7225.7185   -6645.2191   -582.61042     102002.7      46.7237      46.7237      46.7237 
  455000    106.62689   -7223.3347   -6673.7988   -516.23617     102002.7      46.7237      46.7237      46.7237 
  456000    113.37621   -7216.6202   -6632.2996   -734.00208     102002.7      46.7237      46.7237      46.7237 
  457000    108.73156    -7227.925   -6667.5421   -532.04517     102002.7      46.7237      46.7237      46.7237 
  458000    104.71536   -7226.0514   -6686.3673   -865.77566     102002.7      46.7237      46.7237      46.7237 
  459000    110.70783   -7223.2652   -6652.6969   -740.84788     102002.7      46.7237      46.7237      46.7237 
  460000    113.30151   -7250.5387   -6666.6031   -727.67026     102002.7      46.7237      46.7237      46.7237 
  461000    110.24567   -7231.8103   -6663.6239   -909.80725     102002.7      46.7237      46.7237      46.7237 
  462000    108.06703   -7233.6961    -6676.738   -650.70946     102002.7      46.7237      46.7237      46.7237 
  463000    110.07706   -7232.3403   -6665.0229   -627.96287     102002.7      46.7237      46.7237      46.7237 
  464000    106.21729   -7210.6728    -6663.248   -599.29598     102002.7      46.7237      46.7237      46.7237 
  465000    107.30336    -7238.784   -6685.7617    -558.8266     102002.7      46.7237      46.7237      46.7237 
  466000     110.2335   -7223.9474   -6655.8237   -668.51134     102002.7      46.7237      46.7237      46.7237 
  467000    102.84094   -7240.8585   -6710.8348   -725.36593     102002.7      46.7237      46.7237      46.7237 
  468000    110.41608   -7219.1103   -6650.0456   -1021.2331     102002.7      46.7237      46.7237      46.7237 
  469000      112.114   -7218.7899   -6640.9745   -1149.6416     102002.7      46.7237      46.7237      46.7237 
  470000    110.80027   -7228.3353   -6657.2906   -1148.1952     102002.7      46.7237      46.7237      46.7237 
  471000    113.81026   -7209.9192   -6623.3615   -965.64039     102002.7      46.7237      46.7237      46.7237 
  472000    109.81277   -7222.7146   -6656.7593   -1058.5622     102002.7      46.7237      46.7237      46.7237 
  473000    113.14551   -7214.9859   -6631.8542   -1020.0961     102002.7      46.7237      46.7237      46.7237 
  474000    110.37001   -7240.7438   -6671.9165   -869.45977     102002.7      46.7237      46.7237      46.7237 
  475000    111.12847   -7205.3256   -6632.5894   -952.49505     102002.7      46.7237      46.7237      46.7237 
  476000    111.51035   -7253.3755   -6678.6711   -1043.9475     102002.7      46.7237      46.7237      46.7237 
  477000    113.09006   -7221.2258   -6638.3799   -414.42687     102002.7      46.7237      46.7237      46.7237 
  478000    107.90451   -7231.1719   -6675.0514   -861.99448     102002.7      46.7237      46.7237      46.7237 
  479000    112.29321   -7240.0427   -6661.3037   -539.54236     102002.7      46.7237      46.7237      46.7237 
  480000    112.33084   -7251.3598   -6672.4268   -428.39011     102002.7      46.7237      46.7237      46.7237 
  481000    110.37779   -7232.6807   -6663.8133   -629.22614     102002.7      46.7237      46.7237      46.7237 
  482000    109.84508   -7229.5296   -6663.4078   -743.20203     102002.7      46.7237      46.7237      46.7237 
  483000    110.26336   -7244.7755   -6676.4979   -638.52799     102002.7      46.7237      46.7237      46.7237 
  484000    112.91878    -7232.001   -6650.0379   -752.29894     102002.7      46.7237      46.7237      46.7237 
  485000    108.33088   -7221.4396   -6663.1217   -683.81505     102002.7      46.7237      46.7237      46.7237 
  486000    111.20126    -7225.983   -6652.8717   -503.56022     102002.7      46.7237      46.7237      46.7237 
  487000    108.19814    -7218.943   -6661.3092   -1090.1351     102002.7      46.7237      46.7237      46.7237 
  488000    109.48254    -7242.304   -6678.0507   -447.78916     102002.7      46.7237      46.7237      46.7237 
  489000    109.44041   -7242.8072    -6678.771   -972.66019     102002.7      46.7237      46.7237      46.7237 
  490000    112.10925   -7219.6402   -6641.8492   -744.86539     102002.7      46.7237      46.7237      46.7237 
  491000    110.49879   -7234.0417   -6664.5507   -304.52793     102002.7      46.7237      46.7237      46.7237 
  492000    113.94525    -7237.238   -6649.9847   -850.14322     102002.7      46.7237      46.7237      46.7237 
  493000      108.488   -7232.6754   -6673.5477   -574.42619     102002.7      46.7237      46.7237      46.7237 
  494000     110.0618   -7232.8609   -6665.6222   -741.12365     102002.7      46.7237      46.7237      46.7237 
  495000    109.50183   -7224.9507   -6660.5979   -417.29407     102002.7      46.7237      46.7237      46.7237 
  496000    113.22022   -7238.1401   -6654.6234   -707.75583     102002.7      46.7237      46.7237      46.7237 
  497000    108.77515   -7237.7731   -6677.1655    -592.4796     102002.7      46.7237      46.7237      46.7237 
  498000    112.02496   -7238.6439   -6661.2874   -693.91573     102002.7      46.7237      46.7237      46.7237 
  499000    108.65708   -7242.6058   -6682.6067   -731.02145     102002.7      46.7237      46.7237      46.7237 
  500000    109.98068   -7242.4924   -6675.6717    -531.0063     102002.7      46.7237      46.7237      46.7237 
  500501    110.79722   -7235.7839   -6664.7549   -579.07475     102002.7      46.7237      46.7237      46.7237 
Loop time of 558.85 on 24 procs for 500000 steps with 1730 atoms

Performance: 77.302 ns/day, 0.310 hours/ns, 894.694 timesteps/s
99.9% CPU use with 24 MPI tasks x no OpenMP threads

MPI task timing breakdown:
Section |  min time  |  avg time  |  max time  |%varavg| %total
---------------------------------------------------------------
Pair    | 185.05     | 275.04     | 352.7      | 277.4 | 49.22
Bond    | 73.361     | 78.332     | 80.72      |  20.3 | 14.02
Neigh   | 1.5152     | 1.5314     | 1.5429     |   0.8 |  0.27
Comm    | 119.15     | 196.71     | 285.16     | 320.2 | 35.20
Output  | 0.32425    | 0.32458    | 0.32884    |   0.2 |  0.06
Modify  | 3.6014     | 3.8908     | 4.1814     |   7.2 |  0.70
Other   |            | 3.028      |            |       |  0.54

Nlocal:    72.0833 ave 100 max 48 min
Histogram: 1 3 3 2 4 4 3 3 0 1
Nghost:    1969.08 ave 2132 max 1870 min
Histogram: 11 5 0 0 0 0 0 0 1 7
Neighs:    7643.96 ave 11444 max 3392 min
Histogram: 1 2 2 3 3 4 2 2 3 2

Total # of neighbors = 183455
Ave neighs/atom = 106.043
Ave special neighs/atom = 6.65896
Neighbor list builds = 2906
Dangerous builds = 0
Neighbor list info ...
  update every 1 steps, delay 10 steps, check yes
  max neighbors/atom: 2000, page size: 100000
  master list distance cutoff = 16
  ghost atom cutoff = 16
  binsize = 8, bins = 6 6 6
  3 neighbor lists, perpetual/occasional/extra = 3 0 0
  (1) pair buck6d/coul/gauss/dsf, perpetual, skip from (3)
      attributes: half, newton on
      pair build: skip
      stencil: none
      bin: none
  (2) pair lj/cut, perpetual, skip from (3)
      attributes: half, newton on
      pair build: skip
      stencil: none
      bin: none
  (3) neighbor class addition, perpetual
      attributes: half, newton on
      pair build: half/bin/newton
      stencil: half/bin/3d/newton
      bin: standard
Setting up Verlet run ...
  Unit style    : real
  Current step  : 500501
  Time step     : 1
WARNING: Inconsistent image flags (../domain.cpp:786)
Per MPI rank memory allocation (min/avg/max) = 24.1 | 24.45 | 24.57 Mbytes
Step Time TotEng KinEng PotEng E_mol E_pair Temp Pxx Pyy Pzz Pxy Pxz Pyz Cella Cellb Cellc CellAlpha CellBeta CellGamma Volume Press 
  500501       500000   -6664.7549    571.02902   -7235.7839    4304.2697   -11540.054    110.79722   -484.51046   -432.51533   -820.19845   -166.21717   -31.570797    18.359326      46.7237      46.7237      46.7237           90           90           90     102002.7   -579.07475 
  501000       500499   -6638.7531    573.42499    -7212.178     4343.013   -11555.191    111.26212   -1036.3258   -931.51115   -1275.8206   -306.41274   -182.51037   -24.636209      46.7237      46.7237      46.7237           90           90           90     102002.7   -1081.2192 
  502000       501499   -6654.9118    574.15772   -7229.0695    4316.5545   -11545.624    111.40429    -555.3924   -666.71032   -374.72038   -23.104824    -289.7802    -18.14933      46.7237      46.7237      46.7237           90           90           90     102002.7   -532.27437 
  503000       502499   -6662.7331    567.84455   -7230.5777    4304.9104   -11535.488    110.17934   -638.07903   -883.09597     -897.744    211.93012   -85.442482    219.74327      46.7237      46.7237      46.7237           90           90           90     102002.7   -806.30633 
  504000       503499   -6687.8091     548.0201   -7235.8292     4310.669   -11546.498    106.33279   -679.40728   -876.81735   -885.99015   -192.56295     -42.4787    72.597371      46.7237      46.7237      46.7237           90           90           90     102002.7   -814.07159 
  505000       504499   -6653.2422    571.31147   -7224.5537    4314.6778   -11539.231    110.85203   -431.89113   -932.55613   -558.31024   -30.902473   -213.48916   -233.33674      46.7237      46.7237      46.7237           90           90           90     102002.7   -640.91916 
  506000       505499   -6658.8556    565.36952   -7224.2251    4307.7405   -11531.966    109.69911   -342.30786   -649.52433   -630.47117  -0.56479094   -139.68763    226.05682      46.7237      46.7237      46.7237           90           90           90     102002.7   -540.76778 
  507000       506499   -6656.5783    568.84852   -7225.4268    4318.2412   -11543.668    110.37414   -682.34103   -840.07594   -998.11286    42.303835    126.36454    177.35905      46.7237      46.7237      46.7237           90           90           90     102002.7   -840.17661 
  508000       507499   -6678.5352    565.26203   -7243.7972    4309.7992   -11553.596    109.67825   -960.17015   -802.48616   -706.86798   -9.1896521    171.28384    14.781104      46.7237      46.7237      46.7237           90           90           90     102002.7   -823.17477 
  509000       508499   -6660.7174    559.90056    -7220.618    4313.2463   -11533.864    108.63796   -336.61997   -1083.7752   -927.01521    208.16174    180.91686   -20.460946      46.7237      46.7237      46.7237           90           90           90     102002.7   -782.47012 
  510000       509499   -6666.7873    556.89153   -7223.6789     4330.109   -11553.788    108.05412    -350.3814   -1290.0736   -933.20299   -279.35696    33.001228    199.72021      46.7237      46.7237      46.7237           90           90           90     102002.7     -857.886 
  511000       510499   -6648.7649    573.56065   -7222.3255    4320.2988   -11542.624    111.28844   -932.08696   -1086.0126   -573.26359    -107.5619     18.84828    -47.93413      46.7237      46.7237      46.7237           90           90           90     102002.7   -863.78773 
  512000       511499   -6689.0335    559.03501   -7248.0685    4292.8728   -11540.941    108.47002   -229.31895   -417.26821   -403.51201     -82.8617    135.82819   -86.639224      46.7237      46.7237      46.7237           90           90           90     102002.7   -350.03306 
  513000       512499   -6654.8502     568.8639   -7223.7141    4312.1739   -11535.888    110.37712   -996.08782   -653.11331   -1076.3002    107.71523    -80.72241     158.7615      46.7237      46.7237      46.7237           90           90           90     102002.7   -908.50044 
  514000       513499   -6674.5189    555.93793   -7230.4568    4324.8541   -11555.311    107.86909   -883.79947   -417.90148   -1104.6231   -135.68471   -259.45527   -23.304414      46.7237      46.7237      46.7237           90           90           90     102002.7   -802.10802 
  515000       514499   -6634.9602    570.57709   -7205.5373     4349.024   -11554.561    110.70954   -620.14726   -603.93515   -802.01802    53.635265   -141.21365   -161.63269      46.7237      46.7237      46.7237           90           90           90     102002.7   -675.36681 
  516000       515499   -6667.7281    565.18513   -7232.9133    4320.9645   -11553.878    109.66333   -603.43934   -721.25619    -989.2376    160.68045    79.766933     1.720135      46.7237      46.7237      46.7237           90           90           90     102002.7   -771.31104 
  517000       516499   -6634.8582    569.14071   -7203.9989    4359.5747   -11563.574    110.43083   -798.33029   -873.88528    -357.5394    79.202699    14.734235   -36.690576      46.7237      46.7237      46.7237           90           90           90     102002.7   -676.58499 
  518000       517499   -6662.6655     565.6947   -7228.3602    4333.7115   -11562.072     109.7622   -738.05336   -1046.2036   -684.22161    107.51943   -64.755351   -25.774338      46.7237      46.7237      46.7237           90           90           90     102002.7    -822.8262 
  519000       518499   -6663.9214    563.15546   -7227.0769    4324.9571   -11552.034    109.26951   -287.01899   -326.98932   -195.06491    16.013471   -14.107448   -132.31708      46.7237      46.7237      46.7237           90           90           90     102002.7   -269.69107 
  520000       519499   -6639.0433    575.74789   -7214.7912    4333.9267   -11548.718    111.71283   -543.27803    -1033.073   -943.19192    34.968094    158.38948    64.387236      46.7237      46.7237      46.7237           90           90           90     102002.7   -839.84766 
  521000       520499   -6657.1541    569.76677   -7226.9209    4315.7601   -11542.681    110.55231   -447.91174    -600.4169   -522.35171     41.49223    53.990319   -86.306704      46.7237      46.7237      46.7237           90           90           90     102002.7   -523.56011 
  522000       521499   -6679.9716    554.37299   -7234.3446    4297.3514   -11531.696    107.56544   -300.32452   -302.34671   -798.50149   -33.756381    133.91665   -179.74918      46.7237      46.7237      46.7237           90           90           90     102002.7   -467.05757 
  523000       522499    -6651.738    549.98207     -7201.72     4333.507   -11535.227    106.71347   -325.79955   -1026.1076   -512.30883    20.736577    31.181216    4.8021431      46.7237      46.7237      46.7237           90           90           90     102002.7   -621.40533 
  524000       523499   -6660.2865    565.79877   -7226.0853     4321.324   -11547.409     109.7824   -956.61304   -381.95316   -927.06963   -14.847127   -29.410282    79.861689      46.7237      46.7237      46.7237           90           90           90     102002.7   -755.21195 
  525000       524499   -6682.5014    550.96603   -7233.4674    4305.8878   -11539.355    106.90439   -897.72818   -194.84771   -334.60775     230.0574    189.81225   -241.81821      46.7237      46.7237      46.7237           90           90           90     102002.7   -475.72788 
  526000       525499   -6660.6674    564.16044   -7224.8278    4324.7966   -11549.624    109.46451   -618.01355   -157.94635    -349.3916    42.809236    18.080127   -4.7057751      46.7237      46.7237      46.7237           90           90           90     102002.7   -375.11717 
  527000       526499   -6657.7812    572.22217   -7230.0034    4314.2424   -11544.246    111.02873    19.564078   -240.03803    -543.8082    49.774305   -99.108408   -96.486166      46.7237      46.7237      46.7237           90           90           90     102002.7   -254.76072 
  528000       527499   -6670.7074    554.65099   -7225.3584    4308.2866   -11533.645    107.61938   -423.41286   -616.52267   -898.68943    97.768436    112.74973    185.98754      46.7237      46.7237      46.7237           90           90           90     102002.7   -646.20832 
  529000       528499   -6639.4286    579.04769   -7218.4763    4333.5455   -11552.022     112.3531   -619.13997   -932.92724   -607.53857    41.291561     203.3481   -70.123211      46.7237      46.7237      46.7237           90           90           90     102002.7   -719.86859 
  530000       529499   -6661.0696    581.12285   -7242.1924    4318.0732   -11560.266    112.75574   -435.88804   -498.45492   -482.54787     78.99293   -168.20223    149.92169      46.7237      46.7237      46.7237           90           90           90     102002.7   -472.29695 
  531000       530499   -6649.3701     573.9236   -7223.2937    4310.2473   -11533.541    111.35886   -1028.0861   -736.75086   -622.54116   -161.79981   -114.04155    16.183783      46.7237      46.7237      46.7237           90           90           90     102002.7   -795.79269 
  532000       531499   -6682.6313    552.50939   -7235.1407     4320.749    -11555.89    107.20385   -972.70535   -1095.2882   -564.93208   -73.100528    53.280384    62.305245      46.7237      46.7237      46.7237           90           90           90     102002.7   -877.64188 
  533000       532499   -6674.7809    565.23799   -7240.0188    4308.7961   -11548.815    109.67359   -1208.6602    -538.2529   -974.70569   -44.813756    16.994171   -52.000388      46.7237      46.7237      46.7237           90           90           90     102002.7   -907.20627 
  534000       533499   -6634.8083    586.98819   -7221.7965    4323.5032     -11545.3     113.8938    -425.0565    -937.5885   -1505.9366    30.137478   -87.803078   -55.453073      46.7237      46.7237      46.7237           90           90           90     102002.7   -956.19387 
  535000       534499   -6660.5057    554.79173   -7215.2974    4341.7275   -11557.025    107.64669   -777.43592   -637.25191   -658.18297   -50.802096   -181.18496    199.82768      46.7237      46.7237      46.7237           90           90           90     102002.7   -690.95693 
  536000       535499   -6654.4672    574.78954   -7229.2568     4319.218   -11548.475    111.52688   -555.07207   -818.19371    -425.6753   -126.71591   -89.119873   -119.54179      46.7237      46.7237      46.7237           90           90           90     102002.7   -599.64703 
  537000       536499   -6654.2621    569.39965   -7223.6618    4321.2339   -11544.896    110.48108   -241.71188   -494.77766   -969.56357    79.167551   -1.8633981     185.4229      46.7237      46.7237      46.7237           90           90           90     102002.7   -568.68437 
  538000       537499   -6645.6797    571.48613   -7217.1658    4335.9881   -11553.154    110.88592   -948.50887   -762.75545   -1425.7589    -27.64767    317.05678   -56.068809      46.7237      46.7237      46.7237           90           90           90     102002.7   -1045.6744 
  539000       538499   -6646.1535    588.24098   -7234.3945    4297.3711   -11531.766    114.13688     -562.742   -497.86509    -241.9095   -78.863016   -97.203768    172.51878      46.7237      46.7237      46.7237           90           90           90     102002.7    -434.1722 
  540000       539499   -6641.8751    575.44757   -7217.3227    4324.2841   -11541.607    111.65456   -1025.1605   -904.94411   -585.93902    62.489903    140.46032    45.304276      46.7237      46.7237      46.7237           90           90           90     102002.7   -838.68121 
  541000       540499   -6660.8497     566.6663    -7227.516    4320.8515   -11548.368    109.95072    -747.2545   -524.71951   -488.45235   -133.60092   -19.853384    85.368307      46.7237      46.7237      46.7237           90           90           90     102002.7   -586.80879 
  542000       541499   -6655.5323    577.94552   -7233.4779    4318.4498   -11551.928    112.13924   -702.89828   -811.39676   -567.03947   -38.732637    35.487577    196.92717      46.7237      46.7237      46.7237           90           90           90     102002.7   -693.77817 
  543000       542499   -6673.9328    557.79122   -7231.7241    4310.9623   -11542.686    108.22868   -549.13458   -566.84727   -527.71474    19.027827    32.354891    -6.423921      46.7237      46.7237      46.7237           90           90           90     102002.7   -547.89886 
  544000       543499   -6664.4081    554.89864   -7219.3067    4319.8707   -11539.177    107.66743   -640.42088   -336.67862   -626.25154    20.926203   -120.83506   -353.16141      46.7237      46.7237      46.7237           90           90           90     102002.7   -534.45035 
  545000       544499   -6659.7931    558.08236   -7217.8755    4332.1792   -11550.055    108.28518   -496.52912   -1312.0823   -669.74224    -55.51113   -8.1434847   -134.06899      46.7237      46.7237      46.7237           90           90           90     102002.7   -826.11789 
  546000       545499   -6669.2352    566.06498   -7235.3001    4323.4246   -11558.725    109.83405   -776.23128   -860.07753   -913.78076   -279.44536    -163.7776     101.9738      46.7237      46.7237      46.7237           90           90           90     102002.7   -850.02986 
  547000       546499   -6644.5515     572.3907   -7216.9422    4321.9059   -11538.848    111.06143   -1286.5209   -792.65693   -675.31311   -5.2382001   -195.64145   -111.27185      46.7237      46.7237      46.7237           90           90           90     102002.7   -918.16363 
  548000       547499    -6669.868    558.14795   -7228.0159    4312.9602   -11540.976     108.2979   -759.13315   -645.90696   -405.26235     189.3331     110.9541    34.449169      46.7237      46.7237      46.7237           90           90           90     102002.7   -603.43415 
  549000       548499    -6665.011    562.13665   -7227.1477    4315.1203   -11542.268    109.07183   -1065.6406   -892.01768   -844.43796   -13.259636   -84.652857   -70.590141      46.7237      46.7237      46.7237           90           90           90     102002.7   -934.03209 
  550000       549499   -6640.0544    580.43102   -7220.4854     4304.822   -11525.307     112.6215   -1079.9434   -1127.6434   -1068.4811   -14.887928    58.187858    62.224253      46.7237      46.7237      46.7237           90           90           90     102002.7   -1092.0226 
  551000       550499   -6671.9491     549.8554   -7221.8045    4326.6469   -11548.451    106.68889   -736.92506   -655.64798   -1058.9745    134.30467   -22.223098    31.795881      46.7237      46.7237      46.7237           90           90           90     102002.7   -817.18252 
  552000       551499    -6646.837    567.53166   -7214.3687    4327.1869   -11541.556    110.11863   -848.03017   -696.32123   -1023.8874   -60.123438    119.90468   -71.179746      46.7237      46.7237      46.7237           90           90           90     102002.7   -856.07959 
  553000       552499   -6629.6726     571.1313   -7200.8039    4349.3313   -11550.135    110.81707   -788.93495   -740.35956   -1435.9311   -58.624224   -106.66476   -35.711405      46.7237      46.7237      46.7237           90           90           90     102002.7   -988.40853 
  554000       553499   -6667.6556    571.13169   -7238.7873    4310.6157   -11549.403    110.81715   -932.44994   -1025.6951   -835.98015   -171.21439   -87.256531    171.94144      46.7237      46.7237      46.7237           90           90           90     102002.7   -931.37506 
  555000       554499    -6663.578    559.12373   -7222.7017    4301.4212   -11524.123    108.48723   -552.02831   -561.59541   -614.54961    67.651471    33.862978    37.134316      46.7237      46.7237      46.7237           90           90           90     102002.7   -576.05778 
[...]
  936000       935499   -6639.2372    576.06949   -7215.3067    4335.8588   -11551.165    111.77523   -467.22562   -954.97248   -944.75488   -143.94976    6.0196049    183.19698      46.7237      46.7237      46.7237           90           90           90     102002.7   -788.98433 
  937000       936499   -6662.1984    565.80275   -7228.0012     4314.654   -11542.655    109.78317   -594.53155   -281.42253   -1073.8726    28.553843    119.93513    255.30394      46.7237      46.7237      46.7237           90           90           90     102002.7   -649.94223 
  938000       937499   -6673.2174    564.72213   -7237.9395    4316.8552   -11554.795    109.57349   -847.86486   -826.95849   -1069.1259     52.44292   -216.29798   -265.21687      46.7237      46.7237      46.7237           90           90           90     102002.7   -914.64974 
  939000       938499   -6663.6567    566.00947   -7229.6662    4308.7858   -11538.452    109.82328   -710.94527   -881.53778   -943.08601    201.22638    30.471872    76.471546      46.7237      46.7237      46.7237           90           90           90     102002.7   -845.18969 
  940000       939499   -6663.9252    557.76814   -7221.6934    4315.9636   -11537.657    108.22421   -931.82557   -732.66477   -785.01311   -170.50556    46.950248   -224.95692      46.7237      46.7237      46.7237           90           90           90     102002.7   -816.50115 
  941000       940499    -6683.005    556.39965   -7239.4047    4307.3748    -11546.78    107.95868   -898.92872   -1018.5252   -763.19004   -72.664103   -52.741141   -86.163469      46.7237      46.7237      46.7237           90           90           90     102002.7     -893.548 
  942000       941499   -6645.5917    576.10093   -7221.6926    4342.6681   -11564.361    111.78133   -1301.4091   -627.38489    -901.0342    108.65995   0.21311492   -222.09242      46.7237      46.7237      46.7237           90           90           90     102002.7   -943.27608 
  943000       942499   -6684.2446    546.23964   -7230.4842     4316.279   -11546.763    105.98732   -927.49195   -525.99348   -419.88786    136.64955    197.72507    48.850246      46.7237      46.7237      46.7237           90           90           90     102002.7   -624.45777 
  944000       943499   -6673.2773    539.84356   -7213.1209    4333.1843   -11546.305    104.74629   -819.45537   -745.42943   -751.20541    222.82402   -116.63476    152.68296      46.7237      46.7237      46.7237           90           90           90     102002.7   -772.03007 
  945000       944499   -6680.8033    558.44812   -7239.2514    4278.7334   -11517.985    108.35614   -938.98975   -705.80239   -716.96967    5.1514249    59.890476    252.98426      46.7237      46.7237      46.7237           90           90           90     102002.7   -787.25394 
  946000       945499   -6647.2798    575.00361   -7222.2834    4332.7897   -11555.073    111.56842   -458.89718   -569.87277   -631.26077    -89.48034    272.85409   -103.53258      46.7237      46.7237      46.7237           90           90           90     102002.7   -553.34357 
  947000       946499    -6635.139    585.20904   -7220.3481    4325.2469   -11545.595    113.54859   -665.13896    -752.7424   -552.16301    134.51701   -229.16547    43.149572      46.7237      46.7237      46.7237           90           90           90     102002.7   -656.68146 
  948000       947499   -6666.6632    559.57692   -7226.2402    4319.8722   -11546.112    108.57517   -458.40537   -600.62806   -714.46809   -191.45288     153.5374    1.3535104      46.7237      46.7237      46.7237           90           90           90     102002.7   -591.16718 
  949000       948499   -6690.4783    544.23856   -7234.7169     4305.667   -11540.384    105.59905   -634.96486   -406.29982   -1027.1661   -88.625126   -108.74132    187.05122      46.7237      46.7237      46.7237           90           90           90     102002.7   -689.47693 
  950000       949499   -6675.1776    552.65083   -7227.8284    4316.4059   -11544.234    107.23129   -785.25693   -814.99132   -493.65348    197.56513    121.77997    93.515586      46.7237      46.7237      46.7237           90           90           90     102002.7   -697.96724 
  951000       950499   -6659.7784    557.33418   -7217.1126    4341.1937   -11558.306    108.14001   -937.14376   -803.35478   -745.72495   -14.939329    126.47966   -20.966819      46.7237      46.7237      46.7237           90           90           90     102002.7   -828.74116 
  952000       951499   -6639.4044    586.34508   -7225.7495    4318.3094   -11544.059    113.76901   -726.28809   -499.06663   -827.70125   -133.06104    433.59196   -19.978821      46.7237      46.7237      46.7237           90           90           90     102002.7   -684.35199 
  953000       952499   -6655.1062    573.17466   -7228.2808    4318.1768   -11546.458    111.21355   -826.47608   -461.92083   -499.77714    294.62618     102.5267    66.977815      46.7237      46.7237      46.7237           90           90           90     102002.7   -596.05802 
  954000       953499   -6675.5035    564.20101   -7239.7045    4316.3258    -11556.03    109.47238   -1017.4855   -800.30846   -402.34218    126.82506    30.294771     417.4098      46.7237      46.7237      46.7237           90           90           90     102002.7   -740.04539 
  955000       954499   -6663.4803    564.16994   -7227.6503    4311.8659   -11539.516    109.46635   -726.65199   -839.36004     -858.475    -16.05034   -85.635193    89.198827      46.7237      46.7237      46.7237           90           90           90     102002.7   -808.16234 
  956000       955499   -6656.4734    569.37365    -7225.847    4313.0529     -11538.9    110.47603   -1218.6574   -677.85103   -854.67406    258.00137    254.90234   -311.96615      46.7237      46.7237      46.7237           90           90           90     102002.7   -917.06083 
  957000       956499   -6643.6867    574.01314   -7217.6998    4336.9512   -11554.651    111.37624   -543.86354   -1026.6133   -551.75875   -67.956765   -168.61771   -111.44266      46.7237      46.7237      46.7237           90           90           90     102002.7   -707.41187 
  958000       957499   -6681.0461    557.87619   -7238.9223    4305.4707   -11544.393    108.24517   -1093.0556   -612.94125   -1289.4889   -69.824599       84.079   -30.501308      46.7237      46.7237      46.7237           90           90           90     102002.7   -998.49525 
  959000       958499    -6646.311    573.88436   -7220.1954    4335.7847    -11555.98    111.35125   -1103.1392   -570.68075   -570.97967   -3.3080694    3.3457132   -182.56074      46.7237      46.7237      46.7237           90           90           90     102002.7   -748.26653 
  960000       959499   -6639.6397    585.06712   -7224.7068    4326.9105   -11551.617    113.52105   -988.34513   -615.10814   -586.87808    70.329488    42.263783    84.756823      46.7237      46.7237      46.7237           90           90           90     102002.7   -730.11045 
  961000       960499   -6659.8543    573.10276    -7232.957    4321.8881   -11554.845    111.19959   -772.52459   -499.09404    -691.4252   -164.74262    34.307661    45.120349      46.7237      46.7237      46.7237           90           90           90     102002.7   -654.34794 
  962000       961499    -6677.475    556.62808   -7234.1031    4320.8717   -11554.975      108.003   -486.55776   -597.28942   -942.30349   -293.38178   -214.66377   -65.909164      46.7237      46.7237      46.7237           90           90           90     102002.7   -675.38356 
  963000       962499   -6667.1478    559.16239   -7226.3102    4312.4247   -11538.735    108.49473   -385.33747   -796.65072   -353.63526   -59.890177    81.992576   -135.27819      46.7237      46.7237      46.7237           90           90           90     102002.7   -511.87448 
  964000       963499   -6652.3176    576.27009   -7228.5877    4321.5577   -11550.145    111.81416   -720.30325    -212.7435    -890.3525    62.489423   -209.43074   -125.32909      46.7237      46.7237      46.7237           90           90           90     102002.7   -607.79975 
  965000       964499   -6698.9377    536.67951   -7235.6172    4312.3793   -11547.996    104.13236   -361.51422   -344.74612   -833.18253    17.510263   -147.29291   -79.551147      46.7237      46.7237      46.7237           90           90           90     102002.7   -513.14762 
  966000       965499   -6671.6933    552.72479   -7224.4181    4313.5637   -11537.982    107.24564     -622.986   -1084.6741   -486.52928    280.96253     101.5217    -92.69729      46.7237      46.7237      46.7237           90           90           90     102002.7   -731.39646 
  967000       966499   -6629.3183    569.43317   -7198.7515    4342.3714   -11541.123    110.48758   -700.26601    73.610401   -989.37998    178.48167    154.67826    -286.8155      46.7237      46.7237      46.7237           90           90           90     102002.7   -538.67853 
  968000       967499   -6680.2776    545.36797   -7225.6456     4325.999   -11551.645    105.81819   -946.10238   -231.35945   -831.35909    87.204736   -97.095077   -91.315404      46.7237      46.7237      46.7237           90           90           90     102002.7   -669.60697 
  969000       968499   -6646.2207    586.36921   -7232.5899    4308.0375   -11540.627    113.77369    -929.5576   -781.13932   -722.14869   -126.12091    106.06222   -10.048138      46.7237      46.7237      46.7237           90           90           90     102002.7   -810.94854 
  970000       969499     -6681.34    556.29434   -7237.6344    4304.0858    -11541.72    107.93824   -772.34897   -288.96865   -453.28268     43.56348   -162.14424   -281.52199      46.7237      46.7237      46.7237           90           90           90     102002.7   -504.86676 
  971000       970499   -6654.7544     573.5287   -7228.2831    4307.1387   -11535.422    111.28224   -488.68567   -711.58956   -787.91363   -58.964036   -186.28805   -156.01436      46.7237      46.7237      46.7237           90           90           90     102002.7   -662.72962 
  972000       971499   -6674.8401    563.16354   -7238.0036    4313.7045   -11551.708    109.27108   -795.80514   -629.10892   -724.73696   -322.07583   -193.13573    224.85938      46.7237      46.7237      46.7237           90           90           90     102002.7   -716.55034 
  973000       972499   -6643.6851    565.78033   -7209.4654     4336.633   -11546.098    109.77882   -609.93854   -310.01288   -569.15765    31.023203     103.7697    24.975383      46.7237      46.7237      46.7237           90           90           90     102002.7   -496.36969 
  974000       973499   -6675.1885    558.17785   -7233.3663    4304.7159   -11538.082     108.3037   -1040.8187   -418.60575   -1184.1211   -43.945694   -190.09249   -178.30039      46.7237      46.7237      46.7237           90           90           90     102002.7   -881.18185 
  975000       974499   -6685.1846    561.26193   -7246.4465    4283.7104   -11530.157    108.90211   -554.92177   -939.12846   -1084.9124   -69.487592    132.35015    209.23882      46.7237      46.7237      46.7237           90           90           90     102002.7    -859.6542 
  976000       975499   -6646.8195    569.92174   -7216.7413    4327.6927   -11544.434    110.58238   -797.05217   -1009.6977   -632.50967    7.3323499    36.633721    -62.02695      46.7237      46.7237      46.7237           90           90           90     102002.7   -813.08651 
  977000       976499   -6682.9293    552.85861   -7235.7879     4296.983   -11532.771    107.27161   -568.05519   -300.27491   -759.38209   -158.70584     3.239404    55.825553      46.7237      46.7237      46.7237           90           90           90     102002.7   -542.57073 
  978000       977499   -6649.6158    579.10189   -7228.7177    4310.1089   -11538.827    112.36361   -707.71062   -859.41646   -878.79814   -19.053488    147.06677    44.762509      46.7237      46.7237      46.7237           90           90           90     102002.7   -815.30841 
  979000       978499   -6651.2433    571.57781   -7222.8211    4327.5408   -11550.362    110.90371   -671.04331   -575.79775   -688.15591    11.938104    151.17019    18.878476      46.7237      46.7237      46.7237           90           90           90     102002.7   -644.99899 
  980000       979499   -6674.5201    579.96556   -7254.4856    4287.4092   -11541.895    112.53119   -441.30835    -851.0888   -1248.5234   -14.413585   -37.716065    117.71919      46.7237      46.7237      46.7237           90           90           90     102002.7   -846.97351 
  981000       980499   -6650.2055    572.26227   -7222.4678    4326.3476   -11548.815    111.03651   -843.41902   -617.96631   -993.21542   -98.793877    266.32743    62.850817      46.7237      46.7237      46.7237           90           90           90     102002.7   -818.20025 
  982000       981499   -6638.7302    577.84815   -7216.5783    4335.2036   -11551.782    112.12035   -744.18092   -661.67755   -256.74163   -83.543517    5.3066267    121.22144      46.7237      46.7237      46.7237           90           90           90     102002.7   -554.20003 
  983000       982499   -6670.1905    554.40145   -7224.5919    4307.7212   -11532.313    107.57096   -693.99396   -1066.0221   -1055.6789   -52.586607   -256.33609    185.36488      46.7237      46.7237      46.7237           90           90           90     102002.7   -938.56502 
  984000       983499   -6675.1361       542.56   -7217.6961    4339.6189   -11557.315    105.27336   -1173.9941   -525.91929   -643.36115    133.17113   -122.33377    11.154456      46.7237      46.7237      46.7237           90           90           90     102002.7   -781.09151 
  985000       984499   -6642.9232    578.41997   -7221.3432    4317.7355   -11539.079     112.2313   -946.78127   -1408.6077   -1007.0346    31.634995   -171.28435   -22.810615      46.7237      46.7237      46.7237           90           90           90     102002.7   -1120.8078 
  986000       985499   -6664.1925    558.71923   -7222.9117    4319.1814   -11542.093    108.40875   -716.24648   -780.19848   -1167.0538    0.8639929   -43.036338    -49.22738      46.7237      46.7237      46.7237           90           90           90     102002.7   -887.83292 
  987000       986499   -6685.5237    548.30157   -7233.8253    4326.8863   -11560.712     106.3874    -957.7566   -540.47402   -827.48414    163.80875   -107.82627 -0.011178248      46.7237      46.7237      46.7237           90           90           90     102002.7   -775.23826 
  988000       987499   -6675.8243    565.23623   -7241.0606    4297.0392     -11538.1    109.67325   -762.47169   -649.94808   -923.18566   -179.46554    42.231953    47.591999      46.7237      46.7237      46.7237           90           90           90     102002.7   -778.53514 
  989000       988499   -6640.2412    576.46981    -7216.711    4331.0241   -11547.735    111.85291   -638.69515    -942.0165    -870.6281    62.883673   -20.115237   -248.75712      46.7237      46.7237      46.7237           90           90           90     102002.7   -817.11325 
  990000       989499   -6659.2788     565.2463   -7224.5251     4301.068   -11525.593     109.6752   -583.75883   -828.13558   -1034.8615    69.159121   -36.612847    -13.15884      46.7237      46.7237      46.7237           90           90           90     102002.7   -815.58532 
  991000       990499   -6685.3046     543.8816   -7229.1862     4318.634    -11547.82    105.52979   -885.60038   -528.37995     -651.579   -50.464588    346.12984   -186.09146      46.7237      46.7237      46.7237           90           90           90     102002.7   -688.51978 
  992000       991499   -6650.0602    577.80449   -7227.8647    4301.4462   -11529.311    112.11188   -361.66481   -688.61069   -638.04628   -287.03317    89.679371     45.35863      46.7237      46.7237      46.7237           90           90           90     102002.7   -562.77393 
  993000       992499   -6665.3189    566.93909    -7232.258    4312.6139   -11544.872    110.00365    -674.0969   -558.25229    -1121.662   -151.63189   -38.305902   -206.18445      46.7237      46.7237      46.7237           90           90           90     102002.7   -784.67038 
  994000       993499    -6677.261    561.29262   -7238.5537    4295.2973   -11533.851    108.90806   -605.90306   -590.31049   -630.91175    6.3088233    71.852386  -0.76300461      46.7237      46.7237      46.7237           90           90           90     102002.7   -609.04176 
  995000       994499   -6654.8709    572.40521   -7227.2761     4327.899   -11555.175    111.06425    -959.2783   -831.31117   -1054.8208    29.282284     61.94145   -275.64787      46.7237      46.7237      46.7237           90           90           90     102002.7    -948.4701 
  996000       995499   -6656.2362    589.33732   -7245.5736    4293.9031   -11539.477     114.3496   -426.07647   -839.97689   -150.76159    133.90879   -216.93328   -226.00002      46.7237      46.7237      46.7237           90           90           90     102002.7   -472.27165 
  997000       996499   -6688.7101    558.64489    -7247.355    4298.2557   -11545.611    108.39432   -698.11853   -571.55858   -512.14468    -85.86497   -292.36718   -29.627997      46.7237      46.7237      46.7237           90           90           90     102002.7    -593.9406 
  998000       997499    -6671.477     572.9793   -7244.4563    4294.1592   -11538.616    111.17564   -835.15119   -583.65247   -676.59567   -41.863963    130.65202   -130.50575      46.7237      46.7237      46.7237           90           90           90     102002.7   -698.46644 
  999000       998499   -6658.0556    555.41166   -7213.4673    4319.9836   -11533.451    107.76698   -502.80025   -410.35508   -75.883053   -267.72902    66.574004   -48.142648      46.7237      46.7237      46.7237           90           90           90     102002.7   -329.67946 
 1000000       999499   -6666.8789     558.1365   -7225.0154    4323.3594   -11548.375    108.29568   -508.14243   -862.26712     -1330.89    55.889491    208.44067    28.079872      46.7237      46.7237      46.7237           90           90           90     102002.7   -900.43319 
 1000501      1000000    -6659.211    566.21233   -7225.4233    4321.3176   -11546.741    109.86264   -736.30403   -955.60849   -862.74829   -117.85505   -59.130338    47.154723      46.7237      46.7237      46.7237           90           90           90     102002.7    -851.5536 
Loop time of 605.886 on 24 procs for 500000 steps with 1730 atoms

Performance: 71.300 ns/day, 0.337 hours/ns, 825.237 timesteps/s
99.9% CPU use with 24 MPI tasks x no OpenMP threads

MPI task timing breakdown:
Section |  min time  |  avg time  |  max time  |%varavg| %total
---------------------------------------------------------------
Pair    | 207.02     | 303.95     | 390.77     | 275.6 | 50.17
Bond    | 74.305     | 82.444     | 88.103     |  40.7 | 13.61
Neigh   | 1.4179     | 1.4344     | 1.4452     |   0.9 |  0.24
Comm    | 115.45     | 202.69     | 299.27     | 326.4 | 33.45
Output  | 0.33256    | 0.38162    | 0.38387    |   1.7 |  0.06
Modify  | 11.649     | 11.964     | 12.337     |   5.4 |  1.97
Other   |            | 3.019      |            |       |  0.50

Nlocal:    72.0833 ave 102 max 48 min
Histogram: 1 1 6 4 4 3 2 1 0 2
Nghost:    1976.29 ave 2152 max 1868 min
Histogram: 7 9 0 0 0 0 0 0 0 8
Neighs:    7647.54 ave 11992 max 3457 min
Histogram: 1 1 5 2 3 2 4 5 0 1

Total # of neighbors = 183541
Ave neighs/atom = 106.093
Ave special neighs/atom = 6.65896
Neighbor list builds = 2766
Dangerous builds = 0
Total wall time: 0:19:26
