LAMMPS (30 Mar 2018)
Reading data file ...
  orthogonal box = (0 0 0) to (46.7237 46.7237 46.7237)
  2 by 2 by 4 MPI processor grid
  reading atoms ...
  3220 atoms
  scanning bonds ...
  5 = max bonds/atom
  scanning angles ...
  10 = max angles/atom
  scanning dihedrals ...
  32 = max dihedrals/atom
  scanning impropers ...
  3 = max impropers/atom
  reading bonds ...
  2064 bonds
  reading angles ...
  3696 angles
  reading dihedrals ...
  6240 dihedrals
  reading impropers ...
  1008 impropers
Finding 1-2 1-3 1-4 neighbors ...
  special bond factors lj:   0          0          0         
  special bond factors coul: 0          0          0         
  5 = max # of 1-2 neighbors
  8 = max # of 1-3 neighbors
  20 = max # of 1-4 neighbors
  19 = max # of special neighbors
Finding 1-2 1-3 1-4 neighbors ...
  special bond factors lj:   0          0          1         
  special bond factors coul: 1          1          1         
  5 = max # of 1-2 neighbors
  8 = max # of 1-3 neighbors
  19 = max # of special neighbors
WARNING: Using 'neigh_modify every 1 delay 0 check yes' setting during minimization (../min.cpp:168)
Neighbor list info ...
  update every 1 steps, delay 0 steps, check yes
  max neighbors/atom: 2000, page size: 100000
  master list distance cutoff = 16
  ghost atom cutoff = 16
  binsize = 8, bins = 6 6 6
  3 neighbor lists, perpetual/occasional/extra = 3 0 0
  (1) pair buck6d/coul/gauss/dsf, perpetual, skip from (3)
      attributes: half, newton on
      pair build: skip
      stencil: none
      bin: none
  (2) pair lj/cut, perpetual, skip from (3)
      attributes: half, newton on
      pair build: skip
      stencil: none
      bin: none
  (3) neighbor class addition, perpetual
      attributes: half, newton on
      pair build: half/bin/newton
      stencil: half/bin/3d/newton
      bin: standard
Setting up cg style minimization ...
  Unit style    : real
  Current step  : 0
WARNING: Inconsistent image flags (../domain.cpp:786)
Per MPI rank memory allocation (min/avg/max) = 23.02 | 23.47 | 23.92 Mbytes
Step Temp E_pair E_mol TotEng Press 
       0            0   -15464.483    6482.8914   -8981.5913    6638.1521 
     500            0   -15973.042     3755.573   -12217.469   -1813.4902 
Loop time of 4.30689 on 16 procs for 500 steps with 3220 atoms

99.9% CPU use with 16 MPI tasks x no OpenMP threads

Minimization stats:
  Stopping criterion = max force evaluations
  Energy initial, next-to-last, final = 
        -8981.59128504     -12217.3813759     -12217.4687918
  Force two-norm initial, final = 2575.74 14.2003
  Force max component initial, final = 152.218 2.58397
  Final line search alpha, max atom move = 0.00904341 0.0233679
  Iterations, force evaluations = 500 1000

MPI task timing breakdown:
Section |  min time  |  avg time  |  max time  |%varavg| %total
---------------------------------------------------------------
Pair    | 2.4213     | 2.9911     | 3.4423     |  16.3 | 69.45
Bond    | 0.25639    | 0.36075    | 0.44772    |   8.4 |  8.38
Neigh   | 0.034383   | 0.034446   | 0.034529   |   0.0 |  0.80
Comm    | 0.43886    | 0.87445    | 1.5119     |  31.1 | 20.30
Output  | 0          | 0          | 0          |   0.0 |  0.00
Modify  | 0          | 0          | 0          |   0.0 |  0.00
Other   |            | 0.04619    |            |       |  1.07

Nlocal:    201.25 ave 229 max 165 min
Histogram: 1 1 0 2 0 6 2 1 1 2
Nghost:    4013.25 ave 4057 max 3982 min
Histogram: 2 2 0 3 5 1 1 1 0 1
Neighs:    11468.1 ave 16961 max 6830 min
Histogram: 1 2 4 1 1 1 3 1 0 2

Total # of neighbors = 183489
Ave neighs/atom = 56.9842
Ave special neighs/atom = 3.57764
Neighbor list builds = 10
Dangerous builds = 0
Neighbor list info ...
  update every 1 steps, delay 10 steps, check yes
  max neighbors/atom: 2000, page size: 100000
  master list distance cutoff = 16
  ghost atom cutoff = 16
  binsize = 8, bins = 6 6 6
  3 neighbor lists, perpetual/occasional/extra = 3 0 0
  (1) pair buck6d/coul/gauss/dsf, perpetual, skip from (3)
      attributes: half, newton on
      pair build: skip
      stencil: none
      bin: none
  (2) pair lj/cut, perpetual, skip from (3)
      attributes: half, newton on
      pair build: skip
      stencil: none
      bin: none
  (3) neighbor class addition, perpetual
      attributes: half, newton on
      pair build: half/bin/newton
      stencil: half/bin/3d/newton
      bin: standard
Setting up Verlet run ...
  Unit style    : real
  Current step  : 500
  Time step     : 1
WARNING: Inconsistent image flags (../domain.cpp:786)
Per MPI rank memory allocation (min/avg/max) = 22.66 | 22.75 | 22.98 Mbytes
Step Temp PotEng TotEng Press Volume Lx Ly Lz 
     500          130   -12217.469   -10970.089     -1254.48     102002.7      46.7237      46.7237      46.7237 
    1000    109.93124   -11187.934   -10133.118    225.27377     102002.7      46.7237      46.7237      46.7237 
    2000    130.54256   -10996.151   -9743.5656     489.7204     102002.7      46.7237      46.7237      46.7237 
    3000    129.38737   -11036.741   -9795.2393    468.60166     102002.7      46.7237      46.7237      46.7237 
    4000    125.91712   -11015.195    -9806.992    383.26297     102002.7      46.7237      46.7237      46.7237 
    5000    133.25538   -11032.951   -9754.3353     547.7682     102002.7      46.7237      46.7237      46.7237 
    6000    131.81433    -11048.79   -9784.0017     267.6612     102002.7      46.7237      46.7237      46.7237 
    7000    129.35446   -11020.681   -9779.4957    95.548559     102002.7      46.7237      46.7237      46.7237 
    8000    129.61929    -11031.65   -9787.9238    315.74223     102002.7      46.7237      46.7237      46.7237 
    9000    130.20782   -11039.035   -9789.6617     106.0269     102002.7      46.7237      46.7237      46.7237 
   10000    129.79262   -11031.682   -9786.2926    60.273686     102002.7      46.7237      46.7237      46.7237 
   11000    128.96287   -11056.555   -9819.1272      581.779     102002.7      46.7237      46.7237      46.7237 
   12000    135.02265   -11059.543   -9763.9695    182.62349     102002.7      46.7237      46.7237      46.7237 
   13000    129.68583   -11045.412   -9801.0468    690.76535     102002.7      46.7237      46.7237      46.7237 
   14000    128.72656   -11024.688   -9789.5273    705.03212     102002.7      46.7237      46.7237      46.7237 
   15000    133.00694    -11017.88   -9741.6481    -20.38726     102002.7      46.7237      46.7237      46.7237 
   16000    129.05858   -11041.633   -9803.2864    641.49016     102002.7      46.7237      46.7237      46.7237 
   17000    130.33043   -11021.311   -9770.7609    469.78434     102002.7      46.7237      46.7237      46.7237 
   18000    125.77429   -11033.614   -9826.7807   -96.173254     102002.7      46.7237      46.7237      46.7237 
   19000    126.15152   -11004.071   -9793.6183    667.65547     102002.7      46.7237      46.7237      46.7237 
   20000    129.06019   -11034.063    -9795.701    277.99924     102002.7      46.7237      46.7237      46.7237 
   21000    128.13321   -11059.035   -9829.5674    446.90976     102002.7      46.7237      46.7237      46.7237 
   22000    130.97455   -11000.485   -9743.7545    469.12994     102002.7      46.7237      46.7237      46.7237 
   23000    127.94294   -11018.589   -9790.9475    316.38156     102002.7      46.7237      46.7237      46.7237 
   24000    129.50964   -11052.797   -9810.1221    62.571578     102002.7      46.7237      46.7237      46.7237 
   25000    130.67959   -11030.942   -9777.0416    37.656586     102002.7      46.7237      46.7237      46.7237 
   26000     130.2714   -11034.111   -9784.1271     184.4345     102002.7      46.7237      46.7237      46.7237 
   27000    130.57186   -11067.884   -9815.0171    308.42217     102002.7      46.7237      46.7237      46.7237 
   28000    130.38101   -11044.114   -9793.0783    391.86864     102002.7      46.7237      46.7237      46.7237 
   29000    131.59079   -11027.331   -9764.6879     804.2332     102002.7      46.7237      46.7237      46.7237 
   30000    131.92448   -11028.928   -9763.0824    454.77847     102002.7      46.7237      46.7237      46.7237 
   31000    131.10754   -11040.161   -9782.1539    522.98505     102002.7      46.7237      46.7237      46.7237 
   32000    129.85328   -11032.081   -9786.1088    581.56345     102002.7      46.7237      46.7237      46.7237 
   33000    126.98021   -11051.814   -9833.4103    568.05593     102002.7      46.7237      46.7237      46.7237 
   34000    128.40962   -11083.245   -9851.1253    420.05632     102002.7      46.7237      46.7237      46.7237 
   35000    132.11815    -11009.14    -9741.436    262.17098     102002.7      46.7237      46.7237      46.7237 
   36000    128.22027    -11023.56   -9793.2575    343.40746     102002.7      46.7237      46.7237      46.7237 
   37000    132.01862   -11022.593   -9755.8443    227.84779     102002.7      46.7237      46.7237      46.7237 
   38000    128.86741   -11045.563    -9809.051    24.589894     102002.7      46.7237      46.7237      46.7237 
   39000    129.62442   -11021.877   -9778.1011    608.89587     102002.7      46.7237      46.7237      46.7237 
   40000    129.02857   -11019.498     -9781.44    520.30314     102002.7      46.7237      46.7237      46.7237 
   41000    126.21189   -11025.424   -9814.3926    254.47273     102002.7      46.7237      46.7237      46.7237 
   42000    129.91893    -11017.99   -9771.3879    392.52572     102002.7      46.7237      46.7237      46.7237 
   43000    129.28072   -11036.399   -9795.9213    452.39478     102002.7      46.7237      46.7237      46.7237 
   44000    133.27171   -11005.079   -9726.3069    371.05213     102002.7      46.7237      46.7237      46.7237 
   45000    130.10643   -11016.527   -9768.1263     400.1999     102002.7      46.7237      46.7237      46.7237 
   46000    129.83724   -11026.694   -9780.8766    176.88454     102002.7      46.7237      46.7237      46.7237 
   47000    126.16656   -11035.323   -9824.7258    267.30962     102002.7      46.7237      46.7237      46.7237 
   48000    129.70389   -11044.037   -9799.4989    338.20097     102002.7      46.7237      46.7237      46.7237 
   49000    132.74299    -11009.34   -9735.6409     299.7089     102002.7      46.7237      46.7237      46.7237 
   50000    127.44483   -11043.709    -9820.847    283.44782     102002.7      46.7237      46.7237      46.7237 
   51000    130.40833   -11054.889   -9803.5914    480.62653     102002.7      46.7237      46.7237      46.7237 
   52000    132.72498   -11011.612   -9738.0852    358.29682     102002.7      46.7237      46.7237      46.7237 
   53000    131.23332    -11062.79   -9803.5767    405.46666     102002.7      46.7237      46.7237      46.7237 
   54000    130.34207   -11038.994   -9788.3324    635.46883     102002.7      46.7237      46.7237      46.7237 
   55000    126.39234   -11073.052   -9860.2883    310.47174     102002.7      46.7237      46.7237      46.7237 
   56000    132.76474   -11052.846   -9778.9383    208.81748     102002.7      46.7237      46.7237      46.7237 
   57000    131.25682   -11043.013   -9783.5742     234.7712     102002.7      46.7237      46.7237      46.7237 
   58000    129.93672   -11013.738   -9766.9652    355.71564     102002.7      46.7237      46.7237      46.7237 
   59000    126.78651   -11063.009   -9846.4636    358.86883     102002.7      46.7237      46.7237      46.7237 
   60000     130.0602    -11040.85   -9792.8932    373.43542     102002.7      46.7237      46.7237      46.7237 
   61000    127.71242   -11037.708   -9812.2782    625.19154     102002.7      46.7237      46.7237      46.7237 
   62000    131.15073   -11029.249   -9770.8282    600.41266     102002.7      46.7237      46.7237      46.7237 
   63000    130.23617    -11057.19   -9807.5447    627.25726     102002.7      46.7237      46.7237      46.7237 
   64000     127.5438    -11011.02   -9787.2078    468.51928     102002.7      46.7237      46.7237      46.7237 
   65000    131.65286   -10996.852   -9733.6131    671.54375     102002.7      46.7237      46.7237      46.7237 
   66000     131.6703   -11081.928   -9818.5214   -61.269397     102002.7      46.7237      46.7237      46.7237 
   67000    132.20156   -11037.179    -9768.675    275.95119     102002.7      46.7237      46.7237      46.7237 
   68000    131.52153   -11043.663   -9781.6835    650.02194     102002.7      46.7237      46.7237      46.7237 
   69000    130.32471   -11020.117   -9769.6222    148.53244     102002.7      46.7237      46.7237      46.7237 
   70000    129.88281    -11038.77   -9792.5147    184.77254     102002.7      46.7237      46.7237      46.7237 
   71000     131.3743   -11055.491   -9794.9251    622.04202     102002.7      46.7237      46.7237      46.7237 
   72000    128.84077   -11029.785   -9793.5282   -35.977902     102002.7      46.7237      46.7237      46.7237 
   73000    127.72365   -11070.899   -9845.3618    330.92165     102002.7      46.7237      46.7237      46.7237 
   74000    132.78814   -11053.259   -9779.1263    91.387842     102002.7      46.7237      46.7237      46.7237 
   75000    130.89303   -11062.835    -9806.887    254.92735     102002.7      46.7237      46.7237      46.7237 
   76000    129.13988    -11056.59   -9817.4633    534.02117     102002.7      46.7237      46.7237      46.7237 
   77000    131.93581   -11051.134   -9785.1799    317.31228     102002.7      46.7237      46.7237      46.7237 
   78000    127.36387    -11066.44   -9844.3544    295.77054     102002.7      46.7237      46.7237      46.7237 
   79000    129.26979   -11023.664   -9783.2911    576.80853     102002.7      46.7237      46.7237      46.7237 
   80000    129.13441   -11026.279   -9787.2049    495.12907     102002.7      46.7237      46.7237      46.7237 
   81000    127.69606   -11030.124   -9804.8517     192.1668     102002.7      46.7237      46.7237      46.7237 
   82000    131.91774   -11017.887   -9752.1065     305.8597     102002.7      46.7237      46.7237      46.7237 
   83000     132.2791    -11051.05   -9781.8015    324.22419     102002.7      46.7237      46.7237      46.7237 
   84000     130.0641   -11047.751   -9799.7567    72.147999     102002.7      46.7237      46.7237      46.7237 
   85000    131.94158   -11058.988   -9792.9788     374.1291     102002.7      46.7237      46.7237      46.7237 
   86000    132.62297   -11072.872   -9800.3245    25.822899     102002.7      46.7237      46.7237      46.7237 
   87000     129.4966   -11016.206   -9773.6568    288.40285     102002.7      46.7237      46.7237      46.7237 
   88000    132.34743   -11038.652   -9768.7483    502.60806     102002.7      46.7237      46.7237      46.7237 
   89000    133.54038   -11038.867   -9757.5169    286.01802     102002.7      46.7237      46.7237      46.7237 
   90000     130.5839   -11049.636   -9796.6535    342.78257     102002.7      46.7237      46.7237      46.7237 
   91000    130.00618   -11050.771   -9803.3323    518.23528     102002.7      46.7237      46.7237      46.7237 
   92000    127.43833   -11049.332   -9826.5323    320.16441     102002.7      46.7237      46.7237      46.7237 
   93000    127.83556   -11047.932   -9821.3204    440.90587     102002.7      46.7237      46.7237      46.7237 
   94000    132.10957   -11067.571     -9799.95    343.09343     102002.7      46.7237      46.7237      46.7237 
   95000     126.8371   -11047.771   -9830.7402     481.3375     102002.7      46.7237      46.7237      46.7237 
   96000    133.88109   -11036.878   -9752.2586    301.04689     102002.7      46.7237      46.7237      46.7237 
   97000    132.90227   -11029.272   -9754.0443    511.44709     102002.7      46.7237      46.7237      46.7237 
   98000     131.8193   -11038.151   -9773.3143    428.48228     102002.7      46.7237      46.7237      46.7237 
   99000    134.79418   -11057.586    -9764.205    445.37158     102002.7      46.7237      46.7237      46.7237 
  100000    129.46065   -11040.501   -9798.2969    446.38625     102002.7      46.7237      46.7237      46.7237 
  101000    126.04263   -11039.735   -9830.3272    97.217699     102002.7      46.7237      46.7237      46.7237 
  102000    128.83625   -11040.761   -9804.5477    475.92793     102002.7      46.7237      46.7237      46.7237 
  103000    131.62783   -11026.574   -9763.5749    613.51067     102002.7      46.7237      46.7237      46.7237 
  104000    130.06467   -11037.977   -9789.9767    251.29117     102002.7      46.7237      46.7237      46.7237 
  105000    128.13592   -11059.305   -9829.8113    400.06525     102002.7      46.7237      46.7237      46.7237 
  106000    132.34374   -11032.521   -9762.6528    464.51165     102002.7      46.7237      46.7237      46.7237 
  107000    131.38635   -11042.496   -9781.8139    204.81192     102002.7      46.7237      46.7237      46.7237 
  108000    132.70032   -11034.469   -9761.1788    67.496824     102002.7      46.7237      46.7237      46.7237 
  109000    129.15183   -11035.691   -9796.4497    578.13623     102002.7      46.7237      46.7237      46.7237 
  110000    126.71806   -11048.847    -9832.958    204.23261     102002.7      46.7237      46.7237      46.7237 
  111000     132.3349   -11080.118   -9810.3346    339.90131     102002.7      46.7237      46.7237      46.7237 
  112000    132.08357   -11041.928   -9774.5558    530.04204     102002.7      46.7237      46.7237      46.7237 
  113000    127.15111   -11059.864   -9839.8199    167.31817     102002.7      46.7237      46.7237      46.7237 
  114000    131.62013   -11071.709   -9808.7837    364.69388     102002.7      46.7237      46.7237      46.7237 
  115000    128.08264   -11040.975    -9811.993    112.43711     102002.7      46.7237      46.7237      46.7237 
  116000    129.92794   -11078.644   -9831.9557    219.57658     102002.7      46.7237      46.7237      46.7237 
  117000    130.19293    -11057.73   -9808.4988    725.01718     102002.7      46.7237      46.7237      46.7237 
  118000    132.54366   -11048.475   -9776.6883    626.44621     102002.7      46.7237      46.7237      46.7237 
  119000    126.17459   -11055.972   -9845.2982    557.59181     102002.7      46.7237      46.7237      46.7237 
  120000    130.06835   -11080.737   -9832.7013    410.79338     102002.7      46.7237      46.7237      46.7237 
  121000    133.16156   -11056.499   -9778.7838    259.40699     102002.7      46.7237      46.7237      46.7237 
  122000    128.34094   -11017.906   -9786.4458    101.64905     102002.7      46.7237      46.7237      46.7237 
  123000      131.199   -11052.381   -9793.4972     182.7281     102002.7      46.7237      46.7237      46.7237 
  124000    129.28232   -11008.265   -9767.7716    205.79809     102002.7      46.7237      46.7237      46.7237 
  125000    129.14835   -11061.693   -9822.4848   -31.248536     102002.7      46.7237      46.7237      46.7237 
  126000    130.41447   -11016.011   -9764.6545    459.91614     102002.7      46.7237      46.7237      46.7237 
  127000    130.08206   -11062.221   -9814.0538   -37.998486     102002.7      46.7237      46.7237      46.7237 
  128000    131.48767   -11031.732   -9770.0782   -63.080216     102002.7      46.7237      46.7237      46.7237 
  129000    132.17527   -11050.478   -9782.2265    137.35266     102002.7      46.7237      46.7237      46.7237 
  130000    131.27882   -11025.522   -9765.8722   -35.733705     102002.7      46.7237      46.7237      46.7237 
  131000    129.31678   -11083.461   -9842.6369    225.60561     102002.7      46.7237      46.7237      46.7237 
  132000    128.38029   -11049.943   -9818.1045    138.96897     102002.7      46.7237      46.7237      46.7237 
  133000    131.50795   -11033.442   -9771.5929    386.13702     102002.7      46.7237      46.7237      46.7237 
  134000    130.85582    -11058.51   -9802.9185    392.41628     102002.7      46.7237      46.7237      46.7237 
  135000     131.5728   -11049.719   -9787.2482    292.51121     102002.7      46.7237      46.7237      46.7237 
  136000     130.4828   -11025.796   -9773.7842    434.68657     102002.7      46.7237      46.7237      46.7237 
  137000    130.13755   -11040.298    -9791.599    397.57554     102002.7      46.7237      46.7237      46.7237 
  138000    127.53241   -11059.931    -9836.228    113.38529     102002.7      46.7237      46.7237      46.7237 
  139000    129.65128   -11018.083   -9774.0499    336.59439     102002.7      46.7237      46.7237      46.7237 
  140000    133.56587   -11036.671   -9755.0764    114.53181     102002.7      46.7237      46.7237      46.7237 
  141000    130.68402   -11066.069   -9812.1261    293.49543     102002.7      46.7237      46.7237      46.7237 
  142000    129.90059   -11057.662    -9811.236    431.57889     102002.7      46.7237      46.7237      46.7237 
  143000    127.63171   -11012.537   -9787.8817    227.93552     102002.7      46.7237      46.7237      46.7237 
  144000    130.52663   -11006.028   -9753.5949    730.76848     102002.7      46.7237      46.7237      46.7237 
  145000    131.53062   -11058.322   -9796.2555    272.97405     102002.7      46.7237      46.7237      46.7237 
  146000    132.35971   -11003.825   -9733.8034    240.17204     102002.7      46.7237      46.7237      46.7237 
  147000    130.06346   -11021.564   -9773.5759    526.59411     102002.7      46.7237      46.7237      46.7237 
  148000    130.54625   -11026.566   -9773.9454    570.23987     102002.7      46.7237      46.7237      46.7237 
  149000    129.41446   -11055.752    -9813.991    386.70475     102002.7      46.7237      46.7237      46.7237 
  150000    129.12233   -11032.316    -9793.358    357.91871     102002.7      46.7237      46.7237      46.7237 
  151000    129.11088   -11040.402   -9801.5537    200.12237     102002.7      46.7237      46.7237      46.7237 
  152000    128.25733   -11020.527   -9789.8691    282.78017     102002.7      46.7237      46.7237      46.7237 
  153000    129.90539   -11052.304   -9805.8319    537.79546     102002.7      46.7237      46.7237      46.7237 
  154000    128.53398   -11038.514    -9805.201    508.37541     102002.7      46.7237      46.7237      46.7237 
  155000    128.51933   -11046.663   -9813.4903    414.61584     102002.7      46.7237      46.7237      46.7237 
  156000    128.91656   -11015.895   -9778.9109    394.79912     102002.7      46.7237      46.7237      46.7237 
  157000    130.51923   -11032.859   -9780.4975    441.61368     102002.7      46.7237      46.7237      46.7237 
  158000    128.03525   -11008.498   -9779.9702    259.68252     102002.7      46.7237      46.7237      46.7237 
  159000    128.30841   -11048.946    -9817.798    347.97579     102002.7      46.7237      46.7237      46.7237 
  160000    127.25182   -11061.948   -9840.9383    245.67619     102002.7      46.7237      46.7237      46.7237 
  161000    134.38884   -11034.991   -9745.4992    455.77621     102002.7      46.7237      46.7237      46.7237 
  162000     128.8046   -11017.629   -9781.7199    465.27036     102002.7      46.7237      46.7237      46.7237 
  163000    129.35152   -11046.601   -9805.4439    129.44911     102002.7      46.7237      46.7237      46.7237 
  164000    129.17269   -11038.857    -9799.416    226.93658     102002.7      46.7237      46.7237      46.7237 
  165000    130.53264   -11051.636   -9799.1453    298.49841     102002.7      46.7237      46.7237      46.7237 
  166000    129.13495   -11036.763   -9797.6838    84.987292     102002.7      46.7237      46.7237      46.7237 
  167000    131.57655   -11037.641   -9775.1336    698.22925     102002.7      46.7237      46.7237      46.7237 
  168000    130.60716   -11013.478   -9760.2723    419.30217     102002.7      46.7237      46.7237      46.7237 
  169000    129.22116    -11051.36   -9811.4533    55.450284     102002.7      46.7237      46.7237      46.7237 
  170000    135.54685   -11025.164   -9724.5613    262.90695     102002.7      46.7237      46.7237      46.7237 
  171000    128.68409   -11034.659   -9799.9056    313.50202     102002.7      46.7237      46.7237      46.7237 
  172000    127.14405   -11063.863   -9843.8872    366.40083     102002.7      46.7237      46.7237      46.7237 
  173000    129.31468   -11023.294   -9782.4905     867.0296     102002.7      46.7237      46.7237      46.7237 
  174000    130.79338   -11054.856   -9799.8641    85.073179     102002.7      46.7237      46.7237      46.7237 
  175000     126.6322    -11039.42   -9824.3556   -65.711353     102002.7      46.7237      46.7237      46.7237 
  176000    132.63286   -10993.361   -9720.7183    363.31969     102002.7      46.7237      46.7237      46.7237 
  177000    130.39892   -11029.728   -9778.5205    293.62282     102002.7      46.7237      46.7237      46.7237 
  178000    128.33634   -11039.512   -9808.0955    45.041108     102002.7      46.7237      46.7237      46.7237 
  179000    127.87188    -11042.25     -9815.29     181.7617     102002.7      46.7237      46.7237      46.7237 
  180000    131.21816   -11047.106   -9788.0376    144.01522     102002.7      46.7237      46.7237      46.7237 
  181000    133.38349   -11065.132   -9785.2867    5.0676543     102002.7      46.7237      46.7237      46.7237 
  182000     129.6673   -11007.973    -9763.786      93.5794     102002.7      46.7237      46.7237      46.7237 
  183000    130.10306   -11046.844   -9798.4753   -26.405525     102002.7      46.7237      46.7237      46.7237 
  184000    130.57373   -11048.018   -9795.1329    77.012727     102002.7      46.7237      46.7237      46.7237 
  185000    127.51071   -11036.665   -9813.1711    420.06027     102002.7      46.7237      46.7237      46.7237 
  186000    124.72818   -11031.306   -9834.5109    173.37222     102002.7      46.7237      46.7237      46.7237 
  187000    126.76432   -11029.096   -9812.7636    638.29594     102002.7      46.7237      46.7237      46.7237 
  188000    131.18012   -11021.676   -9762.9727     417.1291     102002.7      46.7237      46.7237      46.7237 
  189000     128.1108   -10981.351   -9752.0989    329.79364     102002.7      46.7237      46.7237      46.7237 
  190000    128.53252   -11057.144   -9823.8451    575.53149     102002.7      46.7237      46.7237      46.7237 
  191000    129.33233    -11035.88   -9794.9065    329.24049     102002.7      46.7237      46.7237      46.7237 
  192000    131.93944   -11024.821    -9758.832    435.99197     102002.7      46.7237      46.7237      46.7237 
  193000    128.17229   -11000.255   -9770.4128    573.44495     102002.7      46.7237      46.7237      46.7237 
  194000    130.37817   -11033.696    -9782.688    118.38112     102002.7      46.7237      46.7237      46.7237 
  195000    126.80922    -11037.61   -9820.8465    464.85386     102002.7      46.7237      46.7237      46.7237 
  196000    130.32535    -11038.37   -9787.8684    324.45043     102002.7      46.7237      46.7237      46.7237 
  197000    127.77863   -11061.309   -9835.2441    187.65951     102002.7      46.7237      46.7237      46.7237 
  198000    125.78508   -11023.017   -9816.0801    430.16887     102002.7      46.7237      46.7237      46.7237 
  199000    131.83184   -11030.468   -9765.5118    225.07814     102002.7      46.7237      46.7237      46.7237 
  200000    130.56341   -11050.386   -9797.5999    260.64036     102002.7      46.7237      46.7237      46.7237 
  201000    133.68252   -11037.992   -9755.2777    396.75566     102002.7      46.7237      46.7237      46.7237 
  202000    128.77088   -11015.224   -9779.6384    191.06752     102002.7      46.7237      46.7237      46.7237 
  203000    131.27396   -11066.661   -9807.0579    453.00019     102002.7      46.7237      46.7237      46.7237 
  204000    129.49853    -11033.47   -9790.9023    476.71082     102002.7      46.7237      46.7237      46.7237 
  205000    127.68725   -11010.954   -9785.7662    56.074346     102002.7      46.7237      46.7237      46.7237 
  206000    128.91125   -11025.404   -9788.4714    449.69387     102002.7      46.7237      46.7237      46.7237 
  207000    130.47365    -11024.09   -9772.1655    442.27025     102002.7      46.7237      46.7237      46.7237 
  208000     129.3998   -11046.755    -9805.134    322.37254     102002.7      46.7237      46.7237      46.7237 
  209000    128.21658   -11075.033   -9844.7659    642.36265     102002.7      46.7237      46.7237      46.7237 
  210000    127.55757   -11041.474   -9817.5301    642.99553     102002.7      46.7237      46.7237      46.7237 
  211000    131.54032   -11025.817   -9763.6574    425.81449     102002.7      46.7237      46.7237      46.7237 
  212000    129.02426   -11022.268   -9784.2506    369.84024     102002.7      46.7237      46.7237      46.7237 
  213000    131.72792   -11053.955   -9789.9959    189.04032     102002.7      46.7237      46.7237      46.7237 
  214000    130.81168   -11028.647    -9773.479    343.34777     102002.7      46.7237      46.7237      46.7237 
  215000     126.8618   -11044.984   -9827.7159    531.14908     102002.7      46.7237      46.7237      46.7237 
  216000    129.55022   -11029.112   -9786.0479    259.15662     102002.7      46.7237      46.7237      46.7237 
  217000    130.58843   -11015.349   -9762.3233    674.33443     102002.7      46.7237      46.7237      46.7237 
  218000    127.76662   -11074.062    -9848.112    301.42957     102002.7      46.7237      46.7237      46.7237 
  219000    129.93073   -11018.398   -9771.6833    545.51884     102002.7      46.7237      46.7237      46.7237 
  220000    132.81391   -11023.228   -9748.8483    438.77585     102002.7      46.7237      46.7237      46.7237 
  221000    129.05223   -11026.072   -9787.7869     910.2852     102002.7      46.7237      46.7237      46.7237 
  222000    130.03469     -11042.9   -9795.1873    443.14948     102002.7      46.7237      46.7237      46.7237 
  223000    133.16827   -11031.959   -9754.1788    634.47117     102002.7      46.7237      46.7237      46.7237 
  224000    130.23134   -11042.211   -9792.6116    470.47928     102002.7      46.7237      46.7237      46.7237 
  225000    128.64856   -11046.074   -9811.6616     328.1888     102002.7      46.7237      46.7237      46.7237 
  226000    127.85397   -11025.652   -9798.8644    619.47214     102002.7      46.7237      46.7237      46.7237 
  227000    128.00154   -11021.405   -9793.2007    613.76216     102002.7      46.7237      46.7237      46.7237 
  228000    131.45504   -11036.535   -9775.1938    540.04741     102002.7      46.7237      46.7237      46.7237 
  229000    127.80859   -11057.399   -9831.0464    304.07112     102002.7      46.7237      46.7237      46.7237 
  230000    126.95252   -11036.761   -9818.6228    408.15666     102002.7      46.7237      46.7237      46.7237 
  231000    130.42812   -11041.406   -9789.9185    326.19388     102002.7      46.7237      46.7237      46.7237 
  232000    133.31145   -11036.937   -9757.7836    419.27393     102002.7      46.7237      46.7237      46.7237 
  233000    127.44516   -11041.558   -9818.6931    317.65866     102002.7      46.7237      46.7237      46.7237 
  234000    130.10355   -11010.671   -9762.2976    467.40904     102002.7      46.7237      46.7237      46.7237 
  235000    129.13109   -11026.758   -9787.7162    331.60955     102002.7      46.7237      46.7237      46.7237 
  236000     129.9899   -11048.454   -9801.1709    247.79072     102002.7      46.7237      46.7237      46.7237 
  237000    128.98751   -11022.584   -9784.9199    650.53922     102002.7      46.7237      46.7237      46.7237 
  238000    126.44108   -11060.801   -9847.5703    417.42881     102002.7      46.7237      46.7237      46.7237 
  239000    129.59951   -11027.307   -9783.7697    738.29801     102002.7      46.7237      46.7237      46.7237 
  240000    128.84486   -11090.951   -9854.6549    658.90118     102002.7      46.7237      46.7237      46.7237 
  241000    131.04915   -11024.359   -9766.9128    363.88423     102002.7      46.7237      46.7237      46.7237 
  242000    129.60458   -11053.337   -9809.7518    516.86118     102002.7      46.7237      46.7237      46.7237 
  243000    127.54998   -11039.642   -9815.7708    217.71486     102002.7      46.7237      46.7237      46.7237 
  244000    132.36047   -11021.055   -9751.0262    409.63542     102002.7      46.7237      46.7237      46.7237 
  245000    130.93841   -11016.025   -9759.6413    176.55996     102002.7      46.7237      46.7237      46.7237 
  246000    130.52073   -11072.035   -9819.6587    132.67011     102002.7      46.7237      46.7237      46.7237 
  247000    129.84674   -11054.861    -9808.952    255.64173     102002.7      46.7237      46.7237      46.7237 
  248000    129.36384   -11036.449   -9795.1736    140.95313     102002.7      46.7237      46.7237      46.7237 
  249000    133.24685   -11019.782   -9741.2477    472.88982     102002.7      46.7237      46.7237      46.7237 
  250000    129.15304   -11030.113   -9790.8605    279.71854     102002.7      46.7237      46.7237      46.7237 
  251000    126.53924   -11051.936   -9837.7637    401.02771     102002.7      46.7237      46.7237      46.7237 
  252000    127.15372   -11034.071   -9814.0021    362.65583     102002.7      46.7237      46.7237      46.7237 
  253000    130.89839   -11058.358   -9802.3579      578.089     102002.7      46.7237      46.7237      46.7237 
  254000    129.89736   -11051.999   -9805.6041    165.01351     102002.7      46.7237      46.7237      46.7237 
  255000    128.75544   -11036.957   -9801.5191    255.48103     102002.7      46.7237      46.7237      46.7237 
  256000    127.04612   -11065.167   -9846.1308    562.34216     102002.7      46.7237      46.7237      46.7237 
  257000    130.50775   -11021.221    -9768.969    183.18727     102002.7      46.7237      46.7237      46.7237 
  258000    132.22519    -11057.43   -9788.6993     497.4463     102002.7      46.7237      46.7237      46.7237 
  259000    129.39832     -11071.3   -9829.6938    270.76388     102002.7      46.7237      46.7237      46.7237 
  260000    129.12847   -11041.553   -9802.5362    424.77515     102002.7      46.7237      46.7237      46.7237 
  261000    130.97177   -11056.099   -9799.3948    438.64028     102002.7      46.7237      46.7237      46.7237 
  262000    129.11439   -11047.436    -9808.554    351.70671     102002.7      46.7237      46.7237      46.7237 
  263000    127.24772   -11035.472   -9814.5008     545.8035     102002.7      46.7237      46.7237      46.7237 
  264000    131.85672   -11041.108   -9775.9129    757.63175     102002.7      46.7237      46.7237      46.7237 
  265000    130.34071   -11058.222   -9807.5731    289.21801     102002.7      46.7237      46.7237      46.7237 
  266000    128.20182   -11065.038   -9834.9129    202.91645     102002.7      46.7237      46.7237      46.7237 
  267000    127.57998   -11033.251   -9809.0919    318.38563     102002.7      46.7237      46.7237      46.7237 
  268000    133.03738   -11043.853   -9767.3292    369.80804     102002.7      46.7237      46.7237      46.7237 
  269000    130.74106   -11019.942   -9765.4516     572.7964     102002.7      46.7237      46.7237      46.7237 
  270000    128.52367   -11033.219   -9800.0047     40.08549     102002.7      46.7237      46.7237      46.7237 
  271000    128.84464   -11003.102   -9766.8086    405.47821     102002.7      46.7237      46.7237      46.7237 
  272000    128.48751   -11042.647     -9809.78    36.490078     102002.7      46.7237      46.7237      46.7237 
  273000     128.8175   -11007.536   -9771.5026     207.5539     102002.7      46.7237      46.7237      46.7237 
  274000    126.88943   -11024.722   -9807.1893    490.40586     102002.7      46.7237      46.7237      46.7237 
  275000    133.97236    -11021.91   -9736.4153    280.78626     102002.7      46.7237      46.7237      46.7237 
  276000    131.33772   -11051.575   -9791.3599    167.02514     102002.7      46.7237      46.7237      46.7237 
  277000     130.2761   -11018.783   -9768.7542    346.70139     102002.7      46.7237      46.7237      46.7237 
  278000    130.01801   -11035.617   -9788.0649    198.80596     102002.7      46.7237      46.7237      46.7237 
  279000    130.10558   -11042.741   -9794.3486    173.43246     102002.7      46.7237      46.7237      46.7237 
  280000    131.29854   -11040.097   -9780.2578    558.07165     102002.7      46.7237      46.7237      46.7237 
  281000    129.33357   -11051.715     -9810.73    291.36344     102002.7      46.7237      46.7237      46.7237 
  282000    129.43413   -11012.262   -9770.3119    687.87861     102002.7      46.7237      46.7237      46.7237 
  283000    130.42993   -11009.853   -9758.3485    506.56622     102002.7      46.7237      46.7237      46.7237 
  284000    131.27749   -11053.682   -9794.0449    -6.422624     102002.7      46.7237      46.7237      46.7237 
  285000     132.3717   -11042.216   -9772.0797    414.48144     102002.7      46.7237      46.7237      46.7237 
  286000    127.75103   -11015.485   -9789.6847    154.40537     102002.7      46.7237      46.7237      46.7237 
  287000      127.993   -11048.346   -9820.2235    257.35971     102002.7      46.7237      46.7237      46.7237 
  288000    129.44756   -11039.934   -9797.8549     233.1208     102002.7      46.7237      46.7237      46.7237 
  289000    132.51106   -11050.458   -9778.9844    363.11822     102002.7      46.7237      46.7237      46.7237 
  290000    129.39758   -11044.038   -9802.4383    353.96035     102002.7      46.7237      46.7237      46.7237 
  291000    130.53625   -11058.092   -9805.5672    485.79445     102002.7      46.7237      46.7237      46.7237 
  292000    131.10028     -11049.7   -9791.7626    551.58355     102002.7      46.7237      46.7237      46.7237 
  293000    128.37863   -11038.731   -9806.9093    714.16496     102002.7      46.7237      46.7237      46.7237 
  294000    131.57105   -11002.215   -9739.7611    118.82581     102002.7      46.7237      46.7237      46.7237 
  295000    130.20417    -11018.75    -9769.411    214.34383     102002.7      46.7237      46.7237      46.7237 
  296000     129.7007   -11013.257   -9768.7488    557.51878     102002.7      46.7237      46.7237      46.7237 
  297000    133.60928   -11033.402   -9751.3908    191.33696     102002.7      46.7237      46.7237      46.7237 
  298000    129.64399     -11033.7   -9789.7364    375.42219     102002.7      46.7237      46.7237      46.7237 
  299000    129.22483    -11025.59   -9785.6483    50.785371     102002.7      46.7237      46.7237      46.7237 
  300000    131.68168   -11038.131   -9774.6156    315.68261     102002.7      46.7237      46.7237      46.7237 
  301000    131.83263   -11032.103   -9767.1393    255.71521     102002.7      46.7237      46.7237      46.7237 
  302000    130.48602   -11052.813   -9800.7699    176.18825     102002.7      46.7237      46.7237      46.7237 
  303000    129.57345    -11013.72   -9770.4334     429.7553     102002.7      46.7237      46.7237      46.7237 
  304000    129.36134   -11053.917   -9812.6656    473.45807     102002.7      46.7237      46.7237      46.7237 
  305000    131.49349   -11063.305   -9801.5946    338.61722     102002.7      46.7237      46.7237      46.7237 
  306000    129.65901   -11037.136   -9793.0286    365.16984     102002.7      46.7237      46.7237      46.7237 
  307000    134.33303   -11040.312   -9751.3564     322.5898     102002.7      46.7237      46.7237      46.7237 
  308000    126.98925   -11013.268    -9794.777    348.34074     102002.7      46.7237      46.7237      46.7237 
  309000     129.5427   -11072.256   -9829.2645    514.61438     102002.7      46.7237      46.7237      46.7237 
  310000    127.66294    -11026.34   -9801.3854    278.59611     102002.7      46.7237      46.7237      46.7237 
  311000    132.45974   -11062.101   -9791.1199    435.56538     102002.7      46.7237      46.7237      46.7237 
  312000    128.71035   -11042.788   -9807.7833    377.27383     102002.7      46.7237      46.7237      46.7237 
  313000    126.95308   -11048.056    -9829.912    79.860557     102002.7      46.7237      46.7237      46.7237 
  314000    127.61333   -11036.145   -9811.6663    330.12273     102002.7      46.7237      46.7237      46.7237 
  315000    131.26516   -11044.746   -9785.2265    121.68705     102002.7      46.7237      46.7237      46.7237 
  316000    129.59085   -11033.001   -9789.5478    522.57768     102002.7      46.7237      46.7237      46.7237 
  317000    131.53246   -11013.955   -9751.8709     440.4193     102002.7      46.7237      46.7237      46.7237 
  318000    127.34155   -11045.731   -9823.8598    549.02646     102002.7      46.7237      46.7237      46.7237 
  319000    131.04911   -11052.311   -9794.8652    626.70058     102002.7      46.7237      46.7237      46.7237 
  320000    134.76257   -10984.866   -9691.7887    496.29312     102002.7      46.7237      46.7237      46.7237 
  321000     132.3828   -11023.976   -9753.7328    659.44262     102002.7      46.7237      46.7237      46.7237 
  322000    127.88638    -11060.67   -9833.5715    223.95418     102002.7      46.7237      46.7237      46.7237 
  323000    128.89784   -11056.601   -9819.7973     409.0246     102002.7      46.7237      46.7237      46.7237 
  324000    132.58399   -11039.884   -9767.7108    461.21302     102002.7      46.7237      46.7237      46.7237 
  325000    130.18997   -11038.169   -9788.9666    183.54447     102002.7      46.7237      46.7237      46.7237 
  326000    130.02947   -11051.205   -9803.5424    367.88814     102002.7      46.7237      46.7237      46.7237 
  327000    128.12789   -11021.448   -9792.0316    508.65261     102002.7      46.7237      46.7237      46.7237 
  328000    129.17643   -11020.789    -9781.312    399.45085     102002.7      46.7237      46.7237      46.7237 
  329000    127.76286   -11074.377   -9848.4629    454.42119     102002.7      46.7237      46.7237      46.7237 
  330000    130.47848   -11019.051   -9767.0799    207.47744     102002.7      46.7237      46.7237      46.7237 
  331000    132.17402   -11005.936   -9737.6964    393.65221     102002.7      46.7237      46.7237      46.7237 
  332000    126.83937   -11049.443   -9832.3906     366.6776     102002.7      46.7237      46.7237      46.7237 
  333000    128.12264   -11023.476   -9794.1096    311.44978     102002.7      46.7237      46.7237      46.7237 
  334000    129.97775   -11068.111   -9820.9452    466.51941     102002.7      46.7237      46.7237      46.7237 
  335000    128.05998   -11033.763   -9804.9984   -36.700377     102002.7      46.7237      46.7237      46.7237 
  336000    131.09462    -11034.21   -9776.3271    104.09165     102002.7      46.7237      46.7237      46.7237 
  337000    126.50993   -11022.286   -9808.3947    308.88536     102002.7      46.7237      46.7237      46.7237 
  338000    130.07002   -11036.061   -9788.0091    239.87779     102002.7      46.7237      46.7237      46.7237 
  339000    131.36492   -11030.481   -9770.0044    729.58491     102002.7      46.7237      46.7237      46.7237 
  340000    130.24838   -11063.946   -9814.1832    245.16226     102002.7      46.7237      46.7237      46.7237 
  341000    129.14558   -11037.887   -9798.7055    451.30255     102002.7      46.7237      46.7237      46.7237 
  342000    130.79069   -11062.026     -9807.06    599.51229     102002.7      46.7237      46.7237      46.7237 
  343000    132.14997   -11019.643   -9751.6343    472.33018     102002.7      46.7237      46.7237      46.7237 
  344000    128.76403   -11057.646    -9822.126     645.2778     102002.7      46.7237      46.7237      46.7237 
  345000     129.4314   -11087.634   -9845.7103     278.0272     102002.7      46.7237      46.7237      46.7237 
  346000    133.15284   -11078.789   -9801.1567    99.947374     102002.7      46.7237      46.7237      46.7237 
  347000    130.99974   -11018.298   -9761.3256    103.74488     102002.7      46.7237      46.7237      46.7237 
  348000     129.0705   -11042.593   -9804.1321    221.64644     102002.7      46.7237      46.7237      46.7237 
  349000    126.73755    -11050.28   -9834.2046    356.44974     102002.7      46.7237      46.7237      46.7237 
  350000     132.0344   -11033.047   -9766.1474    283.48032     102002.7      46.7237      46.7237      46.7237 
  351000    132.83229   -11033.703   -9759.1466    342.16783     102002.7      46.7237      46.7237      46.7237 
  352000    130.70598   -11074.847   -9820.6935    603.13302     102002.7      46.7237      46.7237      46.7237 
  353000    131.01502   -11070.102   -9812.9829    340.46816     102002.7      46.7237      46.7237      46.7237 
  354000    129.63361   -11040.905   -9797.0409    553.24905     102002.7      46.7237      46.7237      46.7237 
  355000    129.16867   -11071.787   -9832.3839    334.95558     102002.7      46.7237      46.7237      46.7237 
  356000    129.52135   -11054.676   -9811.8889      205.609     102002.7      46.7237      46.7237      46.7237 
  357000     131.6287   -11003.014   -9740.0069    247.04817     102002.7      46.7237      46.7237      46.7237 
  358000    127.04259   -11039.506    -9820.503    427.16157     102002.7      46.7237      46.7237      46.7237 
  359000    132.62456   -11049.636   -9777.0728    242.15786     102002.7      46.7237      46.7237      46.7237 
  360000    128.65856   -11034.376   -9799.8675    136.19927     102002.7      46.7237      46.7237      46.7237 
  361000    127.90318   -11063.041   -9835.7813    159.82438     102002.7      46.7237      46.7237      46.7237 
  362000    128.02761   -11018.614   -9790.1596   -149.94163     102002.7      46.7237      46.7237      46.7237 
  363000    127.75595   -11039.098   -9813.2507    369.23962     102002.7      46.7237      46.7237      46.7237 
  364000     130.0527   -11049.012   -9801.1271    419.04452     102002.7      46.7237      46.7237      46.7237 
  365000    128.51994   -11036.301   -9803.1234    149.42563     102002.7      46.7237      46.7237      46.7237 
  366000    130.28842   -11005.889   -9755.7423    604.26167     102002.7      46.7237      46.7237      46.7237 
  367000     129.1793   -11040.899   -9801.3947    172.30207     102002.7      46.7237      46.7237      46.7237 
  368000    130.76464   -11030.024   -9775.3078    593.61377     102002.7      46.7237      46.7237      46.7237 
  369000    129.36985   -11054.788   -9813.4551    942.36072     102002.7      46.7237      46.7237      46.7237 
  370000    126.61156   -11024.189   -9809.3222    212.36141     102002.7      46.7237      46.7237      46.7237 
  371000    129.51688   -11039.048   -9796.3044    274.39769     102002.7      46.7237      46.7237      46.7237 
  372000    129.64479   -11016.223   -9772.2516     460.6381     102002.7      46.7237      46.7237      46.7237 
  373000    129.68383   -11060.522   -9816.1765    322.71832     102002.7      46.7237      46.7237      46.7237 
  374000    131.72761   -11033.729   -9769.7721    303.45691     102002.7      46.7237      46.7237      46.7237 
  375000    127.00777   -11016.853   -9798.1847    95.473593     102002.7      46.7237      46.7237      46.7237 
  376000    128.78478   -11042.385   -9806.6659    37.595053     102002.7      46.7237      46.7237      46.7237 
  377000    129.01405   -11030.179   -9792.2594    122.88485     102002.7      46.7237      46.7237      46.7237 
  378000    131.13185   -11020.361   -9762.1214    454.45269     102002.7      46.7237      46.7237      46.7237 
  379000    131.15253   -11050.394   -9791.9556    612.00031     102002.7      46.7237      46.7237      46.7237 
  380000    128.55888   -11021.042   -9787.4907    292.26138     102002.7      46.7237      46.7237      46.7237 
  381000    128.23745    -11045.87   -9815.4023    546.63414     102002.7      46.7237      46.7237      46.7237 
  382000    130.75179   -11010.103   -9755.5096    510.02642     102002.7      46.7237      46.7237      46.7237 
  383000    130.81395   -11013.707   -9758.5178    398.04664     102002.7      46.7237      46.7237      46.7237 
  384000    125.77451   -11010.172    -9803.337    671.15053     102002.7      46.7237      46.7237      46.7237 
  385000    129.14135   -11014.688   -9775.5477    257.72868     102002.7      46.7237      46.7237      46.7237 
  386000    129.31616   -11051.121   -9810.3026    330.04024     102002.7      46.7237      46.7237      46.7237 
  387000    129.11356   -11039.071   -9800.1973    514.53562     102002.7      46.7237      46.7237      46.7237 
  388000    127.93656   -11031.935   -9804.3549    608.14329     102002.7      46.7237      46.7237      46.7237 
  389000    130.23683    -11046.31    -9796.658     112.3396     102002.7      46.7237      46.7237      46.7237 
  390000    134.18161   -11052.888   -9765.3848    269.92404     102002.7      46.7237      46.7237      46.7237 
  391000    127.44852   -11060.124   -9837.2261    361.76635     102002.7      46.7237      46.7237      46.7237 
  392000    130.67683   -11015.621   -9761.7473    538.23913     102002.7      46.7237      46.7237      46.7237 
  393000    128.84151   -11041.265   -9805.0009    168.43735     102002.7      46.7237      46.7237      46.7237 
  394000    136.37812   -11016.285   -9707.7055    679.51502     102002.7      46.7237      46.7237      46.7237 
  395000    131.08745   -11043.137   -9785.3227    496.31843     102002.7      46.7237      46.7237      46.7237 
  396000    128.92994   -11044.823   -9807.7113    276.99983     102002.7      46.7237      46.7237      46.7237 
  397000    130.04164   -11040.507   -9792.7277    218.49746     102002.7      46.7237      46.7237      46.7237 
  398000    127.39776   -11018.168   -9795.7576    92.811316     102002.7      46.7237      46.7237      46.7237 
  399000    132.32714    -11029.16   -9759.4512    284.06554     102002.7      46.7237      46.7237      46.7237 
  400000    128.49547   -11076.851   -9843.9073    76.506516     102002.7      46.7237      46.7237      46.7237 
  401000    131.69413   -11028.345   -9764.7094    503.33818     102002.7      46.7237      46.7237      46.7237 
  402000    130.23905    -11007.41   -9757.7362    423.15149     102002.7      46.7237      46.7237      46.7237 
  403000    130.31399   -11046.676   -9796.2837    99.855677     102002.7      46.7237      46.7237      46.7237 
  404000    129.39354   -11069.426   -9827.8652    305.95256     102002.7      46.7237      46.7237      46.7237 
  405000    129.90018   -11040.695   -9794.2729    84.585875     102002.7      46.7237      46.7237      46.7237 
  406000    129.68777   -11046.659   -9802.2755    176.60904     102002.7      46.7237      46.7237      46.7237 
  407000    131.11439   -11038.775    -9780.703    173.04402     102002.7      46.7237      46.7237      46.7237 
  408000    132.02001   -11074.297    -9807.535    98.202161     102002.7      46.7237      46.7237      46.7237 
  409000    128.94814    -11034.62   -9797.3333    96.271736     102002.7      46.7237      46.7237      46.7237 
  410000    130.42033   -11058.862   -9807.4494    249.26134     102002.7      46.7237      46.7237      46.7237 
  411000    128.30762   -11062.849   -9831.7086    153.59804     102002.7      46.7237      46.7237      46.7237 
  412000    130.56579   -11043.496   -9790.6876    267.64546     102002.7      46.7237      46.7237      46.7237 
  413000    130.36061   -11067.001   -9816.1611    289.20164     102002.7      46.7237      46.7237      46.7237 
  414000      130.485   -11039.206   -9787.1729    226.10141     102002.7      46.7237      46.7237      46.7237 
  415000    131.51937   -11064.752   -9802.7937    218.87314     102002.7      46.7237      46.7237      46.7237 
  416000    132.82327   -10988.128   -9713.6586    513.55122     102002.7      46.7237      46.7237      46.7237 
  417000      129.892   -11042.924   -9796.5806     374.0046     102002.7      46.7237      46.7237      46.7237 
  418000    130.22571   -11035.616   -9786.0705    453.91442     102002.7      46.7237      46.7237      46.7237 
  419000    131.80015    -11045.43   -9780.7778    200.19407     102002.7      46.7237      46.7237      46.7237 
  420000     129.7654   -11031.895   -9786.7664     142.6527     102002.7      46.7237      46.7237      46.7237 
  421000    126.61644   -11037.352   -9822.4386    594.77662     102002.7      46.7237      46.7237      46.7237 
  422000    133.50398   -11062.004   -9781.0024    487.39124     102002.7      46.7237      46.7237      46.7237 
  423000    131.13947    -11056.69   -9798.3765    151.12128     102002.7      46.7237      46.7237      46.7237 
  424000    128.54446    -11049.39   -9815.9769    528.02556     102002.7      46.7237      46.7237      46.7237 
  425000    131.39055   -11025.454   -9764.7314    423.44936     102002.7      46.7237      46.7237      46.7237 
  426000    128.75468   -11063.724   -9828.2931    706.04305     102002.7      46.7237      46.7237      46.7237 
  427000    128.55969   -11031.578   -9798.0183    395.95417     102002.7      46.7237      46.7237      46.7237 
  428000    130.64496   -11046.418   -9792.8503    118.03702     102002.7      46.7237      46.7237      46.7237 
  429000    129.29327   -11013.198   -9772.5992    238.99368     102002.7      46.7237      46.7237      46.7237 
  430000    129.66317   -11056.454   -9812.3063    243.23949     102002.7      46.7237      46.7237      46.7237 
  431000    129.97889   -11033.772   -9786.5949    491.39576     102002.7      46.7237      46.7237      46.7237 
  432000    130.34665   -11032.638   -9781.9326    496.41422     102002.7      46.7237      46.7237      46.7237 
  433000    130.69205   -11059.316   -9805.2964    189.05132     102002.7      46.7237      46.7237      46.7237 
  434000    130.75645   -11046.909   -9792.2715    230.01539     102002.7      46.7237      46.7237      46.7237 
  435000    131.53071   -11041.168   -9779.1009    433.28007     102002.7      46.7237      46.7237      46.7237 
  436000    132.40752   -11037.661   -9767.1806    304.66994     102002.7      46.7237      46.7237      46.7237 
  437000     127.2456   -11036.579   -9815.6286    397.28861     102002.7      46.7237      46.7237      46.7237 
  438000     130.1301   -11012.267    -9763.639    220.05079     102002.7      46.7237      46.7237      46.7237 
  439000    131.50253   -11004.557   -9742.7603    65.254982     102002.7      46.7237      46.7237      46.7237 
  440000    131.18176   -11045.202   -9786.4828    480.71018     102002.7      46.7237      46.7237      46.7237 
  441000    126.56001   -10997.281   -9782.9094    250.54252     102002.7      46.7237      46.7237      46.7237 
  442000    133.61536   -11027.423   -9745.3536    132.23149     102002.7      46.7237      46.7237      46.7237 
  443000    129.67541   -11037.045   -9792.7801    151.25874     102002.7      46.7237      46.7237      46.7237 
  444000    129.80935   -11034.033   -9788.4829   -2.4263071     102002.7      46.7237      46.7237      46.7237 
  445000    128.06944   -11078.006   -9849.1503    599.81115     102002.7      46.7237      46.7237      46.7237 
  446000    129.04641    -11048.58   -9810.3507    169.11056     102002.7      46.7237      46.7237      46.7237 
  447000    128.27875   -11077.414   -9846.5506    666.02954     102002.7      46.7237      46.7237      46.7237 
  448000     126.8617   -11030.667   -9813.4003    530.53735     102002.7      46.7237      46.7237      46.7237 
  449000    130.89999   -11049.606   -9793.5913    334.91312     102002.7      46.7237      46.7237      46.7237 
  450000    131.77324   -11030.368   -9765.9741    715.54797     102002.7      46.7237      46.7237      46.7237 
  451000    128.26583   -11028.383   -9797.6434    384.31775     102002.7      46.7237      46.7237      46.7237 
  452000    128.90211    -11011.05   -9774.2051    361.94256     102002.7      46.7237      46.7237      46.7237 
  453000    127.45677    -11051.33   -9828.3536    292.56708     102002.7      46.7237      46.7237      46.7237 
  454000    128.52456   -11048.526    -9815.304    351.96038     102002.7      46.7237      46.7237      46.7237 
  455000    130.47575    -11044.83   -9792.8855    286.28118     102002.7      46.7237      46.7237      46.7237 
  456000    129.24321   -10978.561   -9738.4434    384.86165     102002.7      46.7237      46.7237      46.7237 
  457000     131.5718   -11036.799   -9774.3378    239.71799     102002.7      46.7237      46.7237      46.7237 
  458000    127.99849   -11044.043   -9815.8687    58.593541     102002.7      46.7237      46.7237      46.7237 
  459000    130.46879   -11044.633   -9792.7553    279.64507     102002.7      46.7237      46.7237      46.7237 
  460000    130.61749   -11068.454   -9815.1493    341.12644     102002.7      46.7237      46.7237      46.7237 
  461000    130.24793   -11028.671    -9778.912    255.87153     102002.7      46.7237      46.7237      46.7237 
  462000    131.24121   -11017.363   -9758.0738    425.81485     102002.7      46.7237      46.7237      46.7237 
  463000    128.49469   -11057.759   -9824.8236     315.9378     102002.7      46.7237      46.7237      46.7237 
  464000    126.53304   -11050.605   -9836.4921    346.02614     102002.7      46.7237      46.7237      46.7237 
  465000    129.27106   -11044.469    -9804.084    625.97285     102002.7      46.7237      46.7237      46.7237 
  466000    133.03568   -11069.241   -9792.7331    415.20137     102002.7      46.7237      46.7237      46.7237 
  467000    131.75698   -11023.507   -9759.2688    126.28377     102002.7      46.7237      46.7237      46.7237 
  468000    130.71683   -11032.979   -9778.7216    121.58671     102002.7      46.7237      46.7237      46.7237 
  469000    128.80693   -11068.115   -9832.1831    220.96973     102002.7      46.7237      46.7237      46.7237 
  470000    128.85902   -11013.505    -9777.073    405.91651     102002.7      46.7237      46.7237      46.7237 
  471000    127.35052   -11051.257   -9829.3003    435.56779     102002.7      46.7237      46.7237      46.7237 
  472000    128.93062   -11041.255   -9804.1367    350.01726     102002.7      46.7237      46.7237      46.7237 
  473000    127.28858   -11056.126   -9834.7631    435.67119     102002.7      46.7237      46.7237      46.7237 
  474000    130.23635    -11028.44   -9778.7923    226.74673     102002.7      46.7237      46.7237      46.7237 
  475000    128.23288   -11014.307   -9783.8838    652.09815     102002.7      46.7237      46.7237      46.7237 
  476000    128.74407   -11041.302   -9805.9738    257.31462     102002.7      46.7237      46.7237      46.7237 
  477000    131.71443   -11070.623   -9806.7933    455.94078     102002.7      46.7237      46.7237      46.7237 
  478000    131.39763   -11035.919   -9775.1288    459.40252     102002.7      46.7237      46.7237      46.7237 
  479000    128.77854   -11021.498   -9785.8385    240.40533     102002.7      46.7237      46.7237      46.7237 
  480000    126.67035   -11084.707   -9869.2759    149.11755     102002.7      46.7237      46.7237      46.7237 
  481000     129.7575   -11053.712    -9808.659    416.46575     102002.7      46.7237      46.7237      46.7237 
  482000    129.76584    -11041.36   -9796.2267     288.4802     102002.7      46.7237      46.7237      46.7237 
  483000    129.81574   -11028.313   -9782.7013    354.33934     102002.7      46.7237      46.7237      46.7237 
  484000    131.18128   -11055.308   -9796.5938     141.1341     102002.7      46.7237      46.7237      46.7237 
  485000    131.62462   -11041.081   -9778.1128     177.8253     102002.7      46.7237      46.7237      46.7237 
  486000    129.33506   -11021.365   -9780.3653    168.36779     102002.7      46.7237      46.7237      46.7237 
  487000    131.21658   -11040.206   -9781.1533    188.58177     102002.7      46.7237      46.7237      46.7237 
  488000    131.18782   -11032.102   -9773.3245    349.16307     102002.7      46.7237      46.7237      46.7237 
  489000    128.41695   -11003.804    -9771.614     383.0736     102002.7      46.7237      46.7237      46.7237 
  490000    132.24119   -11047.089   -9778.2044    416.37138     102002.7      46.7237      46.7237      46.7237 
  491000    128.97446   -11044.851   -9807.3122    551.05158     102002.7      46.7237      46.7237      46.7237 
  492000    129.29983   -11060.713   -9820.0513    639.23775     102002.7      46.7237      46.7237      46.7237 
  493000    128.08548   -11053.132   -9824.1231    425.31317     102002.7      46.7237      46.7237      46.7237 
  494000    129.85896   -11045.035   -9799.0091     219.7502     102002.7      46.7237      46.7237      46.7237 
  495000    131.71947   -11026.002   -9762.1239   -7.5601794     102002.7      46.7237      46.7237      46.7237 
  496000    127.13127   -11023.696   -9803.8429    168.87325     102002.7      46.7237      46.7237      46.7237 
  497000    132.48753   -11045.925   -9774.6768    -43.26718     102002.7      46.7237      46.7237      46.7237 
  498000    132.88593   -11079.528   -9804.4569    133.54622     102002.7      46.7237      46.7237      46.7237 
  499000    130.47039   -11049.048   -9797.1551    305.71844     102002.7      46.7237      46.7237      46.7237 
  500000    127.78519   -11046.541    -9820.413    220.55851     102002.7      46.7237      46.7237      46.7237 
  500500    129.57738   -11062.244   -9818.9194    104.02223     102002.7      46.7237      46.7237      46.7237 
Loop time of 1876.73 on 16 procs for 500000 steps with 3220 atoms

Performance: 23.019 ns/day, 1.043 hours/ns, 266.420 timesteps/s
99.8% CPU use with 16 MPI tasks x no OpenMP threads

MPI task timing breakdown:
Section |  min time  |  avg time  |  max time  |%varavg| %total
---------------------------------------------------------------
Pair    | 934.68     | 1173.3     | 1404.6     | 394.1 | 62.52
Bond    | 143.15     | 174.75     | 202.93     | 107.4 |  9.31
Neigh   | 18.019     | 18.063     | 18.128     |   0.7 |  0.96
Comm    | 259.19     | 493.4      | 749.6      | 623.3 | 26.29
Output  | 0.021308   | 0.022327   | 0.026355   |   0.8 |  0.00
Modify  | 9.1891     | 10.371     | 11.423     |  22.8 |  0.55
Other   |            | 6.814      |            |       |  0.36

Nlocal:    201.25 ave 236 max 167 min
Histogram: 2 1 0 1 3 2 4 2 0 1
Nghost:    4064.38 ave 4106 max 4021 min
Histogram: 1 0 2 2 3 1 3 3 0 1
Neighs:    11455.8 ave 16140 max 6996 min
Histogram: 1 0 3 1 3 3 2 2 0 1

Total # of neighbors = 183292
Ave neighs/atom = 56.923
Ave special neighs/atom = 3.57764
Neighbor list builds = 5117
Dangerous builds = 0
Neighbor list info ...
  update every 1 steps, delay 10 steps, check yes
  max neighbors/atom: 2000, page size: 100000
  master list distance cutoff = 16
  ghost atom cutoff = 16
  binsize = 8, bins = 6 6 6
  3 neighbor lists, perpetual/occasional/extra = 3 0 0
  (1) pair buck6d/coul/gauss/dsf, perpetual, skip from (3)
      attributes: half, newton on
      pair build: skip
      stencil: none
      bin: none
  (2) pair lj/cut, perpetual, skip from (3)
      attributes: half, newton on
      pair build: skip
      stencil: none
      bin: none
  (3) neighbor class addition, perpetual
      attributes: half, newton on
      pair build: half/bin/newton
      stencil: half/bin/3d/newton
      bin: standard
Setting up Verlet run ...
  Unit style    : real
  Current step  : 500500
  Time step     : 1
WARNING: Inconsistent image flags (../domain.cpp:786)
Per MPI rank memory allocation (min/avg/max) = 23.17 | 23.42 | 23.44 Mbytes
Step Time TotEng KinEng PotEng E_mol E_pair Temp Pxx Pyy Pzz Pxy Pxz Pyz Cella Cellb Cellc CellAlpha CellBeta CellGamma Volume Press 
  500500       500000   -9818.9194    1243.3245   -11062.244    4386.1348   -15448.379    129.57738   -85.387082    343.85633    53.597434     128.3704   -21.695048   -168.24959      46.7237      46.7237      46.7237           90           90           90     102002.7    104.02223 
  501000       500500   -9807.9938    1238.5459    -11046.54    4399.0091   -15445.549    129.07937    84.760614    314.03855     15.23417    154.73775    50.180955   -220.34161      46.7237      46.7237      46.7237           90           90           90     102002.7    138.01111 
  502000       501500   -9775.5606    1262.6722   -11038.233    4402.1111   -15440.344    131.59378    35.695303    684.54484    149.62797    277.21787    11.248457    98.993106      46.7237      46.7237      46.7237           90           90           90     102002.7    289.95604 
  503000       502500   -9858.2367    1191.1527   -11049.389    4378.6415   -15428.031    124.14012    323.42159     437.4231    621.75254    100.85719    108.76741   -22.524015      46.7237      46.7237      46.7237           90           90           90     102002.7    460.86574 
  504000       503500   -9784.8677    1252.6375   -11037.505    4392.2696   -15429.775    130.54798    326.08279    464.55869    56.037321    10.473696   -61.257535   -128.83255      46.7237      46.7237      46.7237           90           90           90     102002.7    282.22627 
  505000       504500   -9835.4413    1235.5715   -11071.013    4380.7627   -15451.775    128.76938    390.85746    117.43792   -125.14488    45.528263    38.996302   -243.78816      46.7237      46.7237      46.7237           90           90           90     102002.7    127.71683 
  506000       505500   -9795.6395    1234.9981   -11030.638    4388.6221    -15419.26    128.70962    619.53519    720.21496     398.5601    607.28869     7.844604    245.58009      46.7237      46.7237      46.7237           90           90           90     102002.7    579.43675 
  507000       506500   -9761.9316      1270.82   -11032.752    4370.4185    -15403.17    132.44293    663.65761    760.83893    161.07906   -121.65726    7.8179848   -95.511438      46.7237      46.7237      46.7237           90           90           90     102002.7     528.5252 
  508000       507500   -9775.0581    1241.4822    -11016.54     4394.159   -15410.699    129.38538    256.29532    378.97451     437.2939     199.5561    62.685718    83.213797      46.7237      46.7237      46.7237           90           90           90     102002.7    357.52124 
  509000       508500     -9827.85    1245.4798    -11073.33    4362.9437   -15436.273    129.80201     148.1008     215.2353     54.88641   -67.242332    93.499035   -340.37637      46.7237      46.7237      46.7237           90           90           90     102002.7     139.4075 
  510000       509500   -9779.6088    1220.3903   -10999.999    4420.8053   -15420.804    127.18722    177.28499    214.28453   -212.45273   -126.60713    213.41635    126.07857      46.7237      46.7237      46.7237           90           90           90     102002.7    59.705598 
  511000       510500   -9774.9126     1270.528   -11045.441    4397.9833   -15443.424    132.41249    69.673918    155.58324    249.94444    128.10388    160.67464    96.167344      46.7237      46.7237      46.7237           90           90           90     102002.7    158.40053 
  512000       511500   -9799.1266    1239.4378   -11038.564    4367.6608   -15406.225    129.17232    602.29325    313.96208    154.37816    161.01089     18.49351     238.4412      46.7237      46.7237      46.7237           90           90           90     102002.7    356.87783 
  513000       512500   -9794.2545    1246.1708   -11040.425    4382.6447    -15423.07    129.87403    539.16129    349.89696    855.66553   -131.74087    264.60903    71.395152      46.7237      46.7237      46.7237           90           90           90     102002.7    581.57459 
  514000       513500   -9784.4367    1267.7447   -11052.181    4346.6542   -15398.835    132.12242   -87.829459    416.37895     -63.6654   -195.41006     122.0012   -15.771709      46.7237      46.7237      46.7237           90           90           90     102002.7    88.294696 
  515000       514500   -9823.4123    1214.0158   -11037.428    4375.1421    -15412.57    126.52288    1005.5706    200.27783   -231.39015    -235.8722    269.60312    152.32885      46.7237      46.7237      46.7237           90           90           90     102002.7    324.81942 
  516000       515500   -9780.3377    1276.4496   -11056.787    4363.1061   -15419.893    133.02963    485.48972    619.58867    161.95574   -148.18936   -201.86651    11.680725      46.7237      46.7237      46.7237           90           90           90     102002.7    422.34471 
  517000       516500   -9790.9961    1259.7769   -11050.773    4381.1661   -15431.939    131.29203    445.10876    195.16614    -207.7349    13.923898    159.60932    28.345376      46.7237      46.7237      46.7237           90           90           90     102002.7       144.18 
  518000       517500   -9788.0309    1224.6193    -11012.65    4405.5796    -15418.23    127.62796   -144.06311    503.67008    345.03203     122.8906   -9.7742416   -318.74689      46.7237      46.7237      46.7237           90           90           90     102002.7    234.87967 
  519000       518500   -9785.4455    1253.7323   -11039.178    4401.2856   -15440.463    130.66207   -103.20269    409.71551   -40.570456    65.173633    -30.94628    209.65562      46.7237      46.7237      46.7237           90           90           90     102002.7    88.647454 
  520000       519500   -9786.3261    1250.2953   -11036.621    4371.0203   -15407.642    130.30387    724.38043    860.76524    540.18301    58.667514    364.60672    33.907477      46.7237      46.7237      46.7237           90           90           90     102002.7     708.4429 
  521000       520500    -9779.611    1254.4021   -11034.013    4367.4971    -15401.51    130.73187    414.02045    433.00564    500.63312    121.30154    86.232548    110.14279      46.7237      46.7237      46.7237           90           90           90     102002.7    449.21973 
  522000       521500    -9803.047    1239.3828    -11042.43    4394.2589   -15436.689    129.16658    653.51558    332.87757    1023.9276    30.660664    49.714939   -5.5937463      46.7237      46.7237      46.7237           90           90           90     102002.7    670.10692 
  523000       522500   -9842.1441    1212.3857    -11054.53    4369.5954   -15424.125    126.35299    265.83401    78.551816    635.98692   -104.79043     193.4676    71.033045      46.7237      46.7237      46.7237           90           90           90     102002.7    326.79092 
  524000       523500   -9788.1862    1238.8479   -11027.034    4411.2265   -15438.261    129.11084    834.67106    493.92016   -144.73419    80.674507    300.66759    258.82818      46.7237      46.7237      46.7237           90           90           90     102002.7    394.61901 
  525000       524500   -9811.6878    1241.0175   -11052.705    4375.0732   -15427.778    129.33695    747.29692   -90.467433   -303.50849    358.19523    406.27694   -31.992195      46.7237      46.7237      46.7237           90           90           90     102002.7    117.77367 
  526000       525500   -9810.4268     1234.195   -11044.622    4358.4394   -15403.061    128.62592     24.26924    469.98435    501.33682    183.06775    83.045379   -66.839178      46.7237      46.7237      46.7237           90           90           90     102002.7    331.86347 
  527000       526500   -9765.6733    1238.2931   -11003.966    4411.5074   -15415.474    129.05302    468.69988    105.01041    820.09735   -98.156205    -196.1436    125.20951      46.7237      46.7237      46.7237           90           90           90     102002.7    464.60255 
  528000       527500   -9789.9689    1224.0415    -11014.01    4390.4549   -15404.465    127.56774    198.49133    949.31348    537.28265   -213.20357   -105.01403   -64.631727      46.7237      46.7237      46.7237           90           90           90     102002.7    561.69582 
  529000       528500   -9717.9731    1292.4087   -11010.382    4401.1641   -15411.546    134.69287     256.8572    84.711906    170.97349   -135.52372   -87.116805    123.96799      46.7237      46.7237      46.7237           90           90           90     102002.7    170.84753 
  530000       529500   -9784.4837    1222.5156   -11006.999    4387.3706    -15394.37    127.40871    299.48112    60.263665    385.14336   -183.32419    116.48024    68.913657      46.7237      46.7237      46.7237           90           90           90     102002.7    248.29605 
  531000       530500   -9804.4356    1216.8078   -11021.243    4369.9983   -15391.242    126.81386    345.97019    174.49018    691.05098   -296.43744    91.509793    17.211555      46.7237      46.7237      46.7237           90           90           90     102002.7    403.83712 
  532000       531500   -9805.8386    1246.9186   -11052.757     4379.064   -15431.821    129.95196    66.390238   -365.76342    621.49655   -54.302851    158.57853    212.77073      46.7237      46.7237      46.7237           90           90           90     102002.7    107.37445 
  533000       532500   -9777.1443    1262.2366   -11039.381    4388.4213   -15427.802    131.54838    256.14623    163.82288    204.61523   -196.39536    387.71099    26.530773      46.7237      46.7237      46.7237           90           90           90     102002.7    208.19478 
  534000       533500   -9782.1865    1244.1342   -11026.321    4378.1158   -15404.436    129.66177    642.85332    280.89171    854.42178   -43.695476    66.137915   -83.437745      46.7237      46.7237      46.7237           90           90           90     102002.7    592.72227 
  535000       534500   -9821.1014    1233.6284    -11054.73     4377.962   -15432.692    128.56687    495.06315   -69.969055    15.011659   -14.708509   -97.215791   -202.52802      46.7237      46.7237      46.7237           90           90           90     102002.7    146.70192 
  536000       535500      -9752.6     1243.334   -10995.934    4402.6408   -15398.575    129.57837    101.89336   -129.97748    1116.8761    134.40143   -28.815691   -138.84782      46.7237      46.7237      46.7237           90           90           90     102002.7    362.93066 
  537000       536500   -9790.9476    1249.8254   -11040.773    4365.9273     -15406.7     130.2549    435.85277    244.80869    183.21715    109.29997   -42.687359    178.41277      46.7237      46.7237      46.7237           90           90           90     102002.7    287.95954 
  538000       537500   -9759.9531     1261.995   -11021.948    4398.5311   -15420.479     131.5232    406.74815    399.57637    379.65528   -325.43655    -218.7585     197.6759      46.7237      46.7237      46.7237           90           90           90     102002.7     395.3266 
  539000       538500   -9822.8541    1224.7253   -11047.579    4395.7369   -15443.316    127.63901    253.72286    231.32295    332.97137   -89.321076   -22.774526    34.118963      46.7237      46.7237      46.7237           90           90           90     102002.7    272.67239 
  540000       539500   -9832.2802    1220.6996    -11052.98    4387.3381   -15440.318    127.21945   -250.41581    934.04952    111.15712    41.180495   -134.22778    134.76972      46.7237      46.7237      46.7237           90           90           90     102002.7    264.93028 
  541000       540500   -9758.4507    1281.8179   -11040.269    4374.0948   -15414.363    133.58911    470.42183    289.95424    538.00868    8.4330344 -0.0015335351    276.82483      46.7237      46.7237      46.7237           90           90           90     102002.7    432.79492 
  542000       541500    -9763.475    1242.7659   -11006.241    4395.8856   -15402.127    129.51917    595.90647   -272.21719    271.92287    21.634606     -32.8166    -229.9554      46.7237      46.7237      46.7237           90           90           90     102002.7    198.53738 
  543000       542500   -9818.9093     1236.146   -11055.055    4381.5209   -15436.576    128.82925    157.53271    230.41706    214.87914   -124.94308   -247.32654   -68.829878      46.7237      46.7237      46.7237           90           90           90     102002.7    200.94297 
  544000       543500   -9778.0757    1268.3103   -11046.386    4369.5096   -15415.896    132.18137    299.79618    392.01694   -74.978709   -163.62714     47.68932   -190.13241      46.7237      46.7237      46.7237           90           90           90     102002.7    205.61147 
  545000       544500   -9761.4891    1251.3876   -11012.877    4397.4693   -15410.346    130.41771    545.70491    703.13605    52.263446   -53.240954    162.26086   -269.08258      46.7237      46.7237      46.7237           90           90           90     102002.7    433.70147 
  546000       545500   -9797.2588     1239.759   -11037.018    4387.5619    -15424.58    129.20579    702.20219    372.75794    165.90204    88.939414   -119.01962    49.165169      46.7237      46.7237      46.7237           90           90           90     102002.7    413.62072 
  547000       546500    -9753.596    1243.8641    -10997.46    4410.4292   -15407.889    129.63362    497.93461   -54.912401    58.642347    88.998644    51.668261   -18.947555      46.7237      46.7237      46.7237           90           90           90     102002.7    167.22152 
  548000       547500   -9798.6924    1228.3896   -11027.082     4382.044   -15409.126    128.02089    314.75222    35.670073    823.91392   -36.159601    355.71348    61.899075      46.7237      46.7237      46.7237           90           90           90     102002.7    391.44541 
  549000       548500   -9785.6792    1268.1715   -11053.851    4363.9572   -15417.808     132.1669    581.94343   -15.421162    556.93813    79.288438   -54.865265    51.914464      46.7237      46.7237      46.7237           90           90           90     102002.7     374.4868 
  550000       549500   -9824.8259    1206.8957   -11031.722    4404.0203   -15435.742    125.78083    375.29455    583.43456     84.24468   -179.75287   -56.876857    264.59311      46.7237      46.7237      46.7237           90           90           90     102002.7    347.65793 
  551000       550500   -9798.4702    1260.6621   -11059.132    4369.0741   -15428.206    131.38428    270.78893    426.39513     347.9623   -16.941554    135.64471   -11.674793      46.7237      46.7237      46.7237           90           90           90     102002.7    348.38212 
  552000       551500   -9818.9234    1254.9999   -11073.923    4361.1896   -15435.113    130.79418    388.47269    720.81548    317.43741     -107.751    63.522498    100.32747      46.7237      46.7237      46.7237           90           90           90     102002.7    475.57519 
  553000       552500   -9781.1415    1223.0918   -11004.233    4387.0182   -15391.251    127.46876    100.39313    606.63559    737.95006   -100.35697   -67.392547    92.844563      46.7237      46.7237      46.7237           90           90           90     102002.7    481.65959 
  554000       553500   -9772.0377    1236.1927    -11008.23    4384.3039   -15392.534    128.83412    95.536486    842.20492    944.74684    22.346997   -9.4729705   -128.21518      46.7237      46.7237      46.7237           90           90           90     102002.7    627.49608 
  555000       554500   -9808.3567    1235.6888   -11044.046    4362.1724   -15406.218    128.78161    966.53647    431.90431   -137.62006    73.101914   -61.599571    61.258872      46.7237      46.7237      46.7237           90           90           90     102002.7    420.27357 
[...]
  936000       935500   -9783.9302    1258.5065   -11042.437    4366.5613   -15408.998    131.15963    143.86413    391.91325    652.39477    188.43883    178.12894     290.1375      46.7237      46.7237      46.7237           90           90           90     102002.7    396.05738 
  937000       936500   -9774.1033    1250.3713   -11024.475      4384.17   -15408.645     130.3118    278.04756    479.73203    190.87565    60.754557    180.81619    158.46758      46.7237      46.7237      46.7237           90           90           90     102002.7    316.21841 
  938000       937500   -9804.0164    1239.7557   -11043.772    4368.0297   -15411.802    129.20545    169.50696    421.38357    239.50242    180.08741    75.244211   -422.30349      46.7237      46.7237      46.7237           90           90           90     102002.7    276.79765 
  939000       938500   -9766.6874    1284.2132   -11050.901    4373.4637   -15424.364    133.83874    399.81834   -333.92392   -24.589021    77.060128    234.20041    63.332221      46.7237      46.7237      46.7237           90           90           90     102002.7    13.768466 
  940000       939500   -9807.9494    1219.3622   -11027.312    4373.4039   -15400.715    127.08007    234.18362    791.94677   -68.768126   -48.076985    2.7955718    1.2562764      46.7237      46.7237      46.7237           90           90           90     102002.7    319.12076 
  941000       940500   -9786.1068     1250.221   -11036.328    4383.4755   -15419.803    130.29612    507.88491    347.60021     24.23797   -202.32388    27.939115    -28.86545      46.7237      46.7237      46.7237           90           90           90     102002.7    293.24103 
  942000       941500   -9826.0318     1229.844   -11055.876    4379.2433   -15435.119    128.17246  -0.47876713   -269.44684    407.99852    31.538375   -136.55064   -170.45258      46.7237      46.7237      46.7237           90           90           90     102002.7    46.024303 
  943000       942500   -9824.8708    1225.4475   -11050.318    4383.1742   -15433.493    127.71428   -24.213721    273.51171    425.47901   -165.08061    75.583835   -102.19913      46.7237      46.7237      46.7237           90           90           90     102002.7    224.92566 
  944000       943500   -9860.1776    1196.7922    -11056.97     4366.958   -15423.928    124.72786   -249.73846    232.02985    25.425085    115.53835   0.79934597    66.671403      46.7237      46.7237      46.7237           90           90           90     102002.7    2.5721571 
  945000       944500   -9827.4888    1223.7162   -11051.205     4371.752   -15422.957    127.53384    622.05981    127.74146    194.31368   -58.182702    357.92547    154.94464      46.7237      46.7237      46.7237           90           90           90     102002.7    314.70498 
  946000       945500   -9801.4798     1236.527   -11038.007    4389.2415   -15427.248    128.86896    103.00285    643.52786    45.838632    68.059795   -35.114002   -193.94251      46.7237      46.7237      46.7237           90           90           90     102002.7    264.12312 
  947000       946500    -9792.636    1252.3815   -11045.017    4387.7188   -15432.736    130.52129   -217.15247    326.08966    662.82174   -81.272947   -100.21883   -39.927528      46.7237      46.7237      46.7237           90           90           90     102002.7    257.25298 
  948000       947500   -9805.2276    1250.3672   -11055.595    4399.8036   -15455.398    130.31136   -83.839339    383.92806   -53.338433    105.96703   -119.71552     252.8537      46.7237      46.7237      46.7237           90           90           90     102002.7    82.250095 
  949000       948500   -9815.5057    1250.6463   -11066.152    4368.4403   -15434.592    130.34046     223.5921    64.822823    513.87111    10.390266    62.669077   -36.949856      46.7237      46.7237      46.7237           90           90           90     102002.7    267.42868 
  950000       949500   -9847.8719    1197.5487   -11045.421    4368.8619   -15414.283     124.8067    115.54374    350.67877    541.74465    95.323273    43.044061   -288.78712      46.7237      46.7237      46.7237           90           90           90     102002.7    335.98905 
  951000       950500   -9815.4635    1253.3965    -11068.86    4380.5411   -15449.401    130.62707    48.514241    625.89426      746.373    11.420037   -44.801941    35.963894      46.7237      46.7237      46.7237           90           90           90     102002.7    473.59383 
  952000       951500   -9772.5144     1261.991   -11034.505    4391.5925   -15426.098    131.52278    882.77415    365.59466    392.42644    -108.9752    75.306776    108.41044      46.7237      46.7237      46.7237           90           90           90     102002.7    546.93175 
  953000       952500   -9823.8644    1218.2101   -11042.075    4408.3244   -15450.399    126.96001    116.42795    239.69309    736.38092   -100.21451   -171.40999   -94.137648      46.7237      46.7237      46.7237           90           90           90     102002.7    364.16732 
  954000       953500   -9740.0227    1273.1238   -11013.147    4396.3541   -15409.501    132.68302    923.33543    326.94143    665.19829   -122.69394   -266.67774   -48.433148      46.7237      46.7237      46.7237           90           90           90     102002.7    638.49172 
  955000       954500   -9779.3454    1254.5555   -11033.901    4373.4392    -15407.34    130.74787    534.88593     361.9613    383.96511    -75.09517   -38.956898    5.7368736      46.7237      46.7237      46.7237           90           90           90     102002.7    426.93745 
  956000       955500   -9797.0218     1245.076   -11042.098    4364.4959   -15406.594    129.75992     957.9694    267.52397    1098.7221    285.95987   -367.89861   -126.00038      46.7237      46.7237      46.7237           90           90           90     102002.7    774.73848 
  957000       956500   -9793.7563     1249.151   -11042.907    4397.0079   -15439.915    130.18461    105.51602    193.88847    417.99471    145.92318   -185.73517    139.83987      46.7237      46.7237      46.7237           90           90           90     102002.7    239.13307 
  958000       957500   -9771.2703      1265.44    -11036.71    4371.9049   -15408.615    131.88223    358.53944    592.40117    213.34814   -102.56208     97.15458   -239.79561      46.7237      46.7237      46.7237           90           90           90     102002.7    388.09625 
  959000       958500   -9760.0948    1273.0355    -11033.13    4392.6921   -15425.822    132.67382    672.13398   -87.049379    422.37124    76.223668   -142.98218    110.69495      46.7237      46.7237      46.7237           90           90           90     102002.7    335.81861 
  960000       959500   -9743.0047    1252.2355    -10995.24    4410.8226   -15406.063    130.50607    264.77598    235.27049    564.42701    242.71065    209.68841    143.36402      46.7237      46.7237      46.7237           90           90           90     102002.7    354.82449 
  961000       960500   -9772.0879    1256.5814   -11028.669    4380.8201   -15409.489      130.959   -8.5899375     408.3513    281.50022    272.64819   -71.577339    197.73584      46.7237      46.7237      46.7237           90           90           90     102002.7    227.08719 
  962000       961500   -9751.9699    1254.6945   -11006.664     4409.146    -15415.81    130.76235     809.7388    158.73234   -44.932116    225.73695      214.376   -82.694873      46.7237      46.7237      46.7237           90           90           90     102002.7    307.84634 
  963000       962500   -9838.2251    1210.7991   -11049.024    4403.6553   -15452.679    126.18764   -112.09918     191.8399    66.082325   -103.47244    135.56914      32.8092      46.7237      46.7237      46.7237           90           90           90     102002.7    48.607682 
  964000       963500   -9752.6383    1275.2352   -11027.873    4387.8071   -15415.681    132.90307    366.34973    24.139896    413.30182   -76.272582    224.77876   -1.8304592      46.7237      46.7237      46.7237           90           90           90     102002.7    267.93048 
  965000       964500   -9767.1837    1252.1651   -11019.349    4398.2141   -15417.563    130.49873    614.78364    593.57301    782.48206   -102.52713   -260.26255   -16.125239      46.7237      46.7237      46.7237           90           90           90     102002.7     663.6129 
  966000       965500   -9778.0419     1259.012   -11037.054    4379.5117   -15416.566    131.21231      372.117    445.76473   -229.24545    166.62849    -281.8172    29.635816      46.7237      46.7237      46.7237           90           90           90     102002.7    196.21209 
  967000       966500   -9804.8853    1230.4764   -11035.362    4371.6239   -15406.986    128.23837    254.46452    295.61276   -302.83268   -71.453494    109.28804     1.725242      46.7237      46.7237      46.7237           90           90           90     102002.7    82.414868 
  968000       967500   -9788.0304    1244.9107   -11032.941    4363.6997   -15396.641     129.7427    -382.6646    545.07166     525.9691    38.892853    63.315266   -114.50359      46.7237      46.7237      46.7237           90           90           90     102002.7    229.45872 
  969000       968500   -9771.7928    1271.1137   -11042.907    4376.5794   -15419.486    132.47354   -22.819423    424.29438    678.81336    -43.15527    6.7624771    66.885558      46.7237      46.7237      46.7237           90           90           90     102002.7    360.09611 
  970000       969500   -9732.2203    1281.6435   -11013.864    4385.5713   -15399.435    133.57094    556.71833    159.90413    792.30623    31.488882   -5.6988522   -228.69147      46.7237      46.7237      46.7237           90           90           90     102002.7    502.97623 
  971000       970500   -9773.9357    1234.7185   -11008.654    4399.3485   -15408.003    128.68048    929.37717    545.34139    171.72822   -60.435159    79.822476   -29.045805      46.7237      46.7237      46.7237           90           90           90     102002.7    548.81559 
  972000       971500   -9807.9967    1245.5937    -11053.59    4363.3633   -15416.954    129.81388    11.871128    352.43348    520.03139    -11.28737   -69.496923   -38.253505      46.7237      46.7237      46.7237           90           90           90     102002.7    294.77866 
  973000       972500   -9783.1973     1255.414   -11038.611    4370.9565   -15409.568    130.83734    749.77298    184.34925    817.75285   -22.109785   -128.82534   -482.59558      46.7237      46.7237      46.7237           90           90           90     102002.7    583.95836 
  974000       973500   -9775.5298    1243.0458   -11018.576    4385.8923   -15404.468    129.54834    434.27647    647.87759    228.43835    114.05102   -15.015026    134.49791      46.7237      46.7237      46.7237           90           90           90     102002.7    436.86414 
  975000       974500   -9837.9512     1265.509    -11103.46    4353.0209   -15456.481    131.88942    22.425561    210.46675     864.2149    318.58179    14.591038   -94.615125      46.7237      46.7237      46.7237           90           90           90     102002.7     365.7024 
  976000       975500   -9784.0603    1261.7823   -11045.843      4358.47   -15404.313    131.50103     495.7298    724.26886    622.78452   -120.96497   -70.424131   -265.35345      46.7237      46.7237      46.7237           90           90           90     102002.7    614.26106 
  977000       976500   -9854.4951    1220.5657   -11075.061     4376.338   -15451.399     127.2055   -252.93022   -464.28648     479.5463    203.55183    238.79418    -176.9848      46.7237      46.7237      46.7237           90           90           90     102002.7   -79.223471 
  978000       977500   -9764.7775    1279.4499   -11044.227    4360.9286   -15405.156    133.34232     508.1601    75.690515    328.16742    60.754642     24.81371     254.0583      46.7237      46.7237      46.7237           90           90           90     102002.7    304.00601 
  979000       978500   -9774.8755    1243.5822   -11018.458     4400.197   -15418.655    129.60424    754.60885    527.51961    623.55675   -94.784788   -53.681329    211.61681      46.7237      46.7237      46.7237           90           90           90     102002.7     635.2284 
  980000       979500    -9850.293    1239.9433   -11090.236    4378.1332    -15468.37      129.225    394.78417   -198.77749     335.4868    153.32534    66.872787     78.55886      46.7237      46.7237      46.7237           90           90           90     102002.7    177.16449 
  981000       980500   -9793.6913     1253.038   -11046.729    4374.2146   -15420.944    130.58971    781.10278    131.51035    364.37334   -232.87601   -14.640069   -292.04969      46.7237      46.7237      46.7237           90           90           90     102002.7    425.66216 
  982000       981500   -9789.7261    1252.5326   -11042.259    4383.7116    -15425.97    130.53704     105.1834    97.622839    471.34026   -275.67504    -368.8731   -104.58068      46.7237      46.7237      46.7237           90           90           90     102002.7     224.7155 
  983000       982500   -9772.9991    1244.0211    -11017.02    4409.3902    -15426.41    129.64999    535.16106   -72.744453    165.90638   -80.283276    126.59945    140.91283      46.7237      46.7237      46.7237           90           90           90     102002.7      209.441 
  984000       983500   -9803.6096    1262.5911   -11066.201    4367.6623   -15433.863    131.58532    416.96391    746.01123      122.287   -118.75737   -70.237036   -139.63319      46.7237      46.7237      46.7237           90           90           90     102002.7    428.42071 
  985000       984500   -9784.4446    1258.6512   -11043.096    4376.6275   -15419.723    131.17471     578.7465   -203.72053    611.19401    -13.35247   -220.75291    40.865064      46.7237      46.7237      46.7237           90           90           90     102002.7       328.74 
  986000       985500   -9781.1353    1261.7632   -11042.898    4364.9823   -15407.881    131.49904    1144.2591    1095.4918    32.446089   -144.51513    178.28679    20.042794      46.7237      46.7237      46.7237           90           90           90     102002.7    757.39898 
  987000       986500   -9786.3866    1265.6461   -11052.033     4363.253   -15415.286    131.90371    715.87624    87.795385    575.37183    105.61291    357.71087    53.916482      46.7237      46.7237      46.7237           90           90           90     102002.7    459.68115 
  988000       987500   -9840.6299    1215.3229   -11055.953    4359.3052   -15415.258     126.6591    520.05307   -107.61809    742.90607   -169.77007   -204.95932   -114.39064      46.7237      46.7237      46.7237           90           90           90     102002.7    385.11368 
  989000       988500   -9789.5594    1252.5833   -11042.143    4393.2748   -15435.418    130.54232    409.16689    500.46448    125.59417    231.32204    35.649483    46.954245      46.7237      46.7237      46.7237           90           90           90     102002.7    345.07518 
  990000       989500   -9787.1933    1247.6446   -11034.838    4370.6261   -15405.464    130.02762   -412.71228     1320.022    461.63823    101.88773   -79.699546   -45.876434      46.7237      46.7237      46.7237           90           90           90     102002.7    456.31599 
  991000       990500   -9798.6929    1236.5668    -11035.26    4369.8352   -15405.095    128.87311    633.45247    646.72676    124.11269    274.31653   -145.79663   -243.45858      46.7237      46.7237      46.7237           90           90           90     102002.7    468.09731 
  992000       991500   -9805.6122    1230.1754   -11035.788    4374.7102   -15410.498    128.20701    661.92777    614.44343    955.60739    112.66262   -121.87495    120.72852      46.7237      46.7237      46.7237           90           90           90     102002.7    743.99287 
  993000       992500   -9807.1345    1251.1942   -11058.329    4344.5558   -15402.885    130.39755   -98.455756   -54.250524    357.21531    5.7438167   -80.300033    41.745805      46.7237      46.7237      46.7237           90           90           90     102002.7    68.169678 
  994000       993500   -9742.3529    1279.4607   -11021.814    4355.7678   -15377.581    133.34345    83.839674   -57.289859    366.71379     186.6312    159.54097    95.652683      46.7237      46.7237      46.7237           90           90           90     102002.7    131.08787 
  995000       994500   -9809.7938    1254.2652   -11064.059    4374.8521   -15438.911    130.71761    971.26976    576.90201    355.41164    8.6866878   -148.61376    397.91993      46.7237      46.7237      46.7237           90           90           90     102002.7     634.5278 
  996000       995500   -9822.9909    1224.3288    -11047.32    4350.6066   -15397.926    127.59768     128.7513    429.74198    241.70286    175.80238   -119.60639    135.82982      46.7237      46.7237      46.7237           90           90           90     102002.7    266.73204 
  997000       996500   -9737.8783     1264.856   -11002.734    4375.3704   -15378.105    131.82137    449.56422    956.90135    324.55898   -303.89019   -397.89709     125.6856      46.7237      46.7237      46.7237           90           90           90     102002.7    577.00818 
  998000       997500   -9810.2219    1247.9084    -11058.13    4352.0715   -15410.202    130.05511    727.04749    638.63737    1102.1402   -96.069225   -37.165745   -323.54593      46.7237      46.7237      46.7237           90           90           90     102002.7    822.60836 
  999000       998500   -9790.7381    1269.9716    -11060.71    4357.0081   -15417.718     132.3545    273.07847   -63.111497     751.6827    93.806217     232.0571   -79.511183      46.7237      46.7237      46.7237           90           90           90     102002.7    320.54989 
 1000000       999500   -9818.5915    1237.2228   -11055.814    4359.0907   -15414.905    128.94148    297.12343     149.5468    276.32298    135.45882    187.63975    244.01599      46.7237      46.7237      46.7237           90           90           90     102002.7    240.99774 
 1000500      1000000   -9803.0458    1230.3391   -11033.385    4376.3751    -15409.76    128.22407   -106.04017    330.34181    18.850902   -109.96461   -172.78106    171.64067      46.7237      46.7237      46.7237           90           90           90     102002.7    81.050848 
Loop time of 2396.17 on 16 procs for 500000 steps with 3220 atoms

Performance: 18.029 ns/day, 1.331 hours/ns, 208.667 timesteps/s
99.8% CPU use with 16 MPI tasks x no OpenMP threads

MPI task timing breakdown:
Section |  min time  |  avg time  |  max time  |%varavg| %total
---------------------------------------------------------------
Pair    | 1065.7     | 1482.3     | 1861.6     | 678.7 | 61.86
Bond    | 131.99     | 183.92     | 229.67     | 213.3 |  7.68
Neigh   | 18.546     | 18.588     | 18.651     |   0.6 |  0.78
Comm    | 263.89     | 679.64     | 1148.4     |1104.1 | 28.36
Output  | 0.13277    | 0.14129    | 0.14195    |   0.6 |  0.01
Modify  | 23.57      | 24.761     | 25.847     |  12.3 |  1.03
Other   |            | 6.792      |            |       |  0.28

Nlocal:    201.25 ave 227 max 162 min
Histogram: 1 0 3 0 2 1 2 1 2 4
Nghost:    4061.5 ave 4106 max 4028 min
Histogram: 1 3 1 3 1 2 3 1 0 1
Neighs:    11456.4 ave 18406 max 4071 min
Histogram: 1 0 4 2 0 2 1 3 2 1

Total # of neighbors = 183302
Ave neighs/atom = 56.9261
Ave special neighs/atom = 3.57764
Neighbor list builds = 5097
Dangerous builds = 0
Total wall time: 1:11:17
