LAMMPS (30 Mar 2018)
Reading data file ...
  orthogonal box = (0 0 0) to (46.7237 46.7237 46.7237)
  2 by 2 by 4 MPI processor grid
  reading atoms ...
  3187 atoms
  scanning bonds ...
  5 = max bonds/atom
  scanning angles ...
  10 = max angles/atom
  scanning dihedrals ...
  32 = max dihedrals/atom
  scanning impropers ...
  3 = max impropers/atom
  reading bonds ...
  2064 bonds
  reading angles ...
  3696 angles
  reading dihedrals ...
  6240 dihedrals
  reading impropers ...
  1008 impropers
Finding 1-2 1-3 1-4 neighbors ...
  special bond factors lj:   0          0          0         
  special bond factors coul: 0          0          0         
  5 = max # of 1-2 neighbors
  8 = max # of 1-3 neighbors
  20 = max # of 1-4 neighbors
  19 = max # of special neighbors
Finding 1-2 1-3 1-4 neighbors ...
  special bond factors lj:   0          0          1         
  special bond factors coul: 1          1          1         
  5 = max # of 1-2 neighbors
  8 = max # of 1-3 neighbors
  19 = max # of special neighbors
WARNING: Using 'neigh_modify every 1 delay 0 check yes' setting during minimization (../min.cpp:168)
Neighbor list info ...
  update every 1 steps, delay 0 steps, check yes
  max neighbors/atom: 2000, page size: 100000
  master list distance cutoff = 16
  ghost atom cutoff = 16
  binsize = 8, bins = 6 6 6
  3 neighbor lists, perpetual/occasional/extra = 3 0 0
  (1) pair buck6d/coul/gauss/dsf, perpetual, skip from (3)
      attributes: half, newton on
      pair build: skip
      stencil: none
      bin: none
  (2) pair lj/cut, perpetual, skip from (3)
      attributes: half, newton on
      pair build: skip
      stencil: none
      bin: none
  (3) neighbor class addition, perpetual
      attributes: half, newton on
      pair build: half/bin/newton
      stencil: half/bin/3d/newton
      bin: standard
Setting up cg style minimization ...
  Unit style    : real
  Current step  : 0
WARNING: Inconsistent image flags (../domain.cpp:786)
Per MPI rank memory allocation (min/avg/max) = 23.01 | 23.47 | 23.91 Mbytes
Step Temp E_pair E_mol TotEng Press 
       0            0   -15535.647    6482.8914    -9052.756    5793.7515 
     500            0    -15868.57    3759.2428   -12109.327   -2042.4627 
Loop time of 4.4927 on 16 procs for 500 steps with 3187 atoms

99.8% CPU use with 16 MPI tasks x no OpenMP threads

Minimization stats:
  Stopping criterion = max force evaluations
  Energy initial, next-to-last, final = 
        -9052.75602312       -12109.27074     -12109.3272618
  Force two-norm initial, final = 2575.05 10.5798
  Force max component initial, final = 152.121 1.66708
  Final line search alpha, max atom move = 0.00961399 0.0160273
  Iterations, force evaluations = 500 1000

MPI task timing breakdown:
Section |  min time  |  avg time  |  max time  |%varavg| %total
---------------------------------------------------------------
Pair    | 2.3578     | 2.9611     | 3.638      |  17.6 | 65.91
Bond    | 0.27517    | 0.35972    | 0.45066    |   8.8 |  8.01
Neigh   | 0.031146   | 0.031249   | 0.031382   |   0.0 |  0.70
Comm    | 0.38783    | 1.0934     | 1.7096     |  30.7 | 24.34
Output  | 0          | 0          | 0          |   0.0 |  0.00
Modify  | 0          | 0          | 0          |   0.0 |  0.00
Other   |            | 0.04722    |            |       |  1.05

Nlocal:    199.188 ave 234 max 183 min
Histogram: 5 2 2 2 1 2 0 1 0 1
Nghost:    3983 ave 4002 max 3953 min
Histogram: 2 0 0 1 1 2 4 2 3 1
Neighs:    11482.2 ave 18873 max 6980 min
Histogram: 1 2 3 3 5 0 0 1 0 1

Total # of neighbors = 183716
Ave neighs/atom = 57.6454
Ave special neighs/atom = 3.61468
Neighbor list builds = 9
Dangerous builds = 0
Neighbor list info ...
  update every 1 steps, delay 10 steps, check yes
  max neighbors/atom: 2000, page size: 100000
  master list distance cutoff = 16
  ghost atom cutoff = 16
  binsize = 8, bins = 6 6 6
  3 neighbor lists, perpetual/occasional/extra = 3 0 0
  (1) pair buck6d/coul/gauss/dsf, perpetual, skip from (3)
      attributes: half, newton on
      pair build: skip
      stencil: none
      bin: none
  (2) pair lj/cut, perpetual, skip from (3)
      attributes: half, newton on
      pair build: skip
      stencil: none
      bin: none
  (3) neighbor class addition, perpetual
      attributes: half, newton on
      pair build: half/bin/newton
      stencil: half/bin/3d/newton
      bin: standard
Setting up Verlet run ...
  Unit style    : real
  Current step  : 500
  Time step     : 1
WARNING: Inconsistent image flags (../domain.cpp:786)
Per MPI rank memory allocation (min/avg/max) = 22.66 | 22.78 | 23.44 Mbytes
Step Temp PotEng TotEng Press Volume Lx Ly Lz 
     500           91   -12109.327   -11245.113    -1655.167     102002.7      46.7237      46.7237      46.7237 
    1000     76.93209   -11395.061   -10664.447   -656.41161     102002.7      46.7237      46.7237      46.7237 
    2000     92.40996    -11257.63   -10380.026   -678.30225     102002.7      46.7237      46.7237      46.7237 
    3000     89.91868   -11296.345     -10442.4   -258.84912     102002.7      46.7237      46.7237      46.7237 
    4000    90.759975   -11284.407   -10422.472    -326.7214     102002.7      46.7237      46.7237      46.7237 
    5000    91.381362   -11282.813   -10414.977   -423.81472     102002.7      46.7237      46.7237      46.7237 
    6000    89.568478   -11294.025   -10443.406   -515.11778     102002.7      46.7237      46.7237      46.7237 
    7000    91.365483   -11299.588   -10431.903   -649.17815     102002.7      46.7237      46.7237      46.7237 
    8000    91.261923   -11282.912    -10416.21   -671.68706     102002.7      46.7237      46.7237      46.7237 
    9000    89.882182   -11285.253   -10431.654   -637.10154     102002.7      46.7237      46.7237      46.7237 
   10000    89.788301   -11301.402   -10448.695   -568.00391     102002.7      46.7237      46.7237      46.7237 
   11000    92.796707   -11304.462   -10423.185   -394.74796     102002.7      46.7237      46.7237      46.7237 
   12000    91.233429   -11298.831     -10432.4   -726.22445     102002.7      46.7237      46.7237      46.7237 
   13000    92.820696   -11290.794   -10409.289   -674.72278     102002.7      46.7237      46.7237      46.7237 
   14000    88.612052   -11274.921   -10433.385   -788.77155     102002.7      46.7237      46.7237      46.7237 
   15000    89.248039   -11299.694   -10452.118   -465.88578     102002.7      46.7237      46.7237      46.7237 
   16000    91.057399   -11307.401   -10442.641   -483.75571     102002.7      46.7237      46.7237      46.7237 
   17000     92.12201   -11302.255   -10427.386   -629.99572     102002.7      46.7237      46.7237      46.7237 
   18000    87.402018   -11298.618   -10468.573     -768.622     102002.7      46.7237      46.7237      46.7237 
   19000    91.802119   -11288.157   -10416.325   -581.36055     102002.7      46.7237      46.7237      46.7237 
   20000    88.796106   -11309.156   -10465.871   -516.81878     102002.7      46.7237      46.7237      46.7237 
   21000    90.318468   -11282.772    -10425.03   -476.59393     102002.7      46.7237      46.7237      46.7237 
   22000    89.590108   -11313.894    -10463.07   -478.18193     102002.7      46.7237      46.7237      46.7237 
   23000    92.060325   -11306.619   -10432.335   -457.86373     102002.7      46.7237      46.7237      46.7237 
   24000    93.299132   -11287.338   -10401.289    -451.0396     102002.7      46.7237      46.7237      46.7237 
   25000    90.248195   -11295.269   -10438.195   -132.91487     102002.7      46.7237      46.7237      46.7237 
   26000     88.99143   -11293.639   -10448.499   -621.11099     102002.7      46.7237      46.7237      46.7237 
   27000    92.205248   -11291.379   -10415.719   -550.84501     102002.7      46.7237      46.7237      46.7237 
   28000    95.352779    -11313.44   -10407.888   -578.19732     102002.7      46.7237      46.7237      46.7237 
   29000    90.889401   -11308.659   -10445.495    -652.4195     102002.7      46.7237      46.7237      46.7237 
   30000    91.383813   -11286.953   -10419.094   -494.43122     102002.7      46.7237      46.7237      46.7237 
   31000    91.501075   -11293.299   -10424.326   -346.42502     102002.7      46.7237      46.7237      46.7237 
   32000    90.906769   -11303.292   -10439.963   -530.98059     102002.7      46.7237      46.7237      46.7237 
   33000    89.751958   -11310.362       -10458   -379.87342     102002.7      46.7237      46.7237      46.7237 
   34000    90.771895   -11307.872   -10445.824   -421.40037     102002.7      46.7237      46.7237      46.7237 
   35000    92.945002   -11278.668   -10395.982   -610.65938     102002.7      46.7237      46.7237      46.7237 
   36000    91.477462   -11328.885   -10460.136   -692.87795     102002.7      46.7237      46.7237      46.7237 
   37000    91.358488   -11298.807   -10431.188   -514.74418     102002.7      46.7237      46.7237      46.7237 
   38000    90.109196   -11287.408   -10431.653   -618.43695     102002.7      46.7237      46.7237      46.7237 
   39000    91.450326   -11299.535   -10431.044   -503.75694     102002.7      46.7237      46.7237      46.7237 
   40000    89.631936   -11286.267   -10435.045   -810.74021     102002.7      46.7237      46.7237      46.7237 
   41000    88.492811   -11287.159   -10446.755    -721.7529     102002.7      46.7237      46.7237      46.7237 
   42000    91.893457    -11305.56   -10432.861   -560.23777     102002.7      46.7237      46.7237      46.7237 
   43000    90.951207   -11325.413   -10461.662   -474.93606     102002.7      46.7237      46.7237      46.7237 
   44000    88.798087   -11314.446   -10471.143    -669.5293     102002.7      46.7237      46.7237      46.7237 
   45000    93.322235    -11313.94   -10427.672   -397.73141     102002.7      46.7237      46.7237      46.7237 
   46000    90.866151       -11307   -10444.057   -628.86976     102002.7      46.7237      46.7237      46.7237 
   47000    91.318537   -11308.689   -10441.449   -528.61389     102002.7      46.7237      46.7237      46.7237 
   48000    92.492019   -11322.806   -10444.422   -503.73664     102002.7      46.7237      46.7237      46.7237 
   49000    90.861041   -11308.515    -10445.62   -858.53301     102002.7      46.7237      46.7237      46.7237 
   50000    91.634913   -11298.194    -10427.95   -771.75827     102002.7      46.7237      46.7237      46.7237 
   51000    90.335866   -11302.363   -10444.456   -563.97686     102002.7      46.7237      46.7237      46.7237 
   52000    92.131504   -11318.017   -10443.057   -930.47345     102002.7      46.7237      46.7237      46.7237 
   53000    91.856715   -11298.036   -10425.685   -871.66151     102002.7      46.7237      46.7237      46.7237 
   54000    88.779858   -11317.441   -10474.311   -578.41068     102002.7      46.7237      46.7237      46.7237 
   55000    91.976704   -11297.466   -10423.976    -626.0275     102002.7      46.7237      46.7237      46.7237 
   56000    90.483937   -11304.309   -10444.996   -566.27044     102002.7      46.7237      46.7237      46.7237 
   57000    91.254556   -11301.457   -10434.825   -389.11588     102002.7      46.7237      46.7237      46.7237 
   58000    90.554028    -11320.15   -10460.171   -583.02357     102002.7      46.7237      46.7237      46.7237 
   59000    91.200311   -11305.514   -10439.397   -518.13727     102002.7      46.7237      46.7237      46.7237 
   60000    90.050747   -11333.708   -10478.509   -520.98009     102002.7      46.7237      46.7237      46.7237 
   61000    89.245126   -11293.628    -10446.08   -731.78797     102002.7      46.7237      46.7237      46.7237 
   62000    91.777199    -11309.83   -10438.235   -528.42228     102002.7      46.7237      46.7237      46.7237 
   63000     90.61525   -11288.824   -10428.263   -673.78408     102002.7      46.7237      46.7237      46.7237 
   64000    90.658219   -11298.715   -10437.747   -570.63989     102002.7      46.7237      46.7237      46.7237 
   65000    89.730942   -11297.922    -10445.76   -598.52752     102002.7      46.7237      46.7237      46.7237 
   66000    90.622241   -11296.707    -10436.08   -691.57251     102002.7      46.7237      46.7237      46.7237 
   67000    92.664868   -11318.123   -10438.097   -500.07184     102002.7      46.7237      46.7237      46.7237 
   68000    91.450966   -11301.959   -10433.462   -385.77491     102002.7      46.7237      46.7237      46.7237 
   69000    91.447462   -11311.783   -10443.319   -415.88464     102002.7      46.7237      46.7237      46.7237 
   70000    90.226458   -11297.706   -10440.838   -207.01154     102002.7      46.7237      46.7237      46.7237 
   71000    93.557072   -11287.654   -10399.156   -550.13599     102002.7      46.7237      46.7237      46.7237 
   72000     90.43981   -11298.494   -10439.599   -314.01512     102002.7      46.7237      46.7237      46.7237 
   73000    88.636524   -11295.771   -10454.003   -340.64343     102002.7      46.7237      46.7237      46.7237 
   74000     90.06889   -11297.534   -10442.163   -676.40462     102002.7      46.7237      46.7237      46.7237 
   75000    91.231193   -11305.892   -10439.482   -545.27219     102002.7      46.7237      46.7237      46.7237 
   76000     92.06819   -11309.462   -10435.103   -549.20059     102002.7      46.7237      46.7237      46.7237 
   77000    90.686852   -11303.061    -10441.82   -570.43451     102002.7      46.7237      46.7237      46.7237 
   78000    92.082121   -11304.471    -10429.98    -513.4377     102002.7      46.7237      46.7237      46.7237 
   79000    91.591427   -11319.881    -10450.05   -602.97953     102002.7      46.7237      46.7237      46.7237 
   80000    92.844298   -11301.773   -10420.044   -323.44287     102002.7      46.7237      46.7237      46.7237 
   81000    90.653942   -11306.456   -10445.528     -414.861     102002.7      46.7237      46.7237      46.7237 
   82000    91.542761   -11289.028   -10419.659   -736.06028     102002.7      46.7237      46.7237      46.7237 
   83000    88.199689   -11313.302   -10475.682   -715.18246     102002.7      46.7237      46.7237      46.7237 
   84000    90.997363   -11307.219    -10443.03   -389.04114     102002.7      46.7237      46.7237      46.7237 
   85000    92.721941    -11320.14   -10439.573   -458.76795     102002.7      46.7237      46.7237      46.7237 
   86000     93.06471   -11314.564   -10430.741   -476.84613     102002.7      46.7237      46.7237      46.7237 
   87000    90.857385   -11305.415   -10442.555   -499.61155     102002.7      46.7237      46.7237      46.7237 
   88000    87.733671    -11310.55   -10477.355   -408.94398     102002.7      46.7237      46.7237      46.7237 
   89000    92.855362    -11307.79   -10425.955   -579.23055     102002.7      46.7237      46.7237      46.7237 
   90000    91.054452   -11334.634   -10469.903   -454.94492     102002.7      46.7237      46.7237      46.7237 
   91000    88.917167   -11318.695   -10474.261   -376.92143     102002.7      46.7237      46.7237      46.7237 
   92000    90.152212   -11299.415   -10443.252   -374.33696     102002.7      46.7237      46.7237      46.7237 
   93000    91.194086   -11295.925   -10429.867     -487.273     102002.7      46.7237      46.7237      46.7237 
   94000    92.732249   -11299.855    -10419.19   -653.28727     102002.7      46.7237      46.7237      46.7237 
   95000    95.434168   -11332.064   -10425.739   -393.53467     102002.7      46.7237      46.7237      46.7237 
   96000    91.210273   -11294.823   -10428.612   -553.62717     102002.7      46.7237      46.7237      46.7237 
   97000    88.335672   -11306.168   -10467.257   -519.10672     102002.7      46.7237      46.7237      46.7237 
   98000    93.736899   -11329.159   -10438.952   -419.97697     102002.7      46.7237      46.7237      46.7237 
   99000    88.686278   -11306.931    -10464.69   -563.76249     102002.7      46.7237      46.7237      46.7237 
  100000    90.745345   -11296.364   -10434.568   -535.35849     102002.7      46.7237      46.7237      46.7237 
  101000    94.092766   -11308.395   -10414.809   -739.09328     102002.7      46.7237      46.7237      46.7237 
  102000    91.959195   -11306.457   -10433.133   -389.26757     102002.7      46.7237      46.7237      46.7237 
  103000    89.795806   -11312.106   -10459.328   -143.48718     102002.7      46.7237      46.7237      46.7237 
  104000    92.815316   -11298.559   -10417.105   -269.00472     102002.7      46.7237      46.7237      46.7237 
  105000    92.972672       -11313   -10430.051   -534.91965     102002.7      46.7237      46.7237      46.7237 
  106000    91.896298   -11311.187    -10438.46   -471.09318     102002.7      46.7237      46.7237      46.7237 
  107000    88.456892   -11320.411   -10480.348   -816.09249     102002.7      46.7237      46.7237      46.7237 
  108000    91.741509   -11308.339   -10437.082   -88.430341     102002.7      46.7237      46.7237      46.7237 
  109000    89.840295   -11310.492   -10457.292   -222.70161     102002.7      46.7237      46.7237      46.7237 
  110000    90.171597   -11294.945   -10438.597   -797.89757     102002.7      46.7237      46.7237      46.7237 
  111000    89.149577    -11315.67   -10469.029   -571.51124     102002.7      46.7237      46.7237      46.7237 
  112000    90.706355   -11302.058   -10440.632   -592.71725     102002.7      46.7237      46.7237      46.7237 
  113000    92.236572   -11328.789   -10452.831   -599.61003     102002.7      46.7237      46.7237      46.7237 
  114000    90.510975   -11304.947   -10445.377   -424.00894     102002.7      46.7237      46.7237      46.7237 
  115000    91.722149   -11330.741   -10459.669   -613.36408     102002.7      46.7237      46.7237      46.7237 
  116000    91.337339   -11322.849   -10455.431   -497.18846     102002.7      46.7237      46.7237      46.7237 
  117000    92.139983   -11311.879   -10436.838   -432.48481     102002.7      46.7237      46.7237      46.7237 
  118000    93.016208   -11294.743   -10411.381   -440.77558     102002.7      46.7237      46.7237      46.7237 
  119000    89.727263   -11296.958   -10444.831   -491.66163     102002.7      46.7237      46.7237      46.7237 
  120000    89.694389   -11307.266    -10455.45   -350.37979     102002.7      46.7237      46.7237      46.7237 
  121000    92.845386   -11295.557   -10413.817   -561.49167     102002.7      46.7237      46.7237      46.7237 
  122000    90.838478   -11325.607   -10462.926   -747.77218     102002.7      46.7237      46.7237      46.7237 
  123000    91.930789   -11305.947   -10432.893   -356.59481     102002.7      46.7237      46.7237      46.7237 
  124000    92.062577   -11312.838   -10438.532    -526.4826     102002.7      46.7237      46.7237      46.7237 
  125000    94.243376   -11337.287   -10442.271   -280.69741     102002.7      46.7237      46.7237      46.7237 
  126000    92.034457   -11307.369   -10433.331   -565.79135     102002.7      46.7237      46.7237      46.7237 
  127000    92.121872   -11326.347   -10451.478   -811.00975     102002.7      46.7237      46.7237      46.7237 
  128000    92.086801   -11315.229   -10440.694   -762.20776     102002.7      46.7237      46.7237      46.7237 
  129000    90.264319   -11320.068   -10462.841   -601.82151     102002.7      46.7237      46.7237      46.7237 
  130000    92.360855   -11317.347   -10440.209   -496.58594     102002.7      46.7237      46.7237      46.7237 
  131000    90.324044   -11328.585    -10470.79   -556.98015     102002.7      46.7237      46.7237      46.7237 
  132000    89.224466   -11309.592    -10462.24   -654.56074     102002.7      46.7237      46.7237      46.7237 
  133000     88.32439    -11334.52   -10495.715   -929.51292     102002.7      46.7237      46.7237      46.7237 
  134000    91.515016   -11309.598   -10440.492   -423.38905     102002.7      46.7237      46.7237      46.7237 
  135000    88.837717   -11322.591   -10478.911   -691.76593     102002.7      46.7237      46.7237      46.7237 
  136000    89.787512    -11296.12   -10443.421   -405.48667     102002.7      46.7237      46.7237      46.7237 
  137000    89.753136   -11317.966   -10465.593   -325.46541     102002.7      46.7237      46.7237      46.7237 
  138000    91.151713   -11312.341   -10446.686   -594.90773     102002.7      46.7237      46.7237      46.7237 
  139000    90.522757   -11300.401   -10440.719   -693.11573     102002.7      46.7237      46.7237      46.7237 
  140000     90.27201    -11300.45    -10443.15   -513.13057     102002.7      46.7237      46.7237      46.7237 
  141000    89.333947   -11311.467   -10463.075     -397.144     102002.7      46.7237      46.7237      46.7237 
  142000    89.930552   -11324.313   -10470.256   -429.81284     102002.7      46.7237      46.7237      46.7237 
  143000    90.572252   -11316.664   -10456.512   -654.09596     102002.7      46.7237      46.7237      46.7237 
  144000     90.12591   -11314.796   -10458.883   -592.93381     102002.7      46.7237      46.7237      46.7237 
  145000    92.892229   -11311.471   -10429.287   -185.59971     102002.7      46.7237      46.7237      46.7237 
  146000    90.733273   -11329.317   -10467.635   -548.07187     102002.7      46.7237      46.7237      46.7237 
  147000    94.895729   -11302.462    -10401.25   -370.63386     102002.7      46.7237      46.7237      46.7237 
  148000     91.44035   -11309.317   -10440.921   -425.63129     102002.7      46.7237      46.7237      46.7237 
  149000    91.867638   -11307.769   -10435.315   -728.90013     102002.7      46.7237      46.7237      46.7237 
  150000    94.409902   -11314.858    -10418.26   -271.12241     102002.7      46.7237      46.7237      46.7237 
  151000    92.695001   -11327.609   -10447.298   -649.58895     102002.7      46.7237      46.7237      46.7237 
  152000    89.306614   -11306.239   -10458.106   -571.43243     102002.7      46.7237      46.7237      46.7237 
  153000    89.023763   -11330.405   -10484.958   -656.81179     102002.7      46.7237      46.7237      46.7237 
  154000    91.626815   -11300.686   -10430.519   -733.49156     102002.7      46.7237      46.7237      46.7237 
  155000    92.494506    -11331.77   -10453.362   -525.97024     102002.7      46.7237      46.7237      46.7237 
  156000    89.774228   -11294.975   -10442.402   -569.38792     102002.7      46.7237      46.7237      46.7237 
  157000    91.336178   -11318.856   -10451.449   -482.13783     102002.7      46.7237      46.7237      46.7237 
  158000    92.640812   -11332.926   -10453.129   -558.69377     102002.7      46.7237      46.7237      46.7237 
  159000    93.846438   -11324.343   -10433.097   -624.15383     102002.7      46.7237      46.7237      46.7237 
  160000    91.143678   -11312.096   -10446.517   -585.37746     102002.7      46.7237      46.7237      46.7237 
  161000    91.962984   -11327.092   -10453.732   -628.83201     102002.7      46.7237      46.7237      46.7237 
  162000    88.036751   -11303.549   -10467.477   -698.08207     102002.7      46.7237      46.7237      46.7237 
  163000    91.842871    -11307.21   -10434.991   -609.99175     102002.7      46.7237      46.7237      46.7237 
  164000    89.240871   -11305.128    -10457.62   -514.20907     102002.7      46.7237      46.7237      46.7237 
  165000    88.833974    -11312.69   -10469.046   -568.71392     102002.7      46.7237      46.7237      46.7237 
  166000    91.947648   -11306.598   -10433.384   -417.59038     102002.7      46.7237      46.7237      46.7237 
  167000    90.523935   -11316.355   -10456.662   -652.87403     102002.7      46.7237      46.7237      46.7237 
  168000    90.921908   -11300.941   -10437.468   -365.29606     102002.7      46.7237      46.7237      46.7237 
  169000    92.843389   -11317.663   -10435.942   -247.45762     102002.7      46.7237      46.7237      46.7237 
  170000    92.566973   -11308.314   -10429.218   -493.67812     102002.7      46.7237      46.7237      46.7237 
  171000     91.72932   -11310.829   -10439.689   -496.25514     102002.7      46.7237      46.7237      46.7237 
  172000     88.12632    -11307.49   -10470.567   -509.76645     102002.7      46.7237      46.7237      46.7237 
  173000    89.695625   -11315.154   -10463.327   -531.20927     102002.7      46.7237      46.7237      46.7237 
  174000    92.336752    -11299.84   -10422.931   -586.51028     102002.7      46.7237      46.7237      46.7237 
  175000    90.228711   -11323.495   -10466.606    -694.5977     102002.7      46.7237      46.7237      46.7237 
  176000    90.301037    -11302.89   -10445.314   -507.69421     102002.7      46.7237      46.7237      46.7237 
  177000    91.104363   -11289.088   -10423.883   -371.45975     102002.7      46.7237      46.7237      46.7237 
  178000    93.504787   -11303.556   -10415.554   -369.21763     102002.7      46.7237      46.7237      46.7237 
  179000    92.803231    -11321.97    -10440.63   -697.86725     102002.7      46.7237      46.7237      46.7237 
  180000    90.804372   -11298.138   -10435.781    -541.1008     102002.7      46.7237      46.7237      46.7237 
  181000    91.312576   -11321.051   -10453.868   -586.72056     102002.7      46.7237      46.7237      46.7237 
  182000    89.625109   -11318.466   -10467.308   -620.66915     102002.7      46.7237      46.7237      46.7237 
  183000    90.952355   -11302.232    -10438.47   -794.24387     102002.7      46.7237      46.7237      46.7237 
  184000      92.6882    -11335.47   -10455.223   -666.55052     102002.7      46.7237      46.7237      46.7237 
  185000    92.213394    -11303.79   -10428.052   -698.82045     102002.7      46.7237      46.7237      46.7237 
  186000    89.558771   -11318.001   -10467.474   -586.60967     102002.7      46.7237      46.7237      46.7237 
  187000    90.526428   -11298.739   -10439.022   -596.67016     102002.7      46.7237      46.7237      46.7237 
  188000    90.113392   -11314.907   -10459.112   -665.52667     102002.7      46.7237      46.7237      46.7237 
  189000    91.757816   -11314.556   -10443.145   -894.25263     102002.7      46.7237      46.7237      46.7237 
  190000    90.865511   -11319.477    -10456.54   -636.14577     102002.7      46.7237      46.7237      46.7237 
  191000    90.614403   -11321.333   -10460.781   -402.91232     102002.7      46.7237      46.7237      46.7237 
  192000     89.88535   -11340.017   -10486.388   -805.32076     102002.7      46.7237      46.7237      46.7237 
  193000    93.331942   -11291.971   -10405.611   -899.47992     102002.7      46.7237      46.7237      46.7237 
  194000     87.91002   -11314.768   -10479.899   -791.61824     102002.7      46.7237      46.7237      46.7237 
  195000    92.386718    -11314.87   -10437.486   -509.42289     102002.7      46.7237      46.7237      46.7237 
  196000    91.413961   -11328.755    -10460.61   -662.12696     102002.7      46.7237      46.7237      46.7237 
  197000    90.792516    -11330.62   -10468.376   -586.05885     102002.7      46.7237      46.7237      46.7237 
  198000    94.152304   -11324.874   -10430.722   -461.45477     102002.7      46.7237      46.7237      46.7237 
  199000    90.597623   -11298.304   -10437.911   -505.18036     102002.7      46.7237      46.7237      46.7237 
  200000    90.004036   -11313.011   -10458.256   -368.67701     102002.7      46.7237      46.7237      46.7237 
  201000    90.614394   -11305.756   -10445.204    -841.8704     102002.7      46.7237      46.7237      46.7237 
  202000     91.67927   -11316.952   -10446.287   -553.93736     102002.7      46.7237      46.7237      46.7237 
  203000    89.330244   -11308.127    -10459.77   -549.96981     102002.7      46.7237      46.7237      46.7237 
  204000    91.442445   -11299.829   -10431.413    -832.7205     102002.7      46.7237      46.7237      46.7237 
  205000    90.376614    -11320.29   -10461.996   -478.77771     102002.7      46.7237      46.7237      46.7237 
  206000    91.490951   -11314.925   -10446.048   -532.47313     102002.7      46.7237      46.7237      46.7237 
  207000    88.255954   -11330.375    -10492.22   -378.57551     102002.7      46.7237      46.7237      46.7237 
  208000    90.663005   -11318.876   -10457.863   -240.45478     102002.7      46.7237      46.7237      46.7237 
  209000    92.596037   -11312.426   -10433.054   -438.50113     102002.7      46.7237      46.7237      46.7237 
  210000    89.203387   -11329.602    -10482.45   -624.24104     102002.7      46.7237      46.7237      46.7237 
  211000    90.178111   -11307.867   -10451.458   -693.62866     102002.7      46.7237      46.7237      46.7237 
  212000    90.021421   -11315.575   -10460.654   -513.70939     102002.7      46.7237      46.7237      46.7237 
  213000    91.918065   -11320.699   -10447.766   -311.08713     102002.7      46.7237      46.7237      46.7237 
  214000     87.68422   -11324.643   -10491.918   -762.31756     102002.7      46.7237      46.7237      46.7237 
  215000    90.850837    -11332.15   -10469.353   -706.59074     102002.7      46.7237      46.7237      46.7237 
  216000    89.750139   -11321.733   -10469.389   -809.64046     102002.7      46.7237      46.7237      46.7237 
  217000    91.833673   -11317.412    -10445.28   -652.13528     102002.7      46.7237      46.7237      46.7237 
  218000    91.099886   -11308.879   -10443.716   -642.85718     102002.7      46.7237      46.7237      46.7237 
  219000    91.532157   -11262.537   -10393.269   -549.64708     102002.7      46.7237      46.7237      46.7237 
  220000    92.181116    -11325.21   -10449.778   -809.44053     102002.7      46.7237      46.7237      46.7237 
  221000    93.769672   -11304.938   -10414.421   -681.09362     102002.7      46.7237      46.7237      46.7237 
  222000    93.140409   -11301.333   -10416.791   -443.89456     102002.7      46.7237      46.7237      46.7237 
  223000    91.556529   -11315.135   -10445.636   -538.26982     102002.7      46.7237      46.7237      46.7237 
  224000    91.087662   -11311.305   -10446.258   -502.34209     102002.7      46.7237      46.7237      46.7237 
  225000    88.917828   -11314.672   -10470.232   -775.10263     102002.7      46.7237      46.7237      46.7237 
  226000    89.880016   -11310.962   -10457.384   -692.80031     102002.7      46.7237      46.7237      46.7237 
  227000    89.741127    -11308.66   -10456.401   -248.15114     102002.7      46.7237      46.7237      46.7237 
  228000    93.536824   -11305.188   -10416.882   -558.25943     102002.7      46.7237      46.7237      46.7237 
  229000     89.34811   -11319.123   -10470.597   -442.70144     102002.7      46.7237      46.7237      46.7237 
  230000    89.781739   -11299.874    -10447.23   -399.35962     102002.7      46.7237      46.7237      46.7237 
  231000    92.029649   -11309.304   -10435.311   -548.61283     102002.7      46.7237      46.7237      46.7237 
  232000    91.260979   -11320.482   -10453.789   -565.89219     102002.7      46.7237      46.7237      46.7237 
  233000    91.302929   -11303.306   -10436.215    -598.6915     102002.7      46.7237      46.7237      46.7237 
  234000    89.909875   -11317.747   -10463.885   -451.83466     102002.7      46.7237      46.7237      46.7237 
  235000    89.512062   -11316.298   -10466.214   -699.07121     102002.7      46.7237      46.7237      46.7237 
  236000    89.326079   -11315.383   -10467.066   -276.66572     102002.7      46.7237      46.7237      46.7237 
  237000    88.047646   -11302.222   -10466.046   -491.92009     102002.7      46.7237      46.7237      46.7237 
  238000    91.243892   -11313.716   -10447.186   -782.44482     102002.7      46.7237      46.7237      46.7237 
  239000    91.895822   -11318.322     -10445.6   -672.67187     102002.7      46.7237      46.7237      46.7237 
  240000    91.548058   -11318.783   -10449.364    -733.6769     102002.7      46.7237      46.7237      46.7237 
  241000    90.755047   -11296.643   -10434.755   -516.97927     102002.7      46.7237      46.7237      46.7237 
  242000    90.072757   -11330.921   -10475.513   -704.74772     102002.7      46.7237      46.7237      46.7237 
  243000    90.809132   -11305.552    -10443.15   -777.90048     102002.7      46.7237      46.7237      46.7237 
  244000    89.285966   -11319.395   -10471.459   -668.85727     102002.7      46.7237      46.7237      46.7237 
  245000    92.812401    -11301.09   -10419.663   -340.78852     102002.7      46.7237      46.7237      46.7237 
  246000    91.485745   -11298.161   -10429.333   -610.07402     102002.7      46.7237      46.7237      46.7237 
  247000    90.268845   -11319.184   -10461.914   -819.58478     102002.7      46.7237      46.7237      46.7237 
  248000    91.382117   -11321.882   -10454.038   -345.02008     102002.7      46.7237      46.7237      46.7237 
  249000    91.608195   -11339.572   -10469.582   -696.11174     102002.7      46.7237      46.7237      46.7237 
  250000    89.229505   -11292.048   -10444.648   -770.31314     102002.7      46.7237      46.7237      46.7237 
  251000    90.565837   -11315.036   -10454.945   -504.78716     102002.7      46.7237      46.7237      46.7237 
  252000    89.257946   -11292.442   -10444.772   -708.95019     102002.7      46.7237      46.7237      46.7237 
  253000    89.672213   -11315.656   -10464.052   -685.57658     102002.7      46.7237      46.7237      46.7237 
  254000    91.790444   -11321.841    -10450.12   -758.39368     102002.7      46.7237      46.7237      46.7237 
  255000    90.466937   -11335.796   -10476.644   -544.15644     102002.7      46.7237      46.7237      46.7237 
  256000    92.688939   -11341.921   -10461.667   -362.21001     102002.7      46.7237      46.7237      46.7237 
  257000    93.587418   -11309.442   -10420.655   -642.93267     102002.7      46.7237      46.7237      46.7237 
  258000    91.659649   -11326.987   -10456.508   -849.10858     102002.7      46.7237      46.7237      46.7237 
  259000    90.817977   -11319.005   -10456.519   -684.08066     102002.7      46.7237      46.7237      46.7237 
  260000    89.896856   -11316.836   -10463.099   -995.19326     102002.7      46.7237      46.7237      46.7237 
  261000      89.8617   -11299.896   -10446.492   -545.62517     102002.7      46.7237      46.7237      46.7237 
  262000    89.719214   -11329.041    -10476.99   -614.01826     102002.7      46.7237      46.7237      46.7237 
  263000    93.605864   -11315.211   -10426.249   -358.83937     102002.7      46.7237      46.7237      46.7237 
  264000    91.393132   -11298.749   -10430.801   -776.09865     102002.7      46.7237      46.7237      46.7237 
  265000    90.359874    -11315.19   -10457.055   -827.19058     102002.7      46.7237      46.7237      46.7237 
  266000    92.578465   -11317.412   -10438.208   -736.17259     102002.7      46.7237      46.7237      46.7237 
  267000    89.818768   -11313.119   -10460.122   -770.71664     102002.7      46.7237      46.7237      46.7237 
  268000    91.058484   -11328.367   -10463.597   -526.24297     102002.7      46.7237      46.7237      46.7237 
  269000    89.161847   -11313.515   -10466.757   -708.21911     102002.7      46.7237      46.7237      46.7237 
  270000    93.116721     -11309.8   -10425.483   -599.11032     102002.7      46.7237      46.7237      46.7237 
  271000    92.877058   -11320.759   -10438.719   -512.05382     102002.7      46.7237      46.7237      46.7237 
  272000    91.249404   -11327.965   -10461.382   -532.42446     102002.7      46.7237      46.7237      46.7237 
  273000    88.276282   -11323.318   -10484.971   -664.39375     102002.7      46.7237      46.7237      46.7237 
  274000    88.100827   -11305.336   -10468.655   -754.02062     102002.7      46.7237      46.7237      46.7237 
  275000    90.595143   -11305.201   -10444.831   -755.05835     102002.7      46.7237      46.7237      46.7237 
  276000    91.240884   -11325.925   -10459.423   -575.10921     102002.7      46.7237      46.7237      46.7237 
  277000    91.182257   -11319.948   -10454.003   -610.88121     102002.7      46.7237      46.7237      46.7237 
  278000    92.388548   -11296.228   -10418.826   -899.29604     102002.7      46.7237      46.7237      46.7237 
  279000    91.900196   -11326.071   -10453.307    -936.6786     102002.7      46.7237      46.7237      46.7237 
  280000    89.270903   -11308.167   -10460.373   -810.47413     102002.7      46.7237      46.7237      46.7237 
  281000    91.243221   -11311.216   -10444.692   -621.12254     102002.7      46.7237      46.7237      46.7237 
  282000    90.749461   -11317.484   -10455.649   -824.08216     102002.7      46.7237      46.7237      46.7237 
  283000    89.430349   -11318.038   -10468.731   -825.76095     102002.7      46.7237      46.7237      46.7237 
  284000    91.300377   -11302.882   -10435.815   -589.56022     102002.7      46.7237      46.7237      46.7237 
  285000     91.24333   -11309.629   -10443.104   -655.00566     102002.7      46.7237      46.7237      46.7237 
  286000    90.816219   -11310.249    -10447.78   -549.21948     102002.7      46.7237      46.7237      46.7237 
  287000    90.576772   -11293.738   -10433.543   -583.60289     102002.7      46.7237      46.7237      46.7237 
  288000    90.686435   -11289.467    -10428.23   -640.64136     102002.7      46.7237      46.7237      46.7237 
  289000    93.375945   -11315.299    -10428.52   -543.44205     102002.7      46.7237      46.7237      46.7237 
  290000     90.90672   -11306.501   -10443.173   -220.82019     102002.7      46.7237      46.7237      46.7237 
  291000    90.148448   -11312.601   -10456.474   -361.13985     102002.7      46.7237      46.7237      46.7237 
  292000    93.166923   -11319.025   -10434.232   -588.11617     102002.7      46.7237      46.7237      46.7237 
  293000    93.130896    -11304.42   -10419.969   -474.39859     102002.7      46.7237      46.7237      46.7237 
  294000    90.806328   -11313.804   -10451.429    -688.6876     102002.7      46.7237      46.7237      46.7237 
  295000    91.718975   -11314.482   -10443.439   -750.33103     102002.7      46.7237      46.7237      46.7237 
  296000    91.285118   -11333.264   -10466.342   -674.70801     102002.7      46.7237      46.7237      46.7237 
  297000    91.930613   -11319.601   -10446.549   -756.59388     102002.7      46.7237      46.7237      46.7237 
  298000    90.667504   -11337.475   -10476.419   -716.21188     102002.7      46.7237      46.7237      46.7237 
  299000    91.046969   -11332.975   -10468.314   -725.22434     102002.7      46.7237      46.7237      46.7237 
  300000    90.761669   -11316.696   -10454.745   -620.49984     102002.7      46.7237      46.7237      46.7237 
  301000     91.25798   -11336.426   -10469.761    -815.7233     102002.7      46.7237      46.7237      46.7237 
  302000    90.121924   -11294.839   -10438.963   -733.98076     102002.7      46.7237      46.7237      46.7237 
  303000    88.771895   -11304.816   -10461.762   -621.75131     102002.7      46.7237      46.7237      46.7237 
  304000    90.028018   -11311.446   -10456.462   -435.53562     102002.7      46.7237      46.7237      46.7237 
  305000    92.436723   -11337.861   -10460.003   -793.68535     102002.7      46.7237      46.7237      46.7237 
  306000    90.426986   -11313.351   -10454.578   -721.30051     102002.7      46.7237      46.7237      46.7237 
  307000    91.914234   -11321.406    -10448.51    -563.3603     102002.7      46.7237      46.7237      46.7237 
  308000    91.079994    -11307.67   -10442.696   -702.15932     102002.7      46.7237      46.7237      46.7237 
  309000    91.678729   -11338.892   -10468.232   -439.54105     102002.7      46.7237      46.7237      46.7237 
  310000    90.617645   -11327.541   -10466.957   -540.77129     102002.7      46.7237      46.7237      46.7237 
  311000    90.504088   -11300.691   -10441.186   -672.99905     102002.7      46.7237      46.7237      46.7237 
  312000    90.951193   -11335.218   -10471.467    -750.2249     102002.7      46.7237      46.7237      46.7237 
  313000    89.642954   -11316.613   -10465.286   -792.79121     102002.7      46.7237      46.7237      46.7237 
  314000    93.611812   -11313.255   -10424.236   -696.35439     102002.7      46.7237      46.7237      46.7237 
  315000    90.278961   -11332.337   -10474.971   -758.15698     102002.7      46.7237      46.7237      46.7237 
  316000    91.364759   -11318.076   -10450.397   -976.06344     102002.7      46.7237      46.7237      46.7237 
  317000    90.574763   -11331.881   -10471.705   -716.79872     102002.7      46.7237      46.7237      46.7237 
  318000    90.468905   -11319.272   -10460.102   -688.00556     102002.7      46.7237      46.7237      46.7237 
  319000     90.16332   -11297.241   -10440.973   -770.52577     102002.7      46.7237      46.7237      46.7237 
  320000    91.615838   -11316.758   -10446.695   -400.54574     102002.7      46.7237      46.7237      46.7237 
  321000    91.218304   -11303.717    -10437.43   -451.69832     102002.7      46.7237      46.7237      46.7237 
  322000    91.226284   -11321.848   -10455.485   -778.84686     102002.7      46.7237      46.7237      46.7237 
  323000    90.832313   -11306.264   -10443.642   -443.24364     102002.7      46.7237      46.7237      46.7237 
  324000    90.795119   -11335.234   -10472.965   -594.80603     102002.7      46.7237      46.7237      46.7237 
  325000    90.375592   -11318.852   -10460.568   -562.23814     102002.7      46.7237      46.7237      46.7237 
  326000    93.751742   -11313.006   -10422.659    -375.2711     102002.7      46.7237      46.7237      46.7237 
  327000    92.978054    -11318.95    -10435.95   -521.62256     102002.7      46.7237      46.7237      46.7237 
  328000      90.1399   -11322.389   -10466.343   -534.08632     102002.7      46.7237      46.7237      46.7237 
  329000    92.804589   -11343.091   -10461.739   -707.72491     102002.7      46.7237      46.7237      46.7237 
  330000    90.488439   -11324.358   -10465.001   -702.32681     102002.7      46.7237      46.7237      46.7237 
  331000    92.419332    -11290.71   -10413.016    -337.6232     102002.7      46.7237      46.7237      46.7237 
  332000    88.606877    -11335.77   -10494.283   -551.88794     102002.7      46.7237      46.7237      46.7237 
  333000    88.494527   -11318.643   -10478.223    -465.5946     102002.7      46.7237      46.7237      46.7237 
  334000    91.569051   -11337.695   -10468.076   -676.95044     102002.7      46.7237      46.7237      46.7237 
  335000    89.431886     -11327.7   -10478.377   -574.35736     102002.7      46.7237      46.7237      46.7237 
  336000    89.602581   -11326.447   -10475.503   -852.33503     102002.7      46.7237      46.7237      46.7237 
  337000    90.734462   -11353.925   -10492.232   -788.51572     102002.7      46.7237      46.7237      46.7237 
  338000    90.340414   -11314.935   -10456.985   -637.97804     102002.7      46.7237      46.7237      46.7237 
  339000    92.036847   -11313.187   -10439.126   -520.28403     102002.7      46.7237      46.7237      46.7237 
  340000    90.212617   -11310.571   -10453.834   -238.80635     102002.7      46.7237      46.7237      46.7237 
  341000    92.404531   -11336.249   -10458.696   -559.94341     102002.7      46.7237      46.7237      46.7237 
  342000    92.162369   -11340.725   -10465.471   -463.64778     102002.7      46.7237      46.7237      46.7237 
  343000    88.586923   -11314.808   -10473.511   -567.37939     102002.7      46.7237      46.7237      46.7237 
  344000    91.031919     -11326.8   -10462.282   -789.54255     102002.7      46.7237      46.7237      46.7237 
  345000    93.437859   -11308.849   -10421.483    -520.2082     102002.7      46.7237      46.7237      46.7237 
  346000    91.563906   -11320.138   -10450.568   -301.74815     102002.7      46.7237      46.7237      46.7237 
  347000    91.531783   -11324.773   -10455.508   -533.15629     102002.7      46.7237      46.7237      46.7237 
  348000    91.519926   -11317.915   -10448.763   -544.58549     102002.7      46.7237      46.7237      46.7237 
  349000    89.681132   -11297.944   -10446.255    -514.3275     102002.7      46.7237      46.7237      46.7237 
  350000    91.655128   -11323.768   -10453.332   -686.82594     102002.7      46.7237      46.7237      46.7237 
  351000    89.946245   -11348.244   -10494.037    -256.0173     102002.7      46.7237      46.7237      46.7237 
  352000    89.684229   -11330.122   -10478.404   -613.49963     102002.7      46.7237      46.7237      46.7237 
  353000     90.76674   -11317.835   -10455.835   -896.42889     102002.7      46.7237      46.7237      46.7237 
  354000    90.261796   -11312.232   -10455.028   -776.71075     102002.7      46.7237      46.7237      46.7237 
  355000    92.107951   -11300.783   -10426.046   -832.47667     102002.7      46.7237      46.7237      46.7237 
  356000    90.285409   -11311.984   -10454.557   -471.82709     102002.7      46.7237      46.7237      46.7237 
  357000    90.006727   -11299.522   -10444.741    -573.6473     102002.7      46.7237      46.7237      46.7237 
  358000    92.574433   -11304.016    -10424.85   -678.15832     102002.7      46.7237      46.7237      46.7237 
  359000     89.42159   -11332.472   -10483.247   -336.39121     102002.7      46.7237      46.7237      46.7237 
  360000     90.09251   -11327.942   -10472.346   -613.04354     102002.7      46.7237      46.7237      46.7237 
  361000    90.961256   -11307.049   -10443.202   -362.07841     102002.7      46.7237      46.7237      46.7237 
  362000    87.225087   -11308.653   -10480.289   -470.72311     102002.7      46.7237      46.7237      46.7237 
  363000    93.661275   -11315.898    -10426.41   -835.71795     102002.7      46.7237      46.7237      46.7237 
  364000    88.846788    -11301.06   -10457.295   -627.43237     102002.7      46.7237      46.7237      46.7237 
  365000    91.298514   -11314.732   -10447.683   -393.32107     102002.7      46.7237      46.7237      46.7237 
  366000    92.393601   -11301.655   -10424.206   -372.77914     102002.7      46.7237      46.7237      46.7237 
  367000    89.659466   -11316.818   -10465.334   -748.92441     102002.7      46.7237      46.7237      46.7237 
  368000    89.786154   -11314.438   -10461.751   -505.09112     102002.7      46.7237      46.7237      46.7237 
  369000    90.825852   -11313.838   -10451.278   -788.83819     102002.7      46.7237      46.7237      46.7237 
  370000    92.842816   -11322.505    -10440.79   -539.68442     102002.7      46.7237      46.7237      46.7237 
  371000    93.040667   -11332.316   -10448.722   -687.96774     102002.7      46.7237      46.7237      46.7237 
  372000    90.524171   -11304.513   -10444.818   -714.11883     102002.7      46.7237      46.7237      46.7237 
  373000    90.826902   -11311.046   -10448.475   -449.10705     102002.7      46.7237      46.7237      46.7237 
  374000    92.691559   -11291.225   -10410.946   -624.18252     102002.7      46.7237      46.7237      46.7237 
  375000    90.375936   -11329.743   -10471.455   -671.88122     102002.7      46.7237      46.7237      46.7237 
  376000    91.289108   -11312.632   -10445.672   -393.34323     102002.7      46.7237      46.7237      46.7237 
  377000     95.01481   -11299.209   -10396.867   -665.78216     102002.7      46.7237      46.7237      46.7237 
  378000    90.733865   -11330.392   -10468.705   -602.98326     102002.7      46.7237      46.7237      46.7237 
  379000    89.318294   -11312.076   -10463.832   -732.48605     102002.7      46.7237      46.7237      46.7237 
  380000    90.337326    -11306.61   -10448.689   -480.53454     102002.7      46.7237      46.7237      46.7237 
  381000    91.146263    -11315.09   -10449.487   -463.53553     102002.7      46.7237      46.7237      46.7237 
  382000    91.557716   -11311.939   -10442.428   -386.43594     102002.7      46.7237      46.7237      46.7237 
  383000    93.007663   -11320.308   -10437.027   -347.33772     102002.7      46.7237      46.7237      46.7237 
  384000    89.229801   -11314.582   -10467.179   -672.97702     102002.7      46.7237      46.7237      46.7237 
  385000    89.467894   -11328.568   -10478.904    -492.3093     102002.7      46.7237      46.7237      46.7237 
  386000     91.05067   -11321.695       -10457   -669.20481     102002.7      46.7237      46.7237      46.7237 
  387000    91.700706     -11293.7   -10422.832   -522.08066     102002.7      46.7237      46.7237      46.7237 
  388000    90.450315   -11303.191   -10444.197   -525.42778     102002.7      46.7237      46.7237      46.7237 
  389000    91.486816   -11304.371   -10435.533   -479.91857     102002.7      46.7237      46.7237      46.7237 
  390000    92.233144   -11311.077   -10435.152   -385.98009     102002.7      46.7237      46.7237      46.7237 
  391000    88.942029   -11316.362   -10471.692   -789.83235     102002.7      46.7237      46.7237      46.7237 
  392000    92.090846   -11316.345   -10441.771   -560.80673     102002.7      46.7237      46.7237      46.7237 
  393000    91.867459   -11320.668   -10448.216   -592.51329     102002.7      46.7237      46.7237      46.7237 
  394000    91.298109   -11316.854   -10449.809   -341.07056     102002.7      46.7237      46.7237      46.7237 
  395000    91.024012   -11293.241   -10428.799    -714.8486     102002.7      46.7237      46.7237      46.7237 
  396000    90.276375   -11307.992    -10450.65   -648.27549     102002.7      46.7237      46.7237      46.7237 
  397000     90.88049   -11314.996   -10451.917   -679.08204     102002.7      46.7237      46.7237      46.7237 
  398000    92.100725   -11338.101   -10463.433   -607.00969     102002.7      46.7237      46.7237      46.7237 
  399000    91.753879   -11312.248   -10440.874   -627.00839     102002.7      46.7237      46.7237      46.7237 
  400000    94.372976   -11327.319   -10431.072   -685.97991     102002.7      46.7237      46.7237      46.7237 
  401000    88.964615   -11328.329   -10483.445   -906.03382     102002.7      46.7237      46.7237      46.7237 
  402000    93.123516   -11318.884   -10434.502     -843.694     102002.7      46.7237      46.7237      46.7237 
  403000    91.217259   -11316.144   -10449.866    -464.3919     102002.7      46.7237      46.7237      46.7237 
  404000    89.953041   -11316.722    -10462.45   -610.86628     102002.7      46.7237      46.7237      46.7237 
  405000    91.746829   -11310.529   -10439.222    -704.0341     102002.7      46.7237      46.7237      46.7237 
  406000    91.348758   -11327.084   -10459.558   -437.53878     102002.7      46.7237      46.7237      46.7237 
  407000     91.74461   -11334.668   -10463.382   -609.35342     102002.7      46.7237      46.7237      46.7237 
  408000    92.963412   -11329.754   -10446.893   -777.74391     102002.7      46.7237      46.7237      46.7237 
  409000    94.867753   -11329.507   -10428.561   -551.69546     102002.7      46.7237      46.7237      46.7237 
  410000     89.37107    -11327.33   -10478.585   -620.14871     102002.7      46.7237      46.7237      46.7237 
  411000    92.347281   -11312.678   -10435.669      -370.99     102002.7      46.7237      46.7237      46.7237 
  412000    91.493194    -11339.81   -10470.912   -755.75071     102002.7      46.7237      46.7237      46.7237 
  413000    91.196724   -11316.408   -10450.326   -1141.5233     102002.7      46.7237      46.7237      46.7237 
  414000    90.849052   -11314.528   -10451.747   -750.05529     102002.7      46.7237      46.7237      46.7237 
  415000    89.873278   -11334.971   -10481.457   -466.21225     102002.7      46.7237      46.7237      46.7237 
  416000    90.622806   -11290.573   -10429.941   -634.63364     102002.7      46.7237      46.7237      46.7237 
  417000    93.335447   -11310.617   -10424.223   -630.49005     102002.7      46.7237      46.7237      46.7237 
  418000    91.500289   -11306.562   -10437.597   -442.76036     102002.7      46.7237      46.7237      46.7237 
  419000    89.234099   -11322.481   -10475.037   -754.87798     102002.7      46.7237      46.7237      46.7237 
  420000    91.399734   -11334.568   -10466.557   -361.72838     102002.7      46.7237      46.7237      46.7237 
  421000    90.509958   -11320.187   -10460.627    -649.3571     102002.7      46.7237      46.7237      46.7237 
  422000    92.943641   -11316.232   -10433.559   -666.39416     102002.7      46.7237      46.7237      46.7237 
  423000    88.720713   -11314.121   -10471.553   -552.58397     102002.7      46.7237      46.7237      46.7237 
  424000    89.338103   -11320.044   -10471.613   -829.43612     102002.7      46.7237      46.7237      46.7237 
  425000    91.525401   -11310.962   -10441.758   -403.99974     102002.7      46.7237      46.7237      46.7237 
  426000    91.486028   -11325.877   -10457.047   -490.18386     102002.7      46.7237      46.7237      46.7237 
  427000    94.438861   -11295.067   -10398.195   -573.45715     102002.7      46.7237      46.7237      46.7237 
  428000    88.511009   -11332.039   -10491.462   -513.17809     102002.7      46.7237      46.7237      46.7237 
  429000    89.254583   -11306.875   -10459.237   -341.02076     102002.7      46.7237      46.7237      46.7237 
  430000    91.887798   -11326.053   -10453.407   -542.54333     102002.7      46.7237      46.7237      46.7237 
  431000    91.394794   -11334.014    -10466.05   -309.65616     102002.7      46.7237      46.7237      46.7237 
  432000     89.99056   -11315.155   -10460.527   -633.24175     102002.7      46.7237      46.7237      46.7237 
  433000    91.885459    -11312.02   -10439.397    -429.4569     102002.7      46.7237      46.7237      46.7237 
  434000    92.340105   -11334.463   -10457.522   -660.07154     102002.7      46.7237      46.7237      46.7237 
  435000    92.151538   -11310.433   -10435.283   -701.46251     102002.7      46.7237      46.7237      46.7237 
  436000    91.959646   -11338.032   -10464.704   -409.76752     102002.7      46.7237      46.7237      46.7237 
  437000     90.19715   -11343.683   -10487.093   -483.34421     102002.7      46.7237      46.7237      46.7237 
  438000    89.639363   -11321.471   -10470.178   -660.50197     102002.7      46.7237      46.7237      46.7237 
  439000    87.697955   -11325.907   -10493.052   -597.40874     102002.7      46.7237      46.7237      46.7237 
  440000    90.889923   -11306.774   -10443.605   -703.38322     102002.7      46.7237      46.7237      46.7237 
  441000    90.318359   -11297.021    -10439.28   -607.06861     102002.7      46.7237      46.7237      46.7237 
  442000    92.150698   -11346.669   -10471.527   -587.69422     102002.7      46.7237      46.7237      46.7237 
  443000    92.472702   -11309.402   -10431.201   -666.73029     102002.7      46.7237      46.7237      46.7237 
  444000    90.356414   -11341.831   -10483.729   -746.24193     102002.7      46.7237      46.7237      46.7237 
  445000    92.391993   -11324.054    -10446.62   -594.95431     102002.7      46.7237      46.7237      46.7237 
  446000    89.509872   -11322.603    -10472.54     -528.539     102002.7      46.7237      46.7237      46.7237 
  447000     94.38508   -11330.505   -10434.143   -797.36376     102002.7      46.7237      46.7237      46.7237 
  448000     93.38759   -11341.465   -10454.576   -758.91505     102002.7      46.7237      46.7237      46.7237 
  449000    90.043874   -11313.716   -10458.582   -655.77874     102002.7      46.7237      46.7237      46.7237 
  450000    89.040489   -11316.817   -10471.212   -608.49099     102002.7      46.7237      46.7237      46.7237 
  451000    90.525247   -11296.312   -10436.606   -764.82522     102002.7      46.7237      46.7237      46.7237 
  452000    92.212284   -11286.958   -10411.231   -483.49563     102002.7      46.7237      46.7237      46.7237 
  453000    94.249416   -11346.876   -10451.803   -754.23233     102002.7      46.7237      46.7237      46.7237 
  454000    92.469424   -11328.206   -10450.037   -791.08244     102002.7      46.7237      46.7237      46.7237 
  455000    89.017943   -11329.579   -10484.188   -621.85466     102002.7      46.7237      46.7237      46.7237 
  456000     89.44452   -11322.991   -10473.548   -613.41157     102002.7      46.7237      46.7237      46.7237 
  457000    91.001348   -11313.991   -10449.764    -531.4657     102002.7      46.7237      46.7237      46.7237 
  458000    91.053797   -11303.674   -10438.949   -302.68541     102002.7      46.7237      46.7237      46.7237 
  459000    89.845133   -11313.792   -10460.545   -530.27446     102002.7      46.7237      46.7237      46.7237 
  460000    90.710582   -11330.819   -10469.353   -667.02971     102002.7      46.7237      46.7237      46.7237 
  461000    91.754156   -11292.559   -10421.182   -565.28826     102002.7      46.7237      46.7237      46.7237 
  462000    91.488627   -11332.691   -10463.837   -699.18313     102002.7      46.7237      46.7237      46.7237 
  463000    93.262963   -11323.012   -10437.307   -249.37358     102002.7      46.7237      46.7237      46.7237 
  464000    91.954608   -11329.814   -10456.534   -265.41503     102002.7      46.7237      46.7237      46.7237 
  465000    91.954695   -11311.384   -10438.103   -204.08835     102002.7      46.7237      46.7237      46.7237 
  466000    89.923944   -11290.022   -10436.027   -230.69712     102002.7      46.7237      46.7237      46.7237 
  467000    94.123823   -11306.663   -10412.782   -580.11377     102002.7      46.7237      46.7237      46.7237 
  468000     89.48837   -11314.427   -10464.569   -516.23916     102002.7      46.7237      46.7237      46.7237 
  469000    92.277859    -11300.93   -10424.581   -399.18301     102002.7      46.7237      46.7237      46.7237 
  470000    89.977413   -11313.926   -10459.423   -406.54124     102002.7      46.7237      46.7237      46.7237 
  471000    91.810735   -11324.104    -10452.19    -516.4631     102002.7      46.7237      46.7237      46.7237 
  472000    91.500889   -11300.377   -10431.405   -327.18889     102002.7      46.7237      46.7237      46.7237 
  473000    89.675215   -11320.495   -10468.862   -468.22007     102002.7      46.7237      46.7237      46.7237 
  474000    89.243184   -11324.002   -10476.472   -479.60676     102002.7      46.7237      46.7237      46.7237 
  475000    90.350533   -11333.196    -10475.15   -467.96595     102002.7      46.7237      46.7237      46.7237 
  476000    89.546109    -11304.61   -10454.203   -289.42174     102002.7      46.7237      46.7237      46.7237 
  477000     90.79712   -11300.625   -10438.337    -332.4071     102002.7      46.7237      46.7237      46.7237 
  478000    90.971741   -11299.704   -10435.758   -385.54616     102002.7      46.7237      46.7237      46.7237 
  479000    90.806812   -11282.352   -10419.972   -646.90081     102002.7      46.7237      46.7237      46.7237 
  480000    90.457728   -11299.189   -10440.125   -490.61651     102002.7      46.7237      46.7237      46.7237 
  481000    93.185435    -11329.29   -10444.321   -328.25533     102002.7      46.7237      46.7237      46.7237 
  482000    90.959554   -11302.602   -10438.772   -569.85768     102002.7      46.7237      46.7237      46.7237 
  483000    92.107057    -11321.57   -10446.842   -671.92085     102002.7      46.7237      46.7237      46.7237 
  484000    90.777213   -11296.298   -10434.199   -593.64935     102002.7      46.7237      46.7237      46.7237 
  485000    89.692361    -11311.29   -10459.494   -697.94459     102002.7      46.7237      46.7237      46.7237 
  486000    91.360521   -11326.218    -10458.58   -471.75299     102002.7      46.7237      46.7237      46.7237 
  487000      92.7988   -11319.511   -10438.214   -522.84411     102002.7      46.7237      46.7237      46.7237 
  488000    92.177948   -11331.083   -10455.682   -560.16596     102002.7      46.7237      46.7237      46.7237 
  489000    92.473169   -11307.858   -10429.653   -509.26486     102002.7      46.7237      46.7237      46.7237 
  490000    90.759019   -11306.998   -10445.072    -711.4523     102002.7      46.7237      46.7237      46.7237 
  491000    88.818298   -11289.002   -10445.507   -524.05997     102002.7      46.7237      46.7237      46.7237 
  492000     89.84016   -11310.792   -10457.593   -524.14707     102002.7      46.7237      46.7237      46.7237 
  493000    91.572943   -11303.054   -10433.399   -383.52796     102002.7      46.7237      46.7237      46.7237 
  494000    91.001681   -11311.597   -10447.367    -413.0862     102002.7      46.7237      46.7237      46.7237 
  495000    90.580562   -11296.814   -10436.583    -271.8466     102002.7      46.7237      46.7237      46.7237 
  496000     92.41097   -11299.736   -10422.122   -265.33216     102002.7      46.7237      46.7237      46.7237 
  497000    93.075415   -11312.606   -10428.682   -176.44708     102002.7      46.7237      46.7237      46.7237 
  498000     93.24492   -11312.646   -10427.112   -421.19997     102002.7      46.7237      46.7237      46.7237 
  499000    92.925781   -11311.726   -10429.223   -722.53275     102002.7      46.7237      46.7237      46.7237 
  500000    88.711092   -11307.546   -10465.069    -597.1704     102002.7      46.7237      46.7237      46.7237 
  500500     89.61371   -11293.615   -10442.566   -788.80478     102002.7      46.7237      46.7237      46.7237 
Loop time of 1850.28 on 16 procs for 500000 steps with 3187 atoms

Performance: 23.348 ns/day, 1.028 hours/ns, 270.229 timesteps/s
99.8% CPU use with 16 MPI tasks x no OpenMP threads

MPI task timing breakdown:
Section |  min time  |  avg time  |  max time  |%varavg| %total
---------------------------------------------------------------
Pair    | 830.83     | 1156.3     | 1416.5     | 460.0 | 62.49
Bond    | 106.53     | 174.73     | 221.37     | 257.7 |  9.44
Neigh   | 14.682     | 14.728     | 14.788     |   1.1 |  0.80
Comm    | 215.07     | 487        | 854.04     | 805.6 | 26.32
Output  | 0.02159    | 0.022056   | 0.025038   |   0.5 |  0.00
Modify  | 9.6173     | 10.536     | 11.635     |  18.6 |  0.57
Other   |            | 6.976      |            |       |  0.38

Nlocal:    199.188 ave 231 max 148 min
Histogram: 2 0 0 1 1 4 2 1 2 3
Nghost:    4030.62 ave 4082 max 3998 min
Histogram: 3 0 3 3 2 3 0 0 1 1
Neighs:    11458.1 ave 18663 max 7603 min
Histogram: 4 1 2 2 4 2 0 0 0 1

Total # of neighbors = 183330
Ave neighs/atom = 57.5243
Ave special neighs/atom = 3.61468
Neighbor list builds = 4218
Dangerous builds = 0
Neighbor list info ...
  update every 1 steps, delay 10 steps, check yes
  max neighbors/atom: 2000, page size: 100000
  master list distance cutoff = 16
  ghost atom cutoff = 16
  binsize = 8, bins = 6 6 6
  3 neighbor lists, perpetual/occasional/extra = 3 0 0
  (1) pair buck6d/coul/gauss/dsf, perpetual, skip from (3)
      attributes: half, newton on
      pair build: skip
      stencil: none
      bin: none
  (2) pair lj/cut, perpetual, skip from (3)
      attributes: half, newton on
      pair build: skip
      stencil: none
      bin: none
  (3) neighbor class addition, perpetual
      attributes: half, newton on
      pair build: half/bin/newton
      stencil: half/bin/3d/newton
      bin: standard
Setting up Verlet run ...
  Unit style    : real
  Current step  : 500500
  Time step     : 1
WARNING: Inconsistent image flags (../domain.cpp:786)
Per MPI rank memory allocation (min/avg/max) = 22.66 | 23.2 | 23.44 Mbytes
Step Time TotEng KinEng PotEng E_mol E_pair Temp Pxx Pyy Pzz Pxy Pxz Pyz Cella Cellb Cellc CellAlpha CellBeta CellGamma Volume Press 
  500500       500000   -10442.566    851.04893   -11293.615    4202.3611   -15495.976     89.61371   -565.87965   -1164.6262   -635.90851   -111.74002   -8.1590173    230.20139      46.7237      46.7237      46.7237           90           90           90     102002.7   -788.80478 
  501000       500500   -10477.095    847.91943   -11325.014    4158.1073   -15483.121     89.28418   -468.14966   -957.18649   -497.27646   -37.948238   -111.28716   -203.45752      46.7237      46.7237      46.7237           90           90           90     102002.7   -640.87087 
  502000       501500   -10461.824    857.63519   -11319.459    4154.3211   -15473.781     90.30723   -311.08086   -952.48803   -415.85474   -93.631246   -245.97247    -100.9606      46.7237      46.7237      46.7237           90           90           90     102002.7   -559.80788 
  503000       502500   -10437.905    876.22031   -11314.126    4168.6179   -15482.743    92.264205   -464.98483   -633.70857   -554.81519    77.473387   -206.88331    76.818091      46.7237      46.7237      46.7237           90           90           90     102002.7   -551.16953 
  504000       503500   -10429.043    864.50018   -11293.543    4187.1716   -15480.715    91.030099   -680.67229   -620.56222   -441.60905   -98.334005   -164.24036   -90.135279      46.7237      46.7237      46.7237           90           90           90     102002.7   -580.94785 
  505000       504500   -10438.714    870.00427   -11308.718    4165.8021    -15474.52    91.609668   -625.56069    -798.2447   -501.61769    21.512225   -28.614635    74.605712      46.7237      46.7237      46.7237           90           90           90     102002.7   -641.80769 
  506000       505500   -10429.941     884.5783    -11314.52     4154.046   -15468.566    93.144284   -376.42566   -29.653659    5.0554291   -40.977615    -105.8087    51.946441      46.7237      46.7237      46.7237           90           90           90     102002.7   -133.67463 
  507000       506500   -10446.856    854.25387    -11301.11    4160.8672   -15461.977    89.951184   -1360.9037   -439.83085   -657.87755   -53.997366    6.9523328   -302.45362      46.7237      46.7237      46.7237           90           90           90     102002.7   -819.53736 
  508000       507500   -10424.698    875.88515   -11300.583    4169.1759   -15469.759    92.228913   -417.14451   -94.263297   -366.21031    53.265045   -193.64582     168.3017      46.7237      46.7237      46.7237           90           90           90     102002.7   -292.53937 
  509000       508500   -10469.689    846.86001   -11316.549    4152.6982   -15469.247    89.172625   -453.68705   -630.82867   -97.127561   -141.82831    244.85243   -84.077084      46.7237      46.7237      46.7237           90           90           90     102002.7   -393.88109 
  510000       509500   -10443.186    879.16387    -11322.35    4154.3036   -15476.653    92.574155   -291.56146   -314.39934   -312.89797    109.59393   -164.15018    90.232117      46.7237      46.7237      46.7237           90           90           90     102002.7   -306.28626 
  511000       510500    -10433.29    879.60884   -11312.899    4164.5842   -15477.483     92.62101   -463.31113   -785.55802   -310.65847   -320.23074    12.470894    7.4166719      46.7237      46.7237      46.7237           90           90           90     102002.7   -519.84254 
  512000       511500   -10453.181    858.00119   -11311.182    4178.3697   -15489.552    90.345769   -804.65062   -363.52596   -244.97014   -49.284059    120.90025    61.462243      46.7237      46.7237      46.7237           90           90           90     102002.7   -471.04891 
  513000       512500   -10452.045    863.09809   -11315.143    4167.2801   -15482.423    90.882462   -9.2218356    -532.6652   -704.64534    51.126092   -160.93706   -187.02788      46.7237      46.7237      46.7237           90           90           90     102002.7   -415.51079 
  514000       513500   -10454.885    864.84316   -11319.728    4160.0292   -15479.757    91.066214   -392.18719   -401.11327   -393.70408   -284.98711   -175.25279   -113.79247      46.7237      46.7237      46.7237           90           90           90     102002.7   -395.66818 
  515000       514500   -10485.566    835.47845   -11321.045    4159.5969   -15480.642     87.97417   -200.48681   -335.23124   -662.18243   -4.2165789    87.616798    75.694392      46.7237      46.7237      46.7237           90           90           90     102002.7   -399.30016 
  516000       515500   -10455.284    852.36784   -11307.652    4180.8114   -15488.463    89.752589   -432.28268   -658.05563    -411.7629    254.93606   -257.05372    -152.6835      46.7237      46.7237      46.7237           90           90           90     102002.7    -500.7004 
  517000       516500   -10416.296    894.71517   -11311.011    4166.9657   -15477.977    94.211676   -267.80397   -267.79553    -379.3619   -153.72724    116.21677    175.24705      46.7237      46.7237      46.7237           90           90           90     102002.7   -304.98714 
  518000       517500   -10447.225    862.12716   -11309.352    4163.1419   -15472.494    90.780225   -549.83844   -839.38895   -930.38775   -86.329012    82.395646    69.090112      46.7237      46.7237      46.7237           90           90           90     102002.7   -773.20505 
  519000       518500   -10457.769    857.74261   -11315.512    4186.5473   -15502.059    90.318541   -629.42591   -297.39622   -996.37922   -127.28419   -3.1724061    255.66007      46.7237      46.7237      46.7237           90           90           90     102002.7   -641.06712 
  520000       519500   -10439.689    870.05611   -11309.745    4159.4525   -15469.198    91.615127   -376.94983   -434.58385   -346.83542    138.38132   -37.209285    114.02071      46.7237      46.7237      46.7237           90           90           90     102002.7   -386.12303 
  521000       520500    -10433.75    864.42722   -11298.178    4174.4231   -15472.601    91.022416   -422.73683   -854.61274   -708.23861    75.946647   -157.66982    195.11304      46.7237      46.7237      46.7237           90           90           90     102002.7   -661.86273 
  522000       521500   -10446.158    857.81764   -11303.976    4174.1514   -15478.127    90.326441   -240.46722   -691.34212   -681.65707   -144.82933   -45.727323   -77.983767      46.7237      46.7237      46.7237           90           90           90     102002.7   -537.82214 
  523000       522500   -10427.341    873.59521   -11300.936    4179.9913   -15480.927    91.987787   -580.18088   -497.61065   -403.94532   -71.179815    233.92697   -120.98226      46.7237      46.7237      46.7237           90           90           90     102002.7   -493.91228 
  524000       523500   -10440.222    855.39232   -11295.614    4181.0615   -15476.675     90.07106   -609.53945   -731.71338   -1568.7926    292.06272     52.07875    66.190188      46.7237      46.7237      46.7237           90           90           90     102002.7   -970.01514 
  525000       524500   -10499.827    821.18421   -11321.011    4170.8994   -15491.911    86.469016   -498.86138   -174.28279   -230.58355   -54.957332    248.09566   -79.473003      46.7237      46.7237      46.7237           90           90           90     102002.7   -301.24257 
  526000       525500   -10483.195    849.35052   -11332.545    4151.1032   -15483.648    89.434871   -491.03776    -777.3335   -720.61651    273.00468   -19.846603    57.541669      46.7237      46.7237      46.7237           90           90           90     102002.7   -662.99592 
  527000       526500   -10452.769    850.75957   -11303.529    4169.0004   -15472.529    89.583241   -87.475068   -519.86703   -273.22325     71.38992    16.079709   -66.899027      46.7237      46.7237      46.7237           90           90           90     102002.7   -293.52178 
  528000       527500   -10468.305    860.44916   -11328.754    4161.8875   -15490.642    90.603535   -412.26388   -781.98981   -710.62913    177.34738    100.72013    17.459518      46.7237      46.7237      46.7237           90           90           90     102002.7   -634.96094 
  529000       528500   -10498.275    844.85462    -11343.13    4148.2856   -15491.415    88.961461   -341.08631   -482.49313   -702.04924    152.30197    21.221607   0.76633403      46.7237      46.7237      46.7237           90           90           90     102002.7   -508.54289 
  530000       529500   -10440.196    874.93739   -11315.133    4175.0287   -15490.162    92.129116   -896.68872   -702.36199   -612.38883   -137.55116     3.898817   -310.37301      46.7237      46.7237      46.7237           90           90           90     102002.7   -737.14651 
  531000       530500   -10449.963    879.62178   -11329.584    4165.6219   -15495.206    92.622372   -740.89989   -485.09319   -447.79115   -52.322142    40.663799    22.293639      46.7237      46.7237      46.7237           90           90           90     102002.7   -557.92808 
  532000       531500   -10431.127    872.75486   -11303.882    4165.8088    -15469.69      91.8993   -863.16357   -360.55991   -334.89967    47.344433   -157.87567    159.37141      46.7237      46.7237      46.7237           90           90           90     102002.7   -519.54105 
  533000       532500    -10464.66    856.11671   -11320.777    4173.4268   -15494.203    90.147336   -698.29248   -1059.2401   -608.51919   -94.056614    150.75108    118.82117      46.7237      46.7237      46.7237           90           90           90     102002.7   -788.68393 
  534000       533500   -10441.532    873.99595   -11315.528    4186.4393   -15501.967    92.029984   -368.42127   -1050.5467   -837.00964    -8.578994   -41.030657   -233.96911      46.7237      46.7237      46.7237           90           90           90     102002.7   -751.99254 
  535000       534500   -10434.129    865.37156     -11299.5     4182.838   -15482.338    91.121853   -348.98371   -1164.6031    -784.8176    55.066695   -231.93176   -14.844406      46.7237      46.7237      46.7237           90           90           90     102002.7   -766.13482 
  536000       535500   -10460.489    854.24516   -11314.734    4176.1467   -15490.881    89.950266   -920.68123   -1026.0097   -921.00716   -90.123254   -74.934322    116.63367      46.7237      46.7237      46.7237           90           90           90     102002.7   -955.89936 
  537000       536500   -10385.119    911.94045   -11297.059    4167.9534   -15465.013    96.025462   -378.13697   -1235.4413   -203.41269    205.41088   -71.295225    259.58213      46.7237      46.7237      46.7237           90           90           90     102002.7   -605.66364 
  538000       537500   -10420.863    896.48119   -11317.344    4173.0556   -15490.399    94.397634   -423.47225   -386.80251   -733.16234    59.987488   -33.773748    102.21319      46.7237      46.7237      46.7237           90           90           90     102002.7   -514.47903 
  539000       538500   -10464.338    843.87152    -11308.21     4182.351   -15490.561    88.857943    -723.3293   -961.75569   -603.85837   -180.51453    158.75463   -96.274119      46.7237      46.7237      46.7237           90           90           90     102002.7   -762.98112 
  540000       539500   -10459.013    857.13025   -11316.144     4176.746    -15492.89     90.25406   -620.84974   -421.28382    -224.1928   -212.49735    33.380837   -81.742175      46.7237      46.7237      46.7237           90           90           90     102002.7   -422.10878 
  541000       540500   -10434.098    860.60815   -11294.706    4188.2143    -15482.92    90.620276   -636.79469    -404.8518    -658.3073   -59.923804     83.25723    34.701675      46.7237      46.7237      46.7237           90           90           90     102002.7   -566.65127 
  542000       541500   -10465.112    865.17382   -11330.286    4147.6171   -15477.903    91.101031   -474.51868   -412.79396   -234.96279    54.705544   -175.25116   -44.078871      46.7237      46.7237      46.7237           90           90           90     102002.7   -374.09181 
  543000       542500   -10451.126    863.09703   -11314.223    4145.9002   -15460.123     90.88235   -663.95479   -408.87647   -465.95853    123.13212    64.893514    1.2824748      46.7237      46.7237      46.7237           90           90           90     102002.7   -512.92993 
  544000       543500   -10469.426    848.39086   -11317.817    4165.8313   -15483.648     89.33382    -411.2008   -758.84284   -582.41914    130.16166   -50.027442    -206.3837      46.7237      46.7237      46.7237           90           90           90     102002.7   -584.15426 
  545000       544500   -10441.417    867.09002   -11308.507     4209.475   -15517.982    91.302804   -507.19739   -554.08355    -462.1839   -4.9061728   -36.206136   -174.97652      46.7237      46.7237      46.7237           90           90           90     102002.7   -507.82161 
  546000       545500   -10456.933    865.85128   -11322.784    4157.9592   -15480.744    91.172367    -530.8243   -481.03094   -1281.1747   -187.29188    83.018023    35.042655      46.7237      46.7237      46.7237           90           90           90     102002.7    -764.3433 
  547000       546500   -10456.728    850.09029   -11306.819    4176.6439   -15483.463    89.512768    -692.0799   -577.98241   -525.67852   -141.00383    131.92739    46.489346      46.7237      46.7237      46.7237           90           90           90     102002.7   -598.58028 
  548000       547500   -10479.512    850.08827   -11329.601    4160.0536   -15489.654    89.512554   -900.36849   -571.20532   -452.35183    3.4499383    212.47303    23.199999      46.7237      46.7237      46.7237           90           90           90     102002.7   -641.30855 
  549000       548500   -10438.245    885.05752   -11323.302    4171.4719   -15494.774    93.194745    -951.2689   -661.11013   -623.61249   -63.766521   -48.196392    -19.56568      46.7237      46.7237      46.7237           90           90           90     102002.7   -745.33051 
  550000       549500   -10431.919    870.18225   -11302.101    4191.0324   -15493.133    91.628409   -298.68856    -644.9841    -578.1177   -66.497606    79.888172    50.866762      46.7237      46.7237      46.7237           90           90           90     102002.7   -507.26345 
  551000       550500   -10483.723    844.13466   -11327.858    4177.8699   -15505.728    88.885652   -756.24843   -473.39499   -880.82589   -90.130049    123.75249   -164.02152      46.7237      46.7237      46.7237           90           90           90     102002.7   -703.48977 
  552000       551500   -10449.299    859.85558   -11309.155    4172.2041   -15481.359    90.541032   -722.17791   -489.90444   -454.92566    92.714448   -173.21452   -45.928653      46.7237      46.7237      46.7237           90           90           90     102002.7   -555.66934 
  553000       552500   -10445.535    881.33828   -11326.873    4160.2719   -15487.145    92.803116   -336.61229   -641.23738   -834.90829     113.5991    47.836213    98.998379      46.7237      46.7237      46.7237           90           90           90     102002.7   -604.25266 
  554000       553500   -10456.726    870.75737   -11327.484    4148.0362    -15475.52    91.688968   -443.12185   -551.33214   -486.03366    102.34453    58.271631    31.148679      46.7237      46.7237      46.7237           90           90           90     102002.7   -493.49588 
  555000       554500   -10454.364     868.5931   -11322.957    4168.3063   -15491.263    91.461075   -518.46274   -361.30303   -486.79453   -203.35557   -18.847802   -108.38492      46.7237      46.7237      46.7237           90           90           90     102002.7    -455.5201 
[...]
  936000       935500   -10427.111    869.40709   -11296.518    4179.8074   -15476.326    91.546787   -265.56852   -490.41702   -93.386932   -104.00811   -213.24426   -223.35372      46.7237      46.7237      46.7237           90           90           90     102002.7   -283.12416 
  937000       936500   -10444.372    881.23365   -11325.606    4154.7273   -15480.333      92.7921   -329.59053   -502.28482   -556.25476   -292.03446   -76.512726    6.9752386      46.7237      46.7237      46.7237           90           90           90     102002.7   -462.71004 
  938000       937500   -10432.055     867.5013   -11299.557    4178.2989   -15477.855    91.346111   -690.48657   -751.45509   -549.04488   -43.404065     82.52406   -107.18162      46.7237      46.7237      46.7237           90           90           90     102002.7   -663.66218 
  939000       938500   -10458.817    848.94281    -11307.76    4179.4048   -15487.165     89.39194   -161.46836   -496.52426   -469.02737    129.87609    -197.2316    29.372848      46.7237      46.7237      46.7237           90           90           90     102002.7   -375.67333 
  940000       939500   -10422.273    868.08684    -11290.36    4192.4149   -15482.775    91.407767   -571.85237   -1078.1692   -949.80819   -32.774833   -100.72051   -66.156433      46.7237      46.7237      46.7237           90           90           90     102002.7   -866.60993 
  941000       940500   -10453.616    862.37488   -11315.991    4178.5147   -15494.506    90.806309   -608.86833   -570.83207   -456.03501   -156.81425   -169.21507   -41.005383      46.7237      46.7237      46.7237           90           90           90     102002.7   -545.24514 
  942000       941500   -10459.544    867.95055   -11327.494    4185.1844   -15512.678    91.393416   -408.96561   -949.69845   -312.97117   -112.82518    290.13903   -182.48012      46.7237      46.7237      46.7237           90           90           90     102002.7   -557.21174 
  943000       942500   -10464.932     849.1947   -11314.127    4181.0173   -15495.144    89.418463   -618.04386   -960.52888   -893.15655   -107.33702    234.50978    300.86464      46.7237      46.7237      46.7237           90           90           90     102002.7   -823.90976 
  944000       943500   -10424.778     888.2879   -11313.065    4179.3143    -15492.38    93.534897   -492.33558    -1256.526   -499.86237     85.48462   -27.568372    308.03878      46.7237      46.7237      46.7237           90           90           90     102002.7   -749.57465 
  945000       944500   -10448.283    875.24532   -11323.528    4176.8281   -15500.356     92.16154   -474.88367   -791.33736   -934.84612   -64.434064   -200.51948   -65.208252      46.7237      46.7237      46.7237           90           90           90     102002.7   -733.68905 
  946000       945500   -10461.907     864.6787   -11326.586    4156.6469   -15483.233    91.048897   -758.63635   -634.93451   -453.35629   -104.30172   -71.128542   -218.20182      46.7237      46.7237      46.7237           90           90           90     102002.7   -615.64238 
  947000       946500   -10477.995    848.89646   -11326.892    4142.7892   -15469.681    89.387059   -449.56759   -510.16861   -481.74114    276.92485    74.657336    27.059793      46.7237      46.7237      46.7237           90           90           90     102002.7   -480.49245 
  948000       947500     -10471.9    866.36196   -11338.262    4157.1017   -15495.363     91.22614   -667.06842   -537.84309   -468.34346    -116.6432   -94.409844   -195.07779      46.7237      46.7237      46.7237           90           90           90     102002.7   -557.75166 
  949000       948500    -10465.09    866.71183   -11331.802      4168.32   -15500.122    91.262981   -597.51828   -783.45467   -29.117227   -58.452604   -56.830473   -102.77401      46.7237      46.7237      46.7237           90           90           90     102002.7   -470.03006 
  950000       949500   -10464.684    862.15041   -11326.835    4173.3125   -15500.147    90.782673   -530.55061   -727.52335   -611.86215   -247.32219   -182.32986      -145.41      46.7237      46.7237      46.7237           90           90           90     102002.7   -623.31203 
  951000       950500   -10444.549    869.04148    -11313.59     4168.898   -15482.488    91.508288   -561.19944   -925.78217   -435.07427    232.22773   -3.2895403   -351.36987      46.7237      46.7237      46.7237           90           90           90     102002.7   -640.68529 
  952000       951500   -10447.496     855.1492   -11302.645    4166.4018   -15469.047     90.04546    -745.1038   -409.67128    15.516872    161.27296    52.121653   -47.202176      46.7237      46.7237      46.7237           90           90           90     102002.7   -379.75273 
  953000       952500   -10422.809    874.11058    -11296.92    4180.8946   -15477.815    92.042055   -304.41364   -529.18994   -443.14442    169.15044    106.96804    184.37543      46.7237      46.7237      46.7237           90           90           90     102002.7   -425.58267 
  954000       953500   -10473.793    842.16946   -11315.963    4176.4815   -15492.444     88.67872   -569.97986   -959.86976   -538.03603   -22.731764    93.183122    32.693123      46.7237      46.7237      46.7237           90           90           90     102002.7   -689.29522 
  955000       954500    -10457.16    863.84126   -11321.001    4175.8306   -15496.831    90.960716   -155.97088   -889.34752   -352.70466     24.09169   -78.017441    77.850325      46.7237      46.7237      46.7237           90           90           90     102002.7   -466.00768 
  956000       955500    -10467.16     842.2778   -11309.438    4177.5226   -15486.961    88.690128   -1047.1218    -511.6963   -564.34408     187.0684   -0.6854224    116.86385      46.7237      46.7237      46.7237           90           90           90     102002.7   -707.72072 
  957000       956500    -10446.33    890.32728   -11336.658    4167.9746   -15504.632     93.74964   -540.73293    -1008.383   -94.114261   -3.0760376   -31.196065   -212.20682      46.7237      46.7237      46.7237           90           90           90     102002.7    -547.7434 
  958000       957500   -10458.102    862.12286   -11320.225    4164.6661   -15484.891    90.779772   -574.97021   -888.70032   -598.70236   -29.414199    261.00735    42.916065      46.7237      46.7237      46.7237           90           90           90     102002.7   -687.45763 
  959000       958500   -10477.295    863.01764   -11340.313    4170.3863   -15510.699    90.873991   -198.62991   -649.35525   -918.13879    181.57146   -108.34984   -187.04708      46.7237      46.7237      46.7237           90           90           90     102002.7   -588.70798 
  960000       959500   -10462.059    858.22507   -11320.285    4158.3266   -15478.611    90.369342   -596.58254   -637.60185   -845.45171   -137.96062   -27.035437    22.492083      46.7237      46.7237      46.7237           90           90           90     102002.7   -693.21203 
  961000       960500   -10438.278    875.47725   -11313.755    4174.4116   -15488.167    92.185962   -677.40404   -645.36101   -281.08493   -147.01245    112.52141    23.795791      46.7237      46.7237      46.7237           90           90           90     102002.7   -534.61666 
  962000       961500   -10460.416    860.21756   -11320.634    4173.4926   -15494.126    90.579148   -465.03433   -380.02662   -179.31502   -15.627306    198.35105   -55.144674      46.7237      46.7237      46.7237           90           90           90     102002.7   -341.45866 
  963000       962500    -10427.22    864.04291   -11291.263    4196.0813   -15487.345    90.981949   -857.26247   -538.02758   -386.22454    2.1222127    244.02003   -271.31513      46.7237      46.7237      46.7237           90           90           90     102002.7    -593.8382 
  964000       963500   -10486.168    850.45356   -11336.621    4169.3925   -15506.014    89.551019   -700.80882   -419.40711   -574.32417     114.1878   -30.159889   -65.982773      46.7237      46.7237      46.7237           90           90           90     102002.7    -564.8467 
  965000       964500   -10452.048    857.20248    -11309.25    4187.5644   -15496.815    90.261666   -635.12538   -1046.6152   -620.78445    84.513443    82.575917   -184.73294      46.7237      46.7237      46.7237           90           90           90     102002.7   -767.50834 
  966000       965500   -10430.906    870.84961   -11301.756    4174.9096   -15476.665    91.698681   -909.61331   -577.06746   -392.96665   -415.93583   -7.5652642   0.15088875      46.7237      46.7237      46.7237           90           90           90     102002.7   -626.54914 
  967000       966500   -10454.368    843.60558   -11297.973    4186.4249   -15484.398     88.82994   -498.43697   -708.22865   -902.85334   -83.779186     233.5344   -70.921888      46.7237      46.7237      46.7237           90           90           90     102002.7   -703.17299 
  968000       967500   -10437.035    864.62049   -11301.655    4180.8497   -15482.505    91.042767   -413.03073   -617.63072   -224.90491   -66.233209     132.3535    230.09836      46.7237      46.7237      46.7237           90           90           90     102002.7   -418.52212 
  969000       968500   -10433.647    892.89493   -11326.542    4160.2723   -15486.815    94.020008   -477.35405    -399.0599   -401.46655    29.219647    65.910984   -75.196546      46.7237      46.7237      46.7237           90           90           90     102002.7   -425.96017 
  970000       969500   -10478.498    867.55656   -11346.055    4167.3988   -15513.454     91.35193   -606.43489   -492.25158   -663.92806    36.465027   -86.937079   -36.400301      46.7237      46.7237      46.7237           90           90           90     102002.7   -587.53818 
  971000       970500   -10452.936    867.42729   -11320.363    4155.8645   -15476.227    91.338318   -679.58366    -528.9325   -300.54211    122.17084    32.329663    159.14666      46.7237      46.7237      46.7237           90           90           90     102002.7   -503.01942 
  972000       971500   -10443.127    872.82278   -11315.949    4169.3352   -15485.285    91.906451   -522.67561   -322.09086   -433.73611   -75.768374   -130.91627   -248.27046      46.7237      46.7237      46.7237           90           90           90     102002.7   -426.16753 
  973000       972500   -10408.662    889.02091   -11297.683    4200.6389   -15498.322    93.612082   -480.66203   -715.51972   -770.71624    34.167586   -61.427699   -108.72924      46.7237      46.7237      46.7237           90           90           90     102002.7   -655.63266 
  974000       973500   -10467.768    839.97894   -11307.746    4183.9301   -15491.677    88.448063   -989.63808   -690.21431    7.4068816   -183.79044    -120.6431   -7.0431011      46.7237      46.7237      46.7237           90           90           90     102002.7   -557.48183 
  975000       974500   -10423.067    896.86758   -11319.935    4178.0079   -15497.942     94.43832   -378.23131   -275.10575   -862.96706   -311.76883    -68.17139   -100.38966      46.7237      46.7237      46.7237           90           90           90     102002.7   -505.43471 
  976000       975500   -10475.129    846.13692   -11321.266    4166.9341     -15488.2    89.096485   -503.93969   -615.82026   -311.01502   -60.787352   -81.190591    11.283343      46.7237      46.7237      46.7237           90           90           90     102002.7   -476.92499 
  977000       976500   -10472.494    857.39643    -11329.89    4158.9974   -15488.888    90.282088   -646.76292   -646.57223   -666.47377   -139.93792    23.699145     58.42329      46.7237      46.7237      46.7237           90           90           90     102002.7   -653.26964 
  978000       977500   -10446.531    889.46228   -11335.993     4170.026   -15506.019    93.658557   -285.04635   -797.63527   -518.55765   -12.358346    72.509849   -89.120613      46.7237      46.7237      46.7237           90           90           90     102002.7   -533.74642 
  979000       978500   -10440.237    863.28555   -11303.522    4176.8716   -15480.394    90.902201   -401.74493   -937.10773   -227.45728   -107.01241    156.43532     60.18475      46.7237      46.7237      46.7237           90           90           90     102002.7   -522.10331 
  980000       979500   -10435.518     868.0919    -11303.61    4176.4507   -15480.061      91.4083   -2.9559977   -449.91066   -699.76953   -35.625608    140.14389    220.87498      46.7237      46.7237      46.7237           90           90           90     102002.7   -384.21206 
  981000       980500   -10437.167    877.22518   -11314.392    4172.0086     -15486.4    92.370015   -384.50753   -383.00684   -568.95179    233.14154    192.04466    18.454874      46.7237      46.7237      46.7237           90           90           90     102002.7   -445.48872 
  982000       981500   -10466.633    859.86779     -11326.5    4166.2661   -15492.766    90.542317   -492.84933   -501.63058   -900.87946    111.53285    70.782702   -68.019117      46.7237      46.7237      46.7237           90           90           90     102002.7   -631.78646 
  983000       982500    -10483.12    850.74862   -11333.869    4163.1843   -15497.053    89.582088   -370.85723   -570.06315   -229.34632    24.095507   -182.07494    -225.4966      46.7237      46.7237      46.7237           90           90           90     102002.7    -390.0889 
  984000       983500   -10466.402    872.40888   -11338.811    4167.2925   -15506.103    91.862869   -795.83625   -411.53736   -917.95817    149.57657    129.28383    146.29605      46.7237      46.7237      46.7237           90           90           90     102002.7   -708.44393 
  985000       984500   -10436.779    881.42021   -11318.199    4163.3386   -15481.538    92.811743    -348.6755   -128.57631   -747.21527    91.347441    93.757451   -142.85708      46.7237      46.7237      46.7237           90           90           90     102002.7   -408.15569 
  986000       985500   -10454.143    856.36693    -11310.51    4186.8222   -15497.332    90.173684   -483.33752   -747.28375   -596.04888    176.91983    36.926095    57.874165      46.7237      46.7237      46.7237           90           90           90     102002.7   -608.89005 
  987000       986500   -10448.085    853.79416   -11301.879    4183.3597   -15485.239    89.902777   -547.61782   -294.89969   -1264.8658   -63.913647    38.180257   -226.60245      46.7237      46.7237      46.7237           90           90           90     102002.7   -702.46112 
  988000       987500   -10448.649     876.7672   -11325.417    4190.7615   -15516.178    92.321791   -337.68546   -866.52149   -759.72784   -120.26959    18.427588    202.08614      46.7237      46.7237      46.7237           90           90           90     102002.7   -654.64493 
  989000       988500   -10458.982    861.01137   -11319.993    4169.1317   -15489.125    90.662735   -487.78327   -933.55953   -802.35705    137.01442    159.76118   -121.45455      46.7237      46.7237      46.7237           90           90           90     102002.7   -741.23328 
  990000       989500   -10444.313     890.9967    -11335.31    4175.9688   -15511.279    93.820129   -764.39831   -497.58444   -1267.3444   -78.009175   -63.697011   -263.39256      46.7237      46.7237      46.7237           90           90           90     102002.7   -843.10904 
  991000       990500   -10457.324    843.01241   -11300.337    4174.5784   -15474.915    88.767481   -435.13772   -756.53631   -527.23461    107.16697   -52.004695   -59.160111      46.7237      46.7237      46.7237           90           90           90     102002.7   -572.96955 
  992000       991500   -10459.509    881.19692   -11340.706    4165.2545   -15505.961    92.788231   -475.04956   -449.88567   -1061.0598   -90.412262   -152.83188     51.49699      46.7237      46.7237      46.7237           90           90           90     102002.7   -661.99833 
  993000       992500   -10449.623    866.62417   -11316.247    4178.5803   -15494.827    91.253751   -307.63204   -391.07787   -449.89212    28.086128    -66.36901    40.191614      46.7237      46.7237      46.7237           90           90           90     102002.7   -382.86734 
  994000       993500   -10451.347    860.94651   -11312.294     4189.511   -15501.805    90.655904    -234.1878   -515.05097   -333.82818    5.5313742   -87.941635   -240.60489      46.7237      46.7237      46.7237           90           90           90     102002.7   -361.02232 
  995000       994500   -10442.105    866.71268   -11308.818    4193.8846   -15502.703    91.263071   -763.74878   -778.91996   -920.57894   -151.92109   -25.484863    69.556573      46.7237      46.7237      46.7237           90           90           90     102002.7   -821.08256 
  996000       995500   -10496.377    855.99815   -11352.375    4168.1816   -15520.557    90.134853   -1176.4885   -813.56325   -366.79547   -56.823057    44.426851    36.931361      46.7237      46.7237      46.7237           90           90           90     102002.7   -785.61574 
  997000       996500   -10469.966    850.16396    -11320.13    4165.1591   -15485.289    89.520525   -724.88023   -985.27223   -239.54632    67.541445   -136.36962    164.34003      46.7237      46.7237      46.7237           90           90           90     102002.7   -649.89959 
  998000       997500   -10456.989    856.13223   -11313.121    4184.0844   -15497.205    90.148971   -862.81155   -1040.7273   -501.30136     88.65381    113.51526    38.878216      46.7237      46.7237      46.7237           90           90           90     102002.7    -801.6134 
  999000       998500   -10465.558    856.91313   -11322.471    4169.8988    -15492.37    90.231199   -688.59776   -943.55677   -222.92299   -97.044873   -72.411707   -27.558044      46.7237      46.7237      46.7237           90           90           90     102002.7   -618.35917 
 1000000       999500   -10459.514    851.75642    -11311.27     4167.967   -15479.237    89.688207   -1063.0144   -986.16947   -170.98396    12.975933     1.505596   -49.029734      46.7237      46.7237      46.7237           90           90           90     102002.7   -740.05593 
 1000500      1000000   -10438.949    870.62615   -11309.575    4185.8655    -15495.44    91.675152   -560.32285   -351.72556   -116.34883    30.267872    74.137971    125.47042      46.7237      46.7237      46.7237           90           90           90     102002.7   -342.79908 
Loop time of 2263.77 on 16 procs for 500000 steps with 3187 atoms

Performance: 19.083 ns/day, 1.258 hours/ns, 220.871 timesteps/s
99.8% CPU use with 16 MPI tasks x no OpenMP threads

MPI task timing breakdown:
Section |  min time  |  avg time  |  max time  |%varavg| %total
---------------------------------------------------------------
Pair    | 1062.5     | 1462.6     | 1755.6     | 520.4 | 64.61
Bond    | 75.266     | 183.89     | 259.78     | 438.0 |  8.12
Neigh   | 15.224     | 15.261     | 15.307     |   0.8 |  0.67
Comm    | 203.82     | 568.8      | 1075.7     |1042.4 | 25.13
Output  | 0.13449    | 0.14114    | 0.14183    |   0.5 |  0.01
Modify  | 24.25      | 26.099     | 27.886     |  27.1 |  1.15
Other   |            | 6.99       |            |       |  0.31

Nlocal:    199.188 ave 266 max 154 min
Histogram: 3 1 4 1 0 2 2 2 0 1
Nghost:    4030.19 ave 4074 max 3962 min
Histogram: 1 0 0 5 1 0 0 4 1 4
Neighs:    11462.6 ave 16618 max 7971 min
Histogram: 3 2 1 1 3 1 4 0 0 1

Total # of neighbors = 183402
Ave neighs/atom = 57.5469
Ave special neighs/atom = 3.61468
Neighbor list builds = 4208
Dangerous builds = 0
Total wall time: 1:08:38
