LAMMPS (30 Mar 2018)
Reading data file ...
  orthogonal box = (0 0 0) to (46.7237 46.7237 46.7237)
  2 by 3 by 4 MPI processor grid
  reading atoms ...
  3132 atoms
  scanning bonds ...
  5 = max bonds/atom
  scanning angles ...
  10 = max angles/atom
  scanning dihedrals ...
  32 = max dihedrals/atom
  scanning impropers ...
  3 = max impropers/atom
  reading bonds ...
  2064 bonds
  reading angles ...
  3696 angles
  reading dihedrals ...
  6240 dihedrals
  reading impropers ...
  1008 impropers
Finding 1-2 1-3 1-4 neighbors ...
  special bond factors lj:   0          0          0         
  special bond factors coul: 0          0          0         
  5 = max # of 1-2 neighbors
  8 = max # of 1-3 neighbors
  20 = max # of 1-4 neighbors
  19 = max # of special neighbors
Finding 1-2 1-3 1-4 neighbors ...
  special bond factors lj:   0          0          1         
  special bond factors coul: 1          1          1         
  5 = max # of 1-2 neighbors
  8 = max # of 1-3 neighbors
  19 = max # of special neighbors
WARNING: Using 'neigh_modify every 1 delay 0 check yes' setting during minimization (../min.cpp:168)
Neighbor list info ...
  update every 1 steps, delay 0 steps, check yes
  max neighbors/atom: 2000, page size: 100000
  master list distance cutoff = 16
  ghost atom cutoff = 16
  binsize = 8, bins = 6 6 6
  3 neighbor lists, perpetual/occasional/extra = 3 0 0
  (1) pair buck6d/coul/gauss/dsf, perpetual, skip from (3)
      attributes: half, newton on
      pair build: skip
      stencil: none
      bin: none
  (2) pair lj/cut, perpetual, skip from (3)
      attributes: half, newton on
      pair build: skip
      stencil: none
      bin: none
  (3) neighbor class addition, perpetual
      attributes: half, newton on
      pair build: half/bin/newton
      stencil: half/bin/3d/newton
      bin: standard
Setting up cg style minimization ...
  Unit style    : real
  Current step  : 0
WARNING: Inconsistent image flags (../domain.cpp:786)
Per MPI rank memory allocation (min/avg/max) = 22.97 | 23.34 | 24.52 Mbytes
Step Temp E_pair E_mol TotEng Press 
       0            0   -15220.642    6482.8914   -8737.7501    5970.8553 
     500            0   -15618.451    3730.7963   -11887.654   -2033.5537 
Loop time of 1.92762 on 24 procs for 500 steps with 3132 atoms

98.1% CPU use with 24 MPI tasks x no OpenMP threads

Minimization stats:
  Stopping criterion = max force evaluations
  Energy initial, next-to-last, final = 
        -8737.75013245      -11887.535951      -11887.654327
  Force two-norm initial, final = 2575.27 14.622
  Force max component initial, final = 152.367 2.08115
  Final line search alpha, max atom move = 0.00331896 0.00690727
  Iterations, force evaluations = 500 1000

MPI task timing breakdown:
Section |  min time  |  avg time  |  max time  |%varavg| %total
---------------------------------------------------------------
Pair    | 0.74739    | 1.0956     | 1.4694     |  13.2 | 56.84
Bond    | 0.10192    | 0.15783    | 0.2108     |   7.0 |  8.19
Neigh   | 0.017608   | 0.018189   | 0.018714   |   0.3 |  0.94
Comm    | 0.19451    | 0.61959    | 1.0241     |  19.3 | 32.14
Output  | 0          | 0          | 0          |   0.0 |  0.00
Modify  | 0          | 0          | 0          |   0.0 |  0.00
Other   |            | 0.0364     |            |       |  1.89

Nlocal:    130.5 ave 153 max 96 min
Histogram: 1 0 1 1 3 4 7 4 2 1
Nghost:    3488 ave 3662 max 3391 min
Histogram: 13 2 1 0 0 0 0 0 0 8
Neighs:    7648 ave 11361 max 3835 min
Histogram: 3 1 2 0 6 4 2 1 2 3

Total # of neighbors = 183552
Ave neighs/atom = 58.6054
Ave special neighs/atom = 3.67816
Neighbor list builds = 11
Dangerous builds = 0
Neighbor list info ...
  update every 1 steps, delay 10 steps, check yes
  max neighbors/atom: 2000, page size: 100000
  master list distance cutoff = 16
  ghost atom cutoff = 16
  binsize = 8, bins = 6 6 6
  3 neighbor lists, perpetual/occasional/extra = 3 0 0
  (1) pair buck6d/coul/gauss/dsf, perpetual, skip from (3)
      attributes: half, newton on
      pair build: skip
      stencil: none
      bin: none
  (2) pair lj/cut, perpetual, skip from (3)
      attributes: half, newton on
      pair build: skip
      stencil: none
      bin: none
  (3) neighbor class addition, perpetual
      attributes: half, newton on
      pair build: half/bin/newton
      stencil: half/bin/3d/newton
      bin: standard
Setting up Verlet run ...
  Unit style    : real
  Current step  : 500
  Time step     : 1
WARNING: Inconsistent image flags (../domain.cpp:786)
Per MPI rank memory allocation (min/avg/max) = 22.59 | 22.81 | 23.4 Mbytes
Step Temp PotEng TotEng Press Volume Lx Ly Lz 
     500          110   -11887.654   -10861.034   -1573.4759     102002.7      46.7237      46.7237      46.7237 
    1000    93.832167   -11046.627   -10170.899   -423.73436     102002.7      46.7237      46.7237      46.7237 
    2000    111.81504   -10899.698   -9856.1376   -459.16741     102002.7      46.7237      46.7237      46.7237 
    3000    107.96124   -10939.252    -9931.659   -235.88996     102002.7      46.7237      46.7237      46.7237 
    4000    111.11267   -10894.334   -9857.3291   -250.07291     102002.7      46.7237      46.7237      46.7237 
    5000    113.06966   -10936.931   -9881.6613   -486.89725     102002.7      46.7237      46.7237      46.7237 
    6000    110.19865   -10916.853   -9888.3783   -101.93292     102002.7      46.7237      46.7237      46.7237 
    7000    110.24302   -10941.111   -9912.2221   -226.40613     102002.7      46.7237      46.7237      46.7237 
    8000    108.48732   -10914.294   -9901.7912   -476.24017     102002.7      46.7237      46.7237      46.7237 
    9000    112.50116   -10919.166   -9869.2024   -384.07803     102002.7      46.7237      46.7237      46.7237 
   10000    109.73498   -10902.371   -9878.2234   -281.21719     102002.7      46.7237      46.7237      46.7237 
   11000    108.42009   -10904.354    -9892.478    151.99826     102002.7      46.7237      46.7237      46.7237 
   12000    108.81442   -10950.939   -9935.3832   -492.70417     102002.7      46.7237      46.7237      46.7237 
   13000    108.26992    -10907.46   -9896.9862   -326.94607     102002.7      46.7237      46.7237      46.7237 
   14000    108.32106   -10948.656   -9937.7048   -391.71954     102002.7      46.7237      46.7237      46.7237 
   15000    111.26743   -10946.456   -9908.0062   -573.20766     102002.7      46.7237      46.7237      46.7237 
   16000    111.60804   -10936.809   -9895.1801   -369.01471     102002.7      46.7237      46.7237      46.7237 
   17000    108.30653   -10916.679   -9905.8628   -872.23061     102002.7      46.7237      46.7237      46.7237 
   18000     112.0481   -10945.192    -9899.456   -750.17949     102002.7      46.7237      46.7237      46.7237 
   19000    109.81327   -10922.242   -9897.3638   -571.29613     102002.7      46.7237      46.7237      46.7237 
   20000    111.72516   -10922.007   -9879.2858   -342.59454     102002.7      46.7237      46.7237      46.7237 
   21000    109.28974   -10938.024   -9918.0323   -356.35873     102002.7      46.7237      46.7237      46.7237 
   22000    107.54596   -10932.327   -9928.6093   -491.20961     102002.7      46.7237      46.7237      46.7237 
   23000    112.11183   -10920.204   -9873.8737   -448.63494     102002.7      46.7237      46.7237      46.7237 
   24000    107.21241   -10919.948   -9919.3432   -405.30632     102002.7      46.7237      46.7237      46.7237 
   25000    108.35753   -10934.235   -9922.9429   -197.63345     102002.7      46.7237      46.7237      46.7237 
   26000    111.03968   -10946.088   -9909.7643   -206.57674     102002.7      46.7237      46.7237      46.7237 
   27000    110.46682   -10923.839   -9892.8618   -323.25611     102002.7      46.7237      46.7237      46.7237 
   28000    112.09375   -10919.176    -9873.014   -391.28604     102002.7      46.7237      46.7237      46.7237 
   29000      108.611   -10921.396   -9907.7391   -476.60737     102002.7      46.7237      46.7237      46.7237 
   30000    108.51398   -10934.836   -9922.0845   -579.50737     102002.7      46.7237      46.7237      46.7237 
   31000     109.7996   -10938.201   -9913.4504   -547.07212     102002.7      46.7237      46.7237      46.7237 
   32000    112.05342   -10928.414    -9882.629   -158.85395     102002.7      46.7237      46.7237      46.7237 
   33000    110.56864   -10919.683   -9887.7552   -329.25233     102002.7      46.7237      46.7237      46.7237 
   34000    110.26028    -10912.11   -9883.0602   -457.22374     102002.7      46.7237      46.7237      46.7237 
   35000    110.28667   -10903.103   -9873.8072   -296.09661     102002.7      46.7237      46.7237      46.7237 
   36000    109.59332   -10938.408   -9915.5831   -301.83131     102002.7      46.7237      46.7237      46.7237 
   37000    110.93147   -10938.506   -9903.1916   -497.24018     102002.7      46.7237      46.7237      46.7237 
   38000    109.43796   -10953.639   -9932.2636   -705.39303     102002.7      46.7237      46.7237      46.7237 
   39000    111.23112    -10937.86   -9899.7495   -666.71883     102002.7      46.7237      46.7237      46.7237 
   40000    111.58485   -10926.341   -9884.9289   -325.57312     102002.7      46.7237      46.7237      46.7237 
   41000    107.68673   -10928.281   -9923.2503   -304.96021     102002.7      46.7237      46.7237      46.7237 
   42000     110.0294   -10941.001   -9914.1057   -635.52324     102002.7      46.7237      46.7237      46.7237 
   43000    110.07746   -10927.488   -9900.1438   -517.75017     102002.7      46.7237      46.7237      46.7237 
   44000    110.46488   -10918.291   -9887.3311   -253.73194     102002.7      46.7237      46.7237      46.7237 
   45000    110.47576   -10936.683   -9905.6218   -476.95793     102002.7      46.7237      46.7237      46.7237 
   46000    109.22499   -10920.376   -9900.9885   -979.12219     102002.7      46.7237      46.7237      46.7237 
   47000    108.16703   -10897.268   -9887.7542   -567.34304     102002.7      46.7237      46.7237      46.7237 
   48000     109.9107   -10912.195   -9886.4074   -526.57364     102002.7      46.7237      46.7237      46.7237 
   49000    108.73078   -10923.576   -9908.8006   -418.46041     102002.7      46.7237      46.7237      46.7237 
   50000    111.15541    -10940.15   -9902.7457   -542.77437     102002.7      46.7237      46.7237      46.7237 
   51000    108.37718    -10922.89   -9911.4145   -524.46511     102002.7      46.7237      46.7237      46.7237 
   52000    111.92925   -10930.903   -9886.2763   -267.91893     102002.7      46.7237      46.7237      46.7237 
   53000    108.59057   -10923.865   -9910.3987   -582.85766     102002.7      46.7237      46.7237      46.7237 
   54000    109.82323   -10915.335   -9890.3636   -411.91752     102002.7      46.7237      46.7237      46.7237 
   55000    110.12833   -10913.949   -9886.1303   -376.61414     102002.7      46.7237      46.7237      46.7237 
   56000    109.72038   -10936.529   -9912.5181   -803.72703     102002.7      46.7237      46.7237      46.7237 
   57000    110.13415   -10887.077   -9859.2044   -367.19446     102002.7      46.7237      46.7237      46.7237 
   58000    110.79983   -10939.312   -9905.2267   -453.97496     102002.7      46.7237      46.7237      46.7237 
   59000    109.17047   -10914.344   -9895.4655   -305.91118     102002.7      46.7237      46.7237      46.7237 
   60000    112.51201   -10922.389   -9872.3243   -550.77414     102002.7      46.7237      46.7237      46.7237 
   61000    109.29002   -10922.609   -9902.6147   -491.27316     102002.7      46.7237      46.7237      46.7237 
   62000    111.34456   -10908.334   -9869.1648   -231.86704     102002.7      46.7237      46.7237      46.7237 
   63000    110.54084   -10892.066   -9860.3972   -394.07617     102002.7      46.7237      46.7237      46.7237 
   64000    111.47233   -10937.916   -9897.5544   -540.89536     102002.7      46.7237      46.7237      46.7237 
   65000    112.03041    -10924.95   -9879.3796   -232.39623     102002.7      46.7237      46.7237      46.7237 
   66000    110.61491   -10929.312   -9896.9527   -483.95027     102002.7      46.7237      46.7237      46.7237 
   67000    107.62097   -10934.786   -9930.3683   -596.62011     102002.7      46.7237      46.7237      46.7237 
   68000    108.78433   -10899.551   -9884.2756   -240.88104     102002.7      46.7237      46.7237      46.7237 
   69000    111.09861   -10911.272   -9874.3975   -569.31329     102002.7      46.7237      46.7237      46.7237 
   70000    111.41337   -10956.105    -9916.293   -441.80807     102002.7      46.7237      46.7237      46.7237 
   71000    106.86724   -10903.151   -9905.7678   -440.60533     102002.7      46.7237      46.7237      46.7237 
   72000    107.75993   -10937.061   -9931.3468   -468.55313     102002.7      46.7237      46.7237      46.7237 
   73000    109.79035   -10921.594   -9896.9301   -329.22662     102002.7      46.7237      46.7237      46.7237 
   74000    112.59608   -10942.896   -9892.0467   -511.22028     102002.7      46.7237      46.7237      46.7237 
   75000    111.95776   -10904.519   -9859.6269   -576.20191     102002.7      46.7237      46.7237      46.7237 
   76000    110.39963   -10924.542   -9894.1917   -178.38929     102002.7      46.7237      46.7237      46.7237 
   77000    110.18171   -10920.439   -9892.1219   -437.64762     102002.7      46.7237      46.7237      46.7237 
   78000    108.71459   -10952.362   -9937.7378   -627.11572     102002.7      46.7237      46.7237      46.7237 
   79000     110.5741   -10940.616   -9908.6368   -480.61241     102002.7      46.7237      46.7237      46.7237 
   80000    107.19771   -10928.093   -9927.6256   -243.22323     102002.7      46.7237      46.7237      46.7237 
   81000    111.63362   -10946.766   -9904.8992   -831.83663     102002.7      46.7237      46.7237      46.7237 
   82000    111.51122   -10946.453   -9905.7277   -564.35765     102002.7      46.7237      46.7237      46.7237 
   83000    109.64849   -10924.804   -9901.4638   -608.92171     102002.7      46.7237      46.7237      46.7237 
   84000    108.27069   -10930.318   -9919.8366   -430.32094     102002.7      46.7237      46.7237      46.7237 
   85000    111.08475   -10922.422   -9885.6769   -293.45968     102002.7      46.7237      46.7237      46.7237 
   86000    112.49885   -10919.304   -9869.3612   -392.57196     102002.7      46.7237      46.7237      46.7237 
   87000    109.81079    -10908.16   -9883.3056    -420.5449     102002.7      46.7237      46.7237      46.7237 
   88000    108.84979   -10924.364   -9908.4785   -241.95581     102002.7      46.7237      46.7237      46.7237 
   89000    109.64336   -10934.312   -9911.0195   -500.21583     102002.7      46.7237      46.7237      46.7237 
   90000    107.89942   -10926.766   -9919.7498   -408.88272     102002.7      46.7237      46.7237      46.7237 
   91000    109.17047   -10909.853   -9890.9737   -460.73528     102002.7      46.7237      46.7237      46.7237 
   92000    108.27913     -10934.5   -9923.9399   -519.40364     102002.7      46.7237      46.7237      46.7237 
   93000    108.02414   -10913.736   -9905.5554   -500.63281     102002.7      46.7237      46.7237      46.7237 
   94000    109.89347   -10912.904   -9887.2774   -650.32059     102002.7      46.7237      46.7237      46.7237 
   95000    108.46436   -10916.463   -9904.1743   -377.35993     102002.7      46.7237      46.7237      46.7237 
   96000    112.45807   -10915.379    -9865.817   -429.61581     102002.7      46.7237      46.7237      46.7237 
   97000    109.38335   -10914.456   -9893.5906   -368.54151     102002.7      46.7237      46.7237      46.7237 
   98000    110.32913   -10946.914   -9917.2217   -488.47583     102002.7      46.7237      46.7237      46.7237 
   99000    110.86858    -10922.31   -9887.5826   -345.07468     102002.7      46.7237      46.7237      46.7237 
  100000    109.71439   -10929.406   -9905.4507   -425.02498     102002.7      46.7237      46.7237      46.7237 
  101000    105.92877   -10926.915   -9938.2906   -321.50666     102002.7      46.7237      46.7237      46.7237 
  102000    112.07919   -10903.898   -9857.8724   -346.85564     102002.7      46.7237      46.7237      46.7237 
  103000    109.19988   -10916.252   -9897.0984   -421.66568     102002.7      46.7237      46.7237      46.7237 
  104000    112.47103   -10927.055   -9877.3726   -127.55099     102002.7      46.7237      46.7237      46.7237 
  105000     111.1307    -10893.45   -9856.2766   -118.50484     102002.7      46.7237      46.7237      46.7237 
  106000    108.57095    -10927.94   -9914.6566   -544.69512     102002.7      46.7237      46.7237      46.7237 
  107000    110.55941    -10911.41   -9879.5687   -517.31213     102002.7      46.7237      46.7237      46.7237 
  108000    107.84957   -10918.091   -9911.5397   -530.21717     102002.7      46.7237      46.7237      46.7237 
  109000    108.98273   -10934.981   -9917.8548   -458.50498     102002.7      46.7237      46.7237      46.7237 
  110000      113.324    -10920.73   -9863.0862   -447.38338     102002.7      46.7237      46.7237      46.7237 
  111000    108.61419   -10922.021   -9908.3338   -494.86487     102002.7      46.7237      46.7237      46.7237 
  112000    107.43361   -10923.851   -9921.1826   -535.27999     102002.7      46.7237      46.7237      46.7237 
  113000     110.1873   -10944.458   -9916.0894   -272.61374     102002.7      46.7237      46.7237      46.7237 
  114000    109.50594   -10947.063   -9925.0536   -498.49998     102002.7      46.7237      46.7237      46.7237 
  115000    110.44958   -10938.929   -9908.1128   -469.95907     102002.7      46.7237      46.7237      46.7237 
  116000    109.18654   -10905.923   -9886.8941   -422.77096     102002.7      46.7237      46.7237      46.7237 
  117000    111.47034   -10942.749   -9902.4057   -398.89901     102002.7      46.7237      46.7237      46.7237 
  118000    107.46233   -10927.696   -9924.7593   -390.18177     102002.7      46.7237      46.7237      46.7237 
  119000    109.48563   -10919.751   -9897.9313   -347.55605     102002.7      46.7237      46.7237      46.7237 
  120000    111.63692   -10940.992   -9899.0941   -208.97019     102002.7      46.7237      46.7237      46.7237 
  121000    108.04599   -10931.202   -9922.8176   -398.50149     102002.7      46.7237      46.7237      46.7237 
  122000    108.06677   -10923.292   -9914.7143    -280.8563     102002.7      46.7237      46.7237      46.7237 
  123000    109.54628    -10937.49   -9915.1036   -421.81883     102002.7      46.7237      46.7237      46.7237 
  124000    108.35715   -10926.215   -9914.9269   -401.97335     102002.7      46.7237      46.7237      46.7237 
  125000    112.35622   -10945.404   -9896.7928    -452.1234     102002.7      46.7237      46.7237      46.7237 
  126000    110.64593   -10937.161   -9904.5121   -344.17604     102002.7      46.7237      46.7237      46.7237 
  127000    110.61574   -10905.921    -9873.554   -297.27754     102002.7      46.7237      46.7237      46.7237 
  128000    110.60193   -10924.992   -9892.7533   -294.73264     102002.7      46.7237      46.7237      46.7237 
  129000    109.14581   -10923.185   -9904.5362   -290.11683     102002.7      46.7237      46.7237      46.7237 
  130000    110.23495    -10887.37   -9858.5569    -418.6747     102002.7      46.7237      46.7237      46.7237 
  131000    109.55861   -10918.555   -9896.0541   -788.96596     102002.7      46.7237      46.7237      46.7237 
  132000    109.46462   -10926.203   -9904.5792   -391.88636     102002.7      46.7237      46.7237      46.7237 
  133000    110.23358   -10915.898   -9887.0972   -360.24563     102002.7      46.7237      46.7237      46.7237 
  134000    109.32034   -10927.931   -9907.6536   -480.99776     102002.7      46.7237      46.7237      46.7237 
  135000    107.78055   -10947.141   -9941.2337   -258.07424     102002.7      46.7237      46.7237      46.7237 
  136000    110.98388   -10927.267   -9891.4637    -603.6405     102002.7      46.7237      46.7237      46.7237 
  137000    108.54624   -10957.164   -9944.1113   -423.00917     102002.7      46.7237      46.7237      46.7237 
  138000    109.21325   -10927.921   -9908.6433   -503.48637     102002.7      46.7237      46.7237      46.7237 
  139000    110.66278   -10920.012   -9887.2055   -738.04214     102002.7      46.7237      46.7237      46.7237 
  140000    111.98487   -10928.819   -9883.6736   -409.30223     102002.7      46.7237      46.7237      46.7237 
  141000    110.52143   -10925.567   -9894.0795   -631.91861     102002.7      46.7237      46.7237      46.7237 
  142000    110.79123   -10937.553   -9903.5474   -608.70922     102002.7      46.7237      46.7237      46.7237 
  143000    112.62647   -10928.953   -9877.8193    -416.1979     102002.7      46.7237      46.7237      46.7237 
  144000    110.46528   -10932.035   -9901.0717   -729.80841     102002.7      46.7237      46.7237      46.7237 
  145000    110.94891   -10926.476   -9890.9992   -470.48184     102002.7      46.7237      46.7237      46.7237 
  146000    110.22766   -10936.972    -9908.226   -511.77513     102002.7      46.7237      46.7237      46.7237 
  147000     109.6945   -10935.502   -9911.7324   -703.31954     102002.7      46.7237      46.7237      46.7237 
  148000    111.08988   -10931.497   -9894.7047   -421.25368     102002.7      46.7237      46.7237      46.7237 
  149000    107.91965     -10938.7   -9931.4952   -400.37969     102002.7      46.7237      46.7237      46.7237 
  150000    109.61428   -10924.352   -9901.3315   -387.42154     102002.7      46.7237      46.7237      46.7237 
  151000    109.32472    -10971.02    -9950.702    -745.1217     102002.7      46.7237      46.7237      46.7237 
  152000    109.25018   -10916.621   -9896.9983   -398.34858     102002.7      46.7237      46.7237      46.7237 
  153000    110.25174   -10910.237   -9881.2667   -595.49896     102002.7      46.7237      46.7237      46.7237 
  154000    110.99551   -10916.595   -9880.6834   -279.20496     102002.7      46.7237      46.7237      46.7237 
  155000    107.52219   -10929.183   -9925.6876   -473.41268     102002.7      46.7237      46.7237      46.7237 
  156000    109.54125   -10909.986    -9887.647    -533.0657     102002.7      46.7237      46.7237      46.7237 
  157000    109.08264   -10920.136   -9902.0773     -659.816     102002.7      46.7237      46.7237      46.7237 
  158000    109.91457   -10925.739   -9899.9158   -535.52343     102002.7      46.7237      46.7237      46.7237 
  159000    113.45475   -10911.561   -9852.6971   -248.87294     102002.7      46.7237      46.7237      46.7237 
  160000    110.50985   -10925.095    -9893.716   -390.41957     102002.7      46.7237      46.7237      46.7237 
  161000    109.92091   -10936.049   -9910.1668   -415.30395     102002.7      46.7237      46.7237      46.7237 
  162000    108.61719   -10891.786   -9878.0706    -389.6415     102002.7      46.7237      46.7237      46.7237 
  163000    110.18648   -10920.301   -9891.9402   -458.13381     102002.7      46.7237      46.7237      46.7237 
  164000    109.25685   -10920.918    -9901.233   -512.79663     102002.7      46.7237      46.7237      46.7237 
  165000    110.08112   -10915.605   -9888.2272   -723.73397     102002.7      46.7237      46.7237      46.7237 
  166000    109.57019   -10914.572   -9891.9626   -662.95802     102002.7      46.7237      46.7237      46.7237 
  167000     111.1329   -10913.212   -9876.0179   -417.32814     102002.7      46.7237      46.7237      46.7237 
  168000    110.54883   -10929.144   -9897.4008   -526.77322     102002.7      46.7237      46.7237      46.7237 
  169000    112.54786     -10935.2   -9884.8005   -201.83982     102002.7      46.7237      46.7237      46.7237 
  170000    108.11579   -10929.031   -9919.9953   -395.17168     102002.7      46.7237      46.7237      46.7237 
  171000    107.21321   -10932.897   -9932.2851   -635.04821     102002.7      46.7237      46.7237      46.7237 
  172000     108.7519   -10901.246   -9886.2738   -736.91789     102002.7      46.7237      46.7237      46.7237 
  173000    109.99957   -10949.049   -9922.4321   -722.34309     102002.7      46.7237      46.7237      46.7237 
  174000    109.23159   -10940.378   -9920.9287    -369.8364     102002.7      46.7237      46.7237      46.7237 
  175000    108.08113   -10906.582   -9897.8698   -476.95094     102002.7      46.7237      46.7237      46.7237 
  176000       112.11   -10932.426   -9886.1123    -620.6331     102002.7      46.7237      46.7237      46.7237 
  177000    111.73789   -10931.658   -9888.8174   -419.60314     102002.7      46.7237      46.7237      46.7237 
  178000    107.17169    -10908.13   -9907.9052   -708.03424     102002.7      46.7237      46.7237      46.7237 
  179000    109.10861   -10901.108   -9882.8068    -616.0613     102002.7      46.7237      46.7237      46.7237 
  180000    111.76756   -10938.543   -9895.4262   -524.86432     102002.7      46.7237      46.7237      46.7237 
  181000    110.77112   -10928.847   -9895.0295   -524.68286     102002.7      46.7237      46.7237      46.7237 
  182000    111.73002   -10924.417   -9881.6498   -419.94387     102002.7      46.7237      46.7237      46.7237 
  183000    109.91463   -10925.842   -9900.0178   -381.69509     102002.7      46.7237      46.7237      46.7237 
  184000    106.69919   -10896.607   -9900.7925   -521.24518     102002.7      46.7237      46.7237      46.7237 
  185000    109.28724    -10885.86   -9865.8916   -573.82436     102002.7      46.7237      46.7237      46.7237 
  186000    110.48276   -10915.477   -9884.3509   -539.76224     102002.7      46.7237      46.7237      46.7237 
  187000    110.36592   -10892.627   -9862.5912   -408.57051     102002.7      46.7237      46.7237      46.7237 
  188000    110.30975   -10923.351   -9893.8397   -662.48004     102002.7      46.7237      46.7237      46.7237 
  189000    108.97974   -10886.781   -9869.6823   -679.78534     102002.7      46.7237      46.7237      46.7237 
  190000    112.37533   -10926.678   -9877.8885   -705.11186     102002.7      46.7237      46.7237      46.7237 
  191000     109.0317    -10894.35   -9876.7668     -556.493     102002.7      46.7237      46.7237      46.7237 
  192000    109.76697   -10931.339   -9906.8932   -225.48653     102002.7      46.7237      46.7237      46.7237 
  193000    110.14261   -10948.298   -9920.3459   -657.19602     102002.7      46.7237      46.7237      46.7237 
  194000    111.67889   -10929.959   -9887.6696   -318.19902     102002.7      46.7237      46.7237      46.7237 
  195000    108.12374   -10898.749   -9889.6394   -397.00624     102002.7      46.7237      46.7237      46.7237 
  196000    109.84755   -10936.225   -9911.0266   -598.64916     102002.7      46.7237      46.7237      46.7237 
  197000    111.56161   -10946.297   -9905.1017   -661.93997     102002.7      46.7237      46.7237      46.7237 
  198000    111.14988   -10928.535    -9891.182   -783.06232     102002.7      46.7237      46.7237      46.7237 
  199000    111.22956   -10915.128   -9877.0319   -692.50304     102002.7      46.7237      46.7237      46.7237 
  200000    106.87349   -10939.175   -9941.7333   -610.05385     102002.7      46.7237      46.7237      46.7237 
  201000    110.52226   -10939.386   -9907.8907   -848.87352     102002.7      46.7237      46.7237      46.7237 
  202000    111.16713   -10943.106   -9905.5921   -563.75758     102002.7      46.7237      46.7237      46.7237 
  203000    108.93678   -10942.297   -9925.5988    -533.3907     102002.7      46.7237      46.7237      46.7237 
  204000    109.65722   -10923.112     -9899.69   -744.00333     102002.7      46.7237      46.7237      46.7237 
  205000     111.4563   -10906.455   -9866.2427   -336.89373     102002.7      46.7237      46.7237      46.7237 
  206000    112.11182   -10947.546   -9901.2153   -338.39799     102002.7      46.7237      46.7237      46.7237 
  207000    109.28045   -10912.333   -9892.4274   -658.32379     102002.7      46.7237      46.7237      46.7237 
  208000    109.09331   -10926.692   -9908.5329   -153.66443     102002.7      46.7237      46.7237      46.7237 
  209000    109.84514   -10908.596   -9883.4206    -529.8888     102002.7      46.7237      46.7237      46.7237 
  210000    110.34218   -10916.916   -9887.1016   -520.97117     102002.7      46.7237      46.7237      46.7237 
  211000    111.28824   -10918.189   -9879.5457   -401.60734     102002.7      46.7237      46.7237      46.7237 
  212000    109.70638    -10939.74   -9915.8593   -435.74202     102002.7      46.7237      46.7237      46.7237 
  213000    110.89296   -10919.931   -9884.9759   -387.01599     102002.7      46.7237      46.7237      46.7237 
  214000     110.3127   -10909.509   -9879.9696   -363.23096     102002.7      46.7237      46.7237      46.7237 
  215000    109.15297   -10927.497   -9908.7816   -580.71505     102002.7      46.7237      46.7237      46.7237 
  216000    110.31494   -10930.997   -9901.4368   -508.07366     102002.7      46.7237      46.7237      46.7237 
  217000    110.21514   -10905.539   -9876.9108   -308.17121     102002.7      46.7237      46.7237      46.7237 
  218000     110.4886   -10903.347   -9872.1663   -654.94998     102002.7      46.7237      46.7237      46.7237 
  219000    110.29954   -10925.478   -9896.0617   -536.95747     102002.7      46.7237      46.7237      46.7237 
  220000    111.42633   -10941.249   -9901.3164   -480.94402     102002.7      46.7237      46.7237      46.7237 
  221000    110.09461   -10916.165    -9888.661   -905.53823     102002.7      46.7237      46.7237      46.7237 
  222000    111.54168   -10944.321   -9903.3115    -558.1532     102002.7      46.7237      46.7237      46.7237 
  223000    110.22647   -10917.874   -9889.1393   -841.51071     102002.7      46.7237      46.7237      46.7237 
  224000    112.83252   -10893.271   -9840.2149   -535.41676     102002.7      46.7237      46.7237      46.7237 
  225000    106.84672   -10910.177   -9912.9851   -359.01216     102002.7      46.7237      46.7237      46.7237 
  226000    109.47982   -10909.196   -9887.4303   -489.96195     102002.7      46.7237      46.7237      46.7237 
  227000    112.78493   -10938.232   -9885.6196   -558.31031     102002.7      46.7237      46.7237      46.7237 
  228000     111.3091    -10926.74   -9887.9017   -411.95262     102002.7      46.7237      46.7237      46.7237 
  229000    112.31465   -10940.989   -9892.7658   -507.55744     102002.7      46.7237      46.7237      46.7237 
  230000    109.66745   -10927.008   -9903.4904    -424.1453     102002.7      46.7237      46.7237      46.7237 
  231000    110.09577   -10940.646   -9913.1312   -302.41849     102002.7      46.7237      46.7237      46.7237 
  232000    110.18972   -10940.126   -9911.7348   -287.29939     102002.7      46.7237      46.7237      46.7237 
  233000    111.44714   -10927.356   -9887.2292   -530.79018     102002.7      46.7237      46.7237      46.7237 
  234000    108.40295   -10917.208   -9905.4922    -325.0941     102002.7      46.7237      46.7237      46.7237 
  235000    113.48891   -10953.977   -9894.7946   -196.60845     102002.7      46.7237      46.7237      46.7237 
  236000    110.21976   -10939.469   -9910.7971    -462.5453     102002.7      46.7237      46.7237      46.7237 
  237000    109.27303   -10918.251   -9898.4146    32.910778     102002.7      46.7237      46.7237      46.7237 
  238000    110.48504    -10917.19   -9886.0423   -360.11879     102002.7      46.7237      46.7237      46.7237 
  239000    109.74324   -10930.239   -9906.0149   -496.11163     102002.7      46.7237      46.7237      46.7237 
  240000    112.04861   -10921.568    -9875.828   -584.30455     102002.7      46.7237      46.7237      46.7237 
  241000    111.63289   -10927.546   -9885.6851   -660.67083     102002.7      46.7237      46.7237      46.7237 
  242000    110.39553   -10923.434   -9893.1214   -266.43025     102002.7      46.7237      46.7237      46.7237 
  243000    107.97636   -10940.553   -9932.8186   -381.72589     102002.7      46.7237      46.7237      46.7237 
  244000    110.42671   -10914.688   -9884.0852   -630.05798     102002.7      46.7237      46.7237      46.7237 
  245000    109.98337   -10940.577   -9914.1116   -607.98702     102002.7      46.7237      46.7237      46.7237 
  246000    106.28337    -10946.85   -9954.9164   -663.69391     102002.7      46.7237      46.7237      46.7237 
  247000    108.13109   -10918.722   -9909.5434   -399.13447     102002.7      46.7237      46.7237      46.7237 
  248000    110.60446    -10941.13   -9908.8674   -430.86454     102002.7      46.7237      46.7237      46.7237 
  249000    111.82924   -10921.634   -9877.9409   -495.30273     102002.7      46.7237      46.7237      46.7237 
  250000    111.07628   -10921.294    -9884.628   -469.88179     102002.7      46.7237      46.7237      46.7237 
  251000    109.41403   -10918.378   -9897.2262   -411.61763     102002.7      46.7237      46.7237      46.7237 
  252000    112.49538   -10917.989    -9868.079    -401.7643     102002.7      46.7237      46.7237      46.7237 
  253000    109.71768    -10933.91   -9909.9241   -359.50484     102002.7      46.7237      46.7237      46.7237 
  254000    113.10214   -10898.679    -9843.106   -566.88908     102002.7      46.7237      46.7237      46.7237 
  255000    111.40588    -10930.57   -9890.8286   -494.70749     102002.7      46.7237      46.7237      46.7237 
  256000    112.88248   -10903.089   -9849.5665   -606.46007     102002.7      46.7237      46.7237      46.7237 
  257000    111.40456   -10907.383   -9867.6532   -472.31682     102002.7      46.7237      46.7237      46.7237 
  258000    110.38054   -10928.759   -9898.5863   -387.84201     102002.7      46.7237      46.7237      46.7237 
  259000    108.17157   -10903.187   -9893.6306   -754.01099     102002.7      46.7237      46.7237      46.7237 
  260000    111.46806   -10933.981   -9893.6591   -488.06766     102002.7      46.7237      46.7237      46.7237 
  261000    110.92672   -10926.156   -9890.8859    -756.8784     102002.7      46.7237      46.7237      46.7237 
  262000     110.4154   -10958.727    -9928.229    -636.0486     102002.7      46.7237      46.7237      46.7237 
  263000    109.24733   -10935.987   -9916.3904   -282.62577     102002.7      46.7237      46.7237      46.7237 
  264000    111.37798   -10908.427   -9868.9454    -662.3985     102002.7      46.7237      46.7237      46.7237 
  265000    112.78786    -10913.83   -9861.1908    -718.8472     102002.7      46.7237      46.7237      46.7237 
  266000    110.37158    -10902.51   -9872.4211   -648.26304     102002.7      46.7237      46.7237      46.7237 
  267000    107.96601   -10928.194    -9920.556   -802.39356     102002.7      46.7237      46.7237      46.7237 
  268000    109.98343   -10911.221   -9884.7547   -521.21421     102002.7      46.7237      46.7237      46.7237 
  269000    108.65787   -10960.203   -9946.1082   -493.06346     102002.7      46.7237      46.7237      46.7237 
  270000    110.12893   -10922.864   -9895.0397   -399.08784     102002.7      46.7237      46.7237      46.7237 
  271000    109.18172   -10915.551   -9896.5671   -408.38684     102002.7      46.7237      46.7237      46.7237 
  272000    108.41378   -10952.876   -9941.0595   -788.66041     102002.7      46.7237      46.7237      46.7237 
  273000    108.39668   -10930.545   -9918.8874   -293.18819     102002.7      46.7237      46.7237      46.7237 
  274000    109.45005   -10897.069   -9875.5811   -449.28661     102002.7      46.7237      46.7237      46.7237 
  275000    111.46944   -10909.384    -9869.049   -494.88523     102002.7      46.7237      46.7237      46.7237 
  276000    110.33325   -10913.794   -9884.0633   -391.47234     102002.7      46.7237      46.7237      46.7237 
  277000    110.28058   -10921.996   -9892.7566   -807.75172     102002.7      46.7237      46.7237      46.7237 
  278000    110.21335   -10915.023   -9886.4109   -299.53982     102002.7      46.7237      46.7237      46.7237 
  279000    109.10313   -10912.112   -9893.8614   -785.04545     102002.7      46.7237      46.7237      46.7237 
  280000    110.85754   -10933.137    -9898.513   -555.66235     102002.7      46.7237      46.7237      46.7237 
  281000    109.54873   -10906.963    -9884.554   -316.87999     102002.7      46.7237      46.7237      46.7237 
  282000    109.63128   -10929.535   -9906.3554   -679.32642     102002.7      46.7237      46.7237      46.7237 
  283000    109.48498   -10914.275   -9892.4606   -431.25183     102002.7      46.7237      46.7237      46.7237 
  284000     112.5164   -10928.918   -9878.8121   -558.14819     102002.7      46.7237      46.7237      46.7237 
  285000    109.17699   -10934.785   -9915.8457   -425.83645     102002.7      46.7237      46.7237      46.7237 
  286000    108.98146   -10931.995   -9914.8802   -574.94119     102002.7      46.7237      46.7237      46.7237 
  287000    111.48133   -10909.583   -9869.1371   -478.91583     102002.7      46.7237      46.7237      46.7237 
  288000    107.73579   -10946.863   -9941.3737   -502.52789     102002.7      46.7237      46.7237      46.7237 
  289000    112.63592    -10936.49   -9885.2688   -581.61471     102002.7      46.7237      46.7237      46.7237 
  290000    106.97648   -10930.952   -9932.5497   -519.99151     102002.7      46.7237      46.7237      46.7237 
  291000     110.1794   -10924.533   -9896.2382    -510.1652     102002.7      46.7237      46.7237      46.7237 
  292000    110.64209   -10924.164   -9891.5504    -540.9181     102002.7      46.7237      46.7237      46.7237 
  293000    111.97551   -10919.671   -9874.6133   -427.38246     102002.7      46.7237      46.7237      46.7237 
  294000    110.87075   -10904.101   -9869.3536   -315.68309     102002.7      46.7237      46.7237      46.7237 
  295000    108.23414   -10926.768   -9916.6275    -454.1617     102002.7      46.7237      46.7237      46.7237 
  296000    108.98191    -10944.76    -9927.641   -347.81565     102002.7      46.7237      46.7237      46.7237 
  297000    110.57704   -10902.841   -9870.8345   -334.94186     102002.7      46.7237      46.7237      46.7237 
  298000    106.25606   -10911.862   -9920.1833   -355.56751     102002.7      46.7237      46.7237      46.7237 
  299000    113.96792   -10926.589   -9862.9362   -249.61258     102002.7      46.7237      46.7237      46.7237 
  300000    109.63271   -10942.114   -9918.9212   -445.97503     102002.7      46.7237      46.7237      46.7237 
  301000    107.81666   -10907.885   -9901.6408   -639.63205     102002.7      46.7237      46.7237      46.7237 
  302000    108.13124   -10911.048   -9901.8683   -502.17021     102002.7      46.7237      46.7237      46.7237 
  303000    106.45002   -10934.952   -9941.4633     -482.908     102002.7      46.7237      46.7237      46.7237 
  304000    112.03439   -10935.841   -9890.2338   -757.11621     102002.7      46.7237      46.7237      46.7237 
  305000    111.50566   -10929.458    -9888.785   -984.03526     102002.7      46.7237      46.7237      46.7237 
  306000    108.86647   -10929.451   -9913.4091   -553.78554     102002.7      46.7237      46.7237      46.7237 
  307000    111.84846   -10915.846   -9871.9732   -524.71361     102002.7      46.7237      46.7237      46.7237 
  308000    108.89549   -10950.892   -9934.5792   -344.62872     102002.7      46.7237      46.7237      46.7237 
  309000    110.91957   -10946.559   -9911.3557   -537.56707     102002.7      46.7237      46.7237      46.7237 
  310000    110.32763   -10939.682   -9910.0037   -574.82244     102002.7      46.7237      46.7237      46.7237 
  311000    113.06206   -10936.504   -9881.3049   -700.48608     102002.7      46.7237      46.7237      46.7237 
  312000    109.36436   -10921.133   -9900.4446   -400.57198     102002.7      46.7237      46.7237      46.7237 
  313000    108.30646   -10930.988   -9920.1725   -674.73301     102002.7      46.7237      46.7237      46.7237 
  314000    109.07027   -10922.528    -9904.584   -418.16189     102002.7      46.7237      46.7237      46.7237 
  315000    111.01315   -10921.588   -9885.5114   -351.98003     102002.7      46.7237      46.7237      46.7237 
  316000    111.40849   -10910.003   -9870.2369   -461.78039     102002.7      46.7237      46.7237      46.7237 
  317000    110.02084   -10916.371   -9889.5562   -400.74532     102002.7      46.7237      46.7237      46.7237 
  318000    112.29462   -10958.837   -9910.8005    -714.4539     102002.7      46.7237      46.7237      46.7237 
  319000    108.71527    -10930.53    -9915.899   -541.86314     102002.7      46.7237      46.7237      46.7237 
  320000    110.57883   -10918.753   -9886.7305   -604.62439     102002.7      46.7237      46.7237      46.7237 
  321000    111.50356   -10926.781   -9886.1273   -711.64965     102002.7      46.7237      46.7237      46.7237 
  322000     109.7973   -10952.494   -9927.7655   -675.11951     102002.7      46.7237      46.7237      46.7237 
  323000    109.85414    -10915.46   -9890.2009   -630.78707     102002.7      46.7237      46.7237      46.7237 
  324000    111.49383   -10937.194   -9896.6315   -688.81842     102002.7      46.7237      46.7237      46.7237 
  325000    109.93951   -10956.925   -9930.8691   -687.07487     102002.7      46.7237      46.7237      46.7237 
  326000    109.42553   -10921.344   -9900.0849    -507.8859     102002.7      46.7237      46.7237      46.7237 
  327000    111.01311   -10941.488   -9905.4123   -577.60979     102002.7      46.7237      46.7237      46.7237 
  328000    108.46258   -10926.341   -9914.0684   -612.62012     102002.7      46.7237      46.7237      46.7237 
  329000    110.09792   -10911.455   -9883.9203   -585.82673     102002.7      46.7237      46.7237      46.7237 
  330000    110.01554    -10944.25   -9917.4838   -625.07294     102002.7      46.7237      46.7237      46.7237 
  331000    108.55492   -10914.161   -9901.0271   -528.63387     102002.7      46.7237      46.7237      46.7237 
  332000    110.99831   -10929.349    -9893.411   -654.36304     102002.7      46.7237      46.7237      46.7237 
  333000    109.14043   -10924.635   -9906.0361   -670.79307     102002.7      46.7237      46.7237      46.7237 
  334000    111.79364   -10928.144   -9884.7835   -542.28443     102002.7      46.7237      46.7237      46.7237 
  335000    108.54844   -10901.051   -9887.9773   -275.10937     102002.7      46.7237      46.7237      46.7237 
  336000    114.80957   -10926.567   -9855.0588   -439.24972     102002.7      46.7237      46.7237      46.7237 
  337000    108.55122   -10924.787   -9911.6879   -502.42415     102002.7      46.7237      46.7237      46.7237 
  338000    110.32002   -10932.133   -9902.5252   -769.42612     102002.7      46.7237      46.7237      46.7237 
  339000    109.52688   -10937.953   -9915.7475   -868.30022     102002.7      46.7237      46.7237      46.7237 
  340000    113.56767   -10926.437   -9866.5197   -757.70611     102002.7      46.7237      46.7237      46.7237 
  341000    111.49924   -10915.133   -9874.5197   -600.26415     102002.7      46.7237      46.7237      46.7237 
  342000    108.29983   -10921.613   -9910.8595   -415.73674     102002.7      46.7237      46.7237      46.7237 
  343000    109.25792   -10916.439   -9896.7438   -702.66418     102002.7      46.7237      46.7237      46.7237 
  344000    110.18585   -10915.382   -9887.0269   -367.40404     102002.7      46.7237      46.7237      46.7237 
  345000    111.17853   -10922.517   -9884.8973   -426.77701     102002.7      46.7237      46.7237      46.7237 
  346000    105.47841   -10896.961   -9912.5399   -89.374225     102002.7      46.7237      46.7237      46.7237 
  347000    108.87441   -10954.591   -9938.4751   -379.17005     102002.7      46.7237      46.7237      46.7237 
  348000    109.34368   -10927.628   -9907.1324   -303.45469     102002.7      46.7237      46.7237      46.7237 
  349000    108.70934   -10935.694   -9921.1191   -552.46153     102002.7      46.7237      46.7237      46.7237 
  350000    109.98154   -10945.061   -9918.6124   -619.80266     102002.7      46.7237      46.7237      46.7237 
  351000    110.18945     -10916.3   -9887.9115   -448.71714     102002.7      46.7237      46.7237      46.7237 
  352000    110.30697   -10934.247   -9904.7612   -226.19478     102002.7      46.7237      46.7237      46.7237 
  353000    109.39675   -10922.705   -9901.7147   -447.39548     102002.7      46.7237      46.7237      46.7237 
  354000    107.35965   -10892.575   -9890.5968   -409.53043     102002.7      46.7237      46.7237      46.7237 
  355000    111.11628   -10941.382   -9904.3431   -753.33625     102002.7      46.7237      46.7237      46.7237 
  356000    110.56823    -10928.14   -9896.2157   -807.41506     102002.7      46.7237      46.7237      46.7237 
  357000    106.32065   -10906.209   -9913.9275    -567.0409     102002.7      46.7237      46.7237      46.7237 
  358000    108.75009   -10869.603   -9854.6475   -628.53765     102002.7      46.7237      46.7237      46.7237 
  359000    109.12806   -10922.966   -9904.4834   -860.50169     102002.7      46.7237      46.7237      46.7237 
  360000    110.29172   -10909.542   -9880.1986   -863.46776     102002.7      46.7237      46.7237      46.7237 
  361000    106.88887   -10918.584    -9920.999   -563.92931     102002.7      46.7237      46.7237      46.7237 
  362000    111.11401   -10907.424   -9870.4066   -589.40197     102002.7      46.7237      46.7237      46.7237 
  363000    109.76442   -10919.221   -9894.7993   -473.33978     102002.7      46.7237      46.7237      46.7237 
  364000    109.05536   -10904.968   -9887.1632   -337.81652     102002.7      46.7237      46.7237      46.7237 
  365000    108.44672   -10956.181   -9944.0572   -537.60192     102002.7      46.7237      46.7237      46.7237 
  366000    112.11432   -10907.688   -9861.3342   -390.26939     102002.7      46.7237      46.7237      46.7237 
  367000    111.81954   -10920.021   -9876.4183    -672.2112     102002.7      46.7237      46.7237      46.7237 
  368000    111.74697   -10938.889    -9895.964   -366.45364     102002.7      46.7237      46.7237      46.7237 
  369000    108.05652   -10957.677   -9949.1943   -977.64852     102002.7      46.7237      46.7237      46.7237 
  370000    110.29759   -10930.039   -9900.6413   -566.46273     102002.7      46.7237      46.7237      46.7237 
  371000    110.58164   -10910.523    -9878.474   -748.28255     102002.7      46.7237      46.7237      46.7237 
  372000    111.14203    -10954.82   -9917.5409   -725.21412     102002.7      46.7237      46.7237      46.7237 
  373000    107.62816   -10934.037   -9929.5527   -577.37017     102002.7      46.7237      46.7237      46.7237 
  374000    109.87872   -10912.823   -9887.3344   -884.03183     102002.7      46.7237      46.7237      46.7237 
  375000    109.84673   -10929.985   -9904.7949   -360.82055     102002.7      46.7237      46.7237      46.7237 
  376000    107.91555   -10908.705   -9901.5382   -503.82091     102002.7      46.7237      46.7237      46.7237 
  377000    107.91991   -10941.344   -9934.1368    -351.3013     102002.7      46.7237      46.7237      46.7237 
  378000    113.18833   -10923.859   -9867.4816    -418.9215     102002.7      46.7237      46.7237      46.7237 
  379000    110.77056    -10912.54   -9878.7278   -230.12272     102002.7      46.7237      46.7237      46.7237 
  380000    110.56426   -10918.894   -9887.0068    -451.4983     102002.7      46.7237      46.7237      46.7237 
  381000    106.00065   -10914.755   -9925.4594   -755.83707     102002.7      46.7237      46.7237      46.7237 
  382000    108.51578   -10907.949   -9895.1805   -155.72644     102002.7      46.7237      46.7237      46.7237 
  383000    110.95102   -10915.128   -9879.6312   -212.18108     102002.7      46.7237      46.7237      46.7237 
  384000    110.47057   -10913.439   -9882.4263   -419.88111     102002.7      46.7237      46.7237      46.7237 
  385000    108.63921   -10923.659   -9909.7382   -494.13305     102002.7      46.7237      46.7237      46.7237 
  386000    109.75534   -10912.908   -9888.5704   -794.48723     102002.7      46.7237      46.7237      46.7237 
  387000    107.59543   -10927.438   -9923.2587   -827.76251     102002.7      46.7237      46.7237      46.7237 
  388000    109.50172   -10918.574   -9896.6033   -530.22009     102002.7      46.7237      46.7237      46.7237 
  389000    109.83598   -10901.452   -9876.3616   -541.68947     102002.7      46.7237      46.7237      46.7237 
  390000    107.71969   -10922.167   -9916.8286   -767.82254     102002.7      46.7237      46.7237      46.7237 
  391000    108.64303   -10911.945   -9897.9887   -816.66025     102002.7      46.7237      46.7237      46.7237 
  392000    110.05463   -10939.278   -9912.1472    -313.2845     102002.7      46.7237      46.7237      46.7237 
  393000    107.24914   -10936.244   -9935.2963   -324.02103     102002.7      46.7237      46.7237      46.7237 
  394000    109.15389   -10938.927    -9920.203   -286.55424     102002.7      46.7237      46.7237      46.7237 
  395000    108.92379   -10917.466   -9900.8896   -296.35378     102002.7      46.7237      46.7237      46.7237 
  396000    111.30807    -10918.93   -9880.1009   -308.32482     102002.7      46.7237      46.7237      46.7237 
  397000    110.94107   -10931.307   -9895.9033   -622.70293     102002.7      46.7237      46.7237      46.7237 
  398000    109.61178   -10924.184   -9901.1868   -317.90656     102002.7      46.7237      46.7237      46.7237 
  399000    108.12637   -10931.437   -9922.3027   -308.09094     102002.7      46.7237      46.7237      46.7237 
  400000    109.34859   -10925.889   -9905.3477   -568.73101     102002.7      46.7237      46.7237      46.7237 
  401000    107.76845    -10934.33   -9928.5362   -411.20789     102002.7      46.7237      46.7237      46.7237 
  402000    109.27664   -10950.025   -9930.1555   -456.15766     102002.7      46.7237      46.7237      46.7237 
  403000    111.48708   -10945.988   -9905.4887   -385.66427     102002.7      46.7237      46.7237      46.7237 
  404000    111.79808   -10939.178   -9895.7756   -523.99223     102002.7      46.7237      46.7237      46.7237 
  405000    108.33631   -10915.867   -9904.7737   -612.97731     102002.7      46.7237      46.7237      46.7237 
  406000    106.45501    -10918.65    -9925.114   -278.91261     102002.7      46.7237      46.7237      46.7237 
  407000    111.39377   -10923.031   -9883.4018   -300.64822     102002.7      46.7237      46.7237      46.7237 
  408000    111.17388   -10934.468   -9896.8915   -527.37478     102002.7      46.7237      46.7237      46.7237 
  409000     111.0193   -10912.184   -9876.0504   -460.78896     102002.7      46.7237      46.7237      46.7237 
  410000     110.6293   -10933.883   -9901.3888   -598.14044     102002.7      46.7237      46.7237      46.7237 
  411000    110.31771    -10920.44   -9890.8536   -393.33189     102002.7      46.7237      46.7237      46.7237 
  412000    109.45094   -10912.754   -9891.2572    -756.6262     102002.7      46.7237      46.7237      46.7237 
  413000    111.11219   -10940.231   -9903.2303   -853.61459     102002.7      46.7237      46.7237      46.7237 
  414000     107.5876   -10918.391   -9914.2846   -601.81267     102002.7      46.7237      46.7237      46.7237 
  415000    111.37197   -10935.452   -9896.0268   -659.75588     102002.7      46.7237      46.7237      46.7237 
  416000    111.30557    -10938.29   -9899.4841   -364.82936     102002.7      46.7237      46.7237      46.7237 
  417000    110.52704   -10929.779   -9898.2398    -326.5989     102002.7      46.7237      46.7237      46.7237 
  418000    108.66585   -10940.022   -9925.8529   -841.71991     102002.7      46.7237      46.7237      46.7237 
  419000    109.29664    -10933.97   -9913.9135   -588.89722     102002.7      46.7237      46.7237      46.7237 
  420000    110.04658   -10922.191    -9895.135   -438.22805     102002.7      46.7237      46.7237      46.7237 
  421000    113.23701   -10913.572    -9856.741   -660.82878     102002.7      46.7237      46.7237      46.7237 
  422000    110.23393   -10937.923   -9909.1187   -489.72845     102002.7      46.7237      46.7237      46.7237 
  423000    111.93144   -10914.538   -9869.8908   -591.77422     102002.7      46.7237      46.7237      46.7237 
  424000    109.77489   -10907.479   -9882.9589   -698.99158     102002.7      46.7237      46.7237      46.7237 
  425000    108.81078    -10923.52   -9907.9977   -547.06858     102002.7      46.7237      46.7237      46.7237 
  426000    108.71982   -10919.555   -9904.8825    -593.7964     102002.7      46.7237      46.7237      46.7237 
  427000    113.00477   -10926.324   -9871.6594   -414.77264     102002.7      46.7237      46.7237      46.7237 
  428000    109.59224   -10916.004   -9893.1888   -171.58232     102002.7      46.7237      46.7237      46.7237 
  429000    106.34064   -10927.057   -9934.5883   -646.76182     102002.7      46.7237      46.7237      46.7237 
  430000    112.76296   -10944.174   -9891.7663   -585.30253     102002.7      46.7237      46.7237      46.7237 
  431000    109.83992     -10951.8   -9926.6737   -620.63321     102002.7      46.7237      46.7237      46.7237 
  432000     111.8861   -10923.058    -9878.834   -277.90987     102002.7      46.7237      46.7237      46.7237 
  433000    110.60854   -10949.296    -9916.996   -536.44748     102002.7      46.7237      46.7237      46.7237 
  434000    109.35882   -10929.048   -9908.4111   -287.47986     102002.7      46.7237      46.7237      46.7237 
  435000    111.56856   -10904.775   -9863.5146   -417.52757     102002.7      46.7237      46.7237      46.7237 
  436000    110.37256   -10923.123   -9893.0252   -586.70596     102002.7      46.7237      46.7237      46.7237 
  437000    109.65353   -10931.835   -9908.4475   -678.81853     102002.7      46.7237      46.7237      46.7237 
  438000    111.75795   -10900.021    -9856.993   -653.44314     102002.7      46.7237      46.7237      46.7237 
  439000    108.56871   -10903.055   -9889.7927   -267.94688     102002.7      46.7237      46.7237      46.7237 
  440000    110.12064   -10898.921   -9871.1744   -357.42791     102002.7      46.7237      46.7237      46.7237 
  441000    107.64771   -10930.785   -9926.1183   -749.17275     102002.7      46.7237      46.7237      46.7237 
  442000    107.36562   -10916.657   -9914.6225   -297.78749     102002.7      46.7237      46.7237      46.7237 
  443000    109.14775   -10937.102   -9918.4352   -863.30488     102002.7      46.7237      46.7237      46.7237 
  444000    109.67091   -10914.406   -9890.8561    -525.4804     102002.7      46.7237      46.7237      46.7237 
  445000    109.71273   -10928.326   -9904.3863   -862.69141     102002.7      46.7237      46.7237      46.7237 
  446000    106.97402   -10895.156   -9896.7768    -608.9788     102002.7      46.7237      46.7237      46.7237 
  447000    109.11067   -10901.613   -9883.2922   -699.72448     102002.7      46.7237      46.7237      46.7237 
  448000     108.2325   -10928.021   -9917.8958   -587.51663     102002.7      46.7237      46.7237      46.7237 
  449000    110.14728   -10930.048   -9902.0528   -832.76525     102002.7      46.7237      46.7237      46.7237 
  450000    108.00811   -10925.897   -9917.8664   -471.26419     102002.7      46.7237      46.7237      46.7237 
  451000    106.83232   -10926.947   -9929.8902   -417.56778     102002.7      46.7237      46.7237      46.7237 
  452000    110.17596   -10919.485   -9891.2222    -380.2992     102002.7      46.7237      46.7237      46.7237 
  453000    111.72103   -10920.608   -9877.9255   -403.48391     102002.7      46.7237      46.7237      46.7237 
  454000    109.28727    -10913.68    -9893.711   -451.78322     102002.7      46.7237      46.7237      46.7237 
  455000    113.18634   -10893.217   -9836.8581   -492.43879     102002.7      46.7237      46.7237      46.7237 
  456000     107.7567   -10943.712   -9938.0279   -615.93749     102002.7      46.7237      46.7237      46.7237 
  457000    110.25009   -10914.669   -9885.7145   -244.73261     102002.7      46.7237      46.7237      46.7237 
  458000    107.49345   -10945.897   -9942.6699   -417.20696     102002.7      46.7237      46.7237      46.7237 
  459000    109.21896   -10953.023    -9933.692   -597.87358     102002.7      46.7237      46.7237      46.7237 
  460000    109.72321   -10899.434   -9875.3966   -677.11161     102002.7      46.7237      46.7237      46.7237 
  461000     111.4015   -10901.906   -9862.2051    -729.4443     102002.7      46.7237      46.7237      46.7237 
  462000    109.48494    -10935.53   -9913.7159   -442.51769     102002.7      46.7237      46.7237      46.7237 
  463000    109.86551   -10926.212   -9900.8464   -480.22541     102002.7      46.7237      46.7237      46.7237 
  464000    107.38255   -10934.932   -9932.7399   -749.49072     102002.7      46.7237      46.7237      46.7237 
  465000    109.19974   -10915.064   -9895.9116   -406.70178     102002.7      46.7237      46.7237      46.7237 
  466000    108.87723   -10907.025   -9890.8831   -549.30589     102002.7      46.7237      46.7237      46.7237 
  467000    107.33994   -10929.768   -9927.9735   -392.06337     102002.7      46.7237      46.7237      46.7237 
  468000    106.17955   -10912.214   -9921.2489   -274.44173     102002.7      46.7237      46.7237      46.7237 
  469000    108.56047   -10919.869   -9906.6833   -575.28036     102002.7      46.7237      46.7237      46.7237 
  470000    109.81964   -10902.207   -9877.2697   -337.31188     102002.7      46.7237      46.7237      46.7237 
  471000    108.11706   -10928.464   -9919.4162    -375.1294     102002.7      46.7237      46.7237      46.7237 
  472000    111.45099   -10920.617   -9880.4546   -464.24546     102002.7      46.7237      46.7237      46.7237 
  473000    110.39095   -10924.333   -9894.0635   -464.84075     102002.7      46.7237      46.7237      46.7237 
  474000    110.59564   -10920.676   -9888.4958   -678.60813     102002.7      46.7237      46.7237      46.7237 
  475000    109.11219   -10931.244   -9912.9094   -507.26511     102002.7      46.7237      46.7237      46.7237 
  476000    109.25405   -10920.397   -9900.7378   -596.78224     102002.7      46.7237      46.7237      46.7237 
  477000    110.47135   -10912.494   -9881.4742   -332.98427     102002.7      46.7237      46.7237      46.7237 
  478000    110.97422   -10946.819   -9911.1059   -604.11197     102002.7      46.7237      46.7237      46.7237 
  479000     113.0231   -10896.626   -9841.7907   -509.11316     102002.7      46.7237      46.7237      46.7237 
  480000    109.67332   -10946.602     -9923.03   -416.92781     102002.7      46.7237      46.7237      46.7237 
  481000     106.9702   -10924.551   -9926.2073   -620.89788     102002.7      46.7237      46.7237      46.7237 
  482000    108.73732   -10929.144   -9914.3077   -778.91956     102002.7      46.7237      46.7237      46.7237 
  483000    112.09148   -10923.788   -9877.6477   -662.52171     102002.7      46.7237      46.7237      46.7237 
  484000    106.45835    -10947.87   -9954.3036   -278.38742     102002.7      46.7237      46.7237      46.7237 
  485000    109.95921   -10888.932   -9862.6916   -487.68268     102002.7      46.7237      46.7237      46.7237 
  486000    111.67958   -10939.949   -9897.6526   -296.30858     102002.7      46.7237      46.7237      46.7237 
  487000    111.88431   -10978.896   -9934.6895   -601.22208     102002.7      46.7237      46.7237      46.7237 
  488000    111.56577   -10953.716   -9912.4816   -349.59687     102002.7      46.7237      46.7237      46.7237 
  489000    110.41971   -10912.215    -9881.677     -313.848     102002.7      46.7237      46.7237      46.7237 
  490000    108.75366   -10911.602   -9896.6129   -275.34737     102002.7      46.7237      46.7237      46.7237 
  491000    110.14469   -10926.719    -9898.748    -293.0887     102002.7      46.7237      46.7237      46.7237 
  492000    108.77469   -10942.783   -9927.5982   -798.20088     102002.7      46.7237      46.7237      46.7237 
  493000    110.08451   -10929.083   -9901.6736   -472.18457     102002.7      46.7237      46.7237      46.7237 
  494000    111.71059   -10940.501   -9897.9155   -538.29218     102002.7      46.7237      46.7237      46.7237 
  495000    108.47395    -10914.56   -9902.1816   -396.64128     102002.7      46.7237      46.7237      46.7237 
  496000    109.50116    -10926.89   -9904.9248   -538.24134     102002.7      46.7237      46.7237      46.7237 
  497000    106.71455   -10875.336   -9879.3777    -563.5761     102002.7      46.7237      46.7237      46.7237 
  498000    108.19638   -10927.535   -9917.7475   -402.30992     102002.7      46.7237      46.7237      46.7237 
  499000    111.93975   -10960.975   -9916.2511   -628.70392     102002.7      46.7237      46.7237      46.7237 
  500000    109.05726   -10908.174   -9890.3513   -741.58422     102002.7      46.7237      46.7237      46.7237 
  500500    112.09218   -10949.027   -9902.8796   -778.85233     102002.7      46.7237      46.7237      46.7237 
Loop time of 836.233 on 24 procs for 500000 steps with 3132 atoms

Performance: 51.660 ns/day, 0.465 hours/ns, 597.920 timesteps/s
97.8% CPU use with 24 MPI tasks x no OpenMP threads

MPI task timing breakdown:
Section |  min time  |  avg time  |  max time  |%varavg| %total
---------------------------------------------------------------
Pair    | 331.42     | 461.09     | 589.22     | 301.1 | 55.14
Bond    | 62.868     | 78.869     | 96.458     | 118.6 |  9.43
Neigh   | 7.4277     | 7.606      | 7.6558     |   2.9 |  0.91
Comm    | 133.29     | 272.69     | 409.14     | 424.9 | 32.61
Output  | 0.53235    | 0.53277    | 0.5378     |   0.1 |  0.06
Modify  | 4.6606     | 4.9203     | 5.1826     |   6.8 |  0.59
Other   |            | 10.52      |            |       |  1.26

Nlocal:    130.5 ave 161 max 94 min
Histogram: 1 0 0 2 7 9 1 1 2 1
Nghost:    3488.08 ave 3629 max 3401 min
Histogram: 8 7 1 0 0 0 0 0 2 6
Neighs:    7648.04 ave 10174 max 4877 min
Histogram: 2 3 4 1 2 0 3 2 6 1

Total # of neighbors = 183553
Ave neighs/atom = 58.6057
Ave special neighs/atom = 3.67816
Neighbor list builds = 4691
Dangerous builds = 0
Neighbor list info ...
  update every 1 steps, delay 10 steps, check yes
  max neighbors/atom: 2000, page size: 100000
  master list distance cutoff = 16
  ghost atom cutoff = 16
  binsize = 8, bins = 6 6 6
  3 neighbor lists, perpetual/occasional/extra = 3 0 0
  (1) pair buck6d/coul/gauss/dsf, perpetual, skip from (3)
      attributes: half, newton on
      pair build: skip
      stencil: none
      bin: none
  (2) pair lj/cut, perpetual, skip from (3)
      attributes: half, newton on
      pair build: skip
      stencil: none
      bin: none
  (3) neighbor class addition, perpetual
      attributes: half, newton on
      pair build: half/bin/newton
      stencil: half/bin/3d/newton
      bin: standard
Setting up Verlet run ...
  Unit style    : real
  Current step  : 500500
  Time step     : 1
WARNING: Inconsistent image flags (../domain.cpp:786)
Per MPI rank memory allocation (min/avg/max) = 24.02 | 24.56 | 24.66 Mbytes
Step Time TotEng KinEng PotEng E_mol E_pair Temp Pxx Pyy Pzz Pxy Pxz Pyz Cella Cellb Cellc CellAlpha CellBeta CellGamma Volume Press 
  500500       500000   -9902.8796    1046.1469   -10949.027    4261.6872   -15210.714    112.09218   -904.77456   -630.70464    -801.0778    -76.21334    36.898919    67.881884      46.7237      46.7237      46.7237           90           90           90     102002.7   -778.85233 
  501000       500500    -9893.388    1027.5382   -10920.926    4260.8378   -15181.764     110.0983   -351.38672   -350.97696   -60.110325    27.116023   -136.38841    15.785848      46.7237      46.7237      46.7237           90           90           90     102002.7     -254.158 
  502000       501500   -9895.1117    1021.4235   -10916.535    4271.7481   -15188.283    109.44312   -387.38125   -314.09975   -697.01429   -440.65277    207.77945   -113.04797      46.7237      46.7237      46.7237           90           90           90     102002.7    -466.1651 
  503000       502500   -9914.1218    1025.1937   -10939.315    4270.4739   -15209.789    109.84709   -364.06488   -1005.5293   -754.35029    19.018193   -323.97055   -17.165867      46.7237      46.7237      46.7237           90           90           90     102002.7   -707.98148 
  504000       503500    -9840.128    1039.0857   -10879.214    4308.4909   -15187.705    111.33559   -698.76055   -383.87318   -1182.3461    309.85473    -369.5118    43.212668      46.7237      46.7237      46.7237           90           90           90     102002.7   -754.99328 
  505000       504500   -9891.6362    1030.1302   -10921.766    4267.3011   -15189.067    110.37602   -491.56659   -395.23921    -747.8985    -24.00398   -69.672835    43.195861      46.7237      46.7237      46.7237           90           90           90     102002.7   -544.90143 
  506000       505500   -9839.3206    1049.2396    -10888.56    4281.7456   -15170.306    112.42355   -211.78348   -438.23939   -66.472207   -109.46349   -58.589681    33.560267      46.7237      46.7237      46.7237           90           90           90     102002.7   -238.83169 
  507000       506500   -9891.7858    1030.2777   -10922.063    4259.2008   -15181.264    110.39183    -457.4609   -280.66073   -489.43279   -259.74904   -10.389036    37.413842      46.7237      46.7237      46.7237           90           90           90     102002.7    -409.1848 
  508000       507500   -9907.1969    1018.7521   -10925.949    4276.7479   -15202.697    109.15689   -378.53786   -273.68376   -707.20015    -82.46728   -35.304437    -48.77178      46.7237      46.7237      46.7237           90           90           90     102002.7   -453.14059 
  509000       508500   -9901.5952    1012.1005   -10913.696    4262.5273   -15176.223    108.44418   -231.35083    -437.3559    -169.5477    -248.8221    -164.8597    -24.66019      46.7237      46.7237      46.7237           90           90           90     102002.7   -279.41814 
  510000       509500   -9898.1026    1031.0581   -10929.161    4247.2464   -15176.407    110.47545   -624.70934   -460.75848   -34.169824    91.667793     62.85841    -202.1669      46.7237      46.7237      46.7237           90           90           90     102002.7   -373.21255 
  511000       510500   -9884.4083    1021.1054   -10905.514    4264.9721   -15170.486    109.40904   -472.35667   -475.54018   -265.38645    185.80956   -7.8880525    8.7831466      46.7237      46.7237      46.7237           90           90           90     102002.7   -404.42777 
  512000       511500   -9905.7564    1026.0493   -10931.806    4271.7246    -15203.53    109.93877   -234.94317     -94.4691   -335.94684    -118.7451    140.99387     177.5806      46.7237      46.7237      46.7237           90           90           90     102002.7   -221.78637 
  513000       512500   -9879.5004    1052.4159   -10931.916    4280.8502   -15212.767    112.76388   -32.806526   -202.37688   -35.038716   -47.006208   -208.15892    -139.7517      46.7237      46.7237      46.7237           90           90           90     102002.7    -90.07404 
  514000       513500   -9912.9817    1014.3692   -10927.351    4280.6745   -15208.025    108.68727   -62.126937    -615.8357   -314.75677    73.945006   -214.47721    331.37807      46.7237      46.7237      46.7237           90           90           90     102002.7   -330.90647 
  515000       514500   -9931.9807    1005.6701   -10937.651    4250.7679   -15188.419    107.75519   -449.03357   -466.21387   -131.55287    -53.90094   -45.455208    -30.45478      46.7237      46.7237      46.7237           90           90           90     102002.7   -348.93343 
  516000       515500   -9892.8958    1043.3985   -10936.294    4252.6625   -15188.957     111.7977   -161.24802   -389.19303   -362.65985    33.824738    86.783515   -33.722698      46.7237      46.7237      46.7237           90           90           90     102002.7   -304.36697 
  517000       516500   -9904.9392     1016.272   -10921.211    4284.7876   -15205.999    108.89115   -471.38279   -346.42408   -91.677979   -36.146428    51.777521    123.94768      46.7237      46.7237      46.7237           90           90           90     102002.7   -303.16161 
  518000       517500   -9891.9619    1043.5519   -10935.514    4267.9423   -15203.456    111.81413   -572.40069   -316.63291   -521.24844    25.880498   -13.538205   -5.6130513      46.7237      46.7237      46.7237           90           90           90     102002.7   -470.09401 
  519000       518500   -9884.2334    1045.1841   -10929.418    4285.6921    -15215.11    111.98902   -558.78567   -456.33925   -353.77052    108.38402   -12.824371   -137.86372      46.7237      46.7237      46.7237           90           90           90     102002.7   -456.29848 
  520000       519500   -9857.7568    1036.7958   -10894.553    4297.8203   -15192.373    111.09023   -720.94621   -465.24572   -623.99927   -96.663455   -335.68831   -95.004851      46.7237      46.7237      46.7237           90           90           90     102002.7   -603.39706 
  521000       520500   -9894.1279    1017.3174   -10911.445     4267.049   -15178.494    109.00317   -428.05958   -115.24836   -133.88546    73.193039   -53.651838   -106.95808      46.7237      46.7237      46.7237           90           90           90     102002.7   -225.73113 
  522000       521500   -9907.5036    1019.1762    -10926.68    4265.4639   -15192.144    109.20233   -894.68044   -227.52255   -299.72185     102.7034    224.63336   -1.7403315      46.7237      46.7237      46.7237           90           90           90     102002.7   -473.97495 
  523000       522500   -9888.1082    1016.8464   -10904.955    4265.8112   -15170.766     108.9527   -568.04799   -405.69747   -611.55531   -106.69778    -23.73762     37.72813      46.7237      46.7237      46.7237           90           90           90     102002.7   -528.43359 
  524000       523500   -9925.0087    1009.0817    -10934.09    4281.0057   -15215.096    108.12073   -648.55988    -626.2383   -363.88997    556.04731   -7.6209742   -78.530618      46.7237      46.7237      46.7237           90           90           90     102002.7   -546.22939 
  525000       524500   -9900.5592    1014.1679   -10914.727    4279.4936   -15194.221     108.6657   -896.25604   -242.67062   -267.44819     169.7112    92.283091   -106.03463      46.7237      46.7237      46.7237           90           90           90     102002.7   -468.79162 
  526000       525500   -9901.4062    1045.0756   -10946.482    4261.4504   -15207.932    111.97739   -335.94125   -628.65032   -604.38173   -137.15935   -20.403637   -72.587372      46.7237      46.7237      46.7237           90           90           90     102002.7    -522.9911 
  527000       526500    -9853.272    1056.3418   -10909.614    4276.6997   -15186.314    113.18453   -650.53315   -128.94319   -657.69964     194.4322     71.14866    90.421021      46.7237      46.7237      46.7237           90           90           90     102002.7   -479.05866 
  528000       527500   -9900.0843    1020.8513   -10920.936    4264.0039    -15184.94    109.38181   -308.34957   -522.97021   -229.87862   -50.391167   -182.68413    25.084037      46.7237      46.7237      46.7237           90           90           90     102002.7    -353.7328 
  529000       528500   -9911.0292    1008.6472   -10919.676    4282.0442   -15201.721    108.07418   -488.02813    -906.7383   -1017.3617   -178.09679   -5.6172201   -116.83774      46.7237      46.7237      46.7237           90           90           90     102002.7   -804.04271 
  530000       529500   -9916.9735    1016.5452   -10933.519    4289.3695   -15222.888    108.92042   -691.17714   -711.30991   -513.77924    174.43104     76.84763   -206.03934      46.7237      46.7237      46.7237           90           90           90     102002.7   -638.75543 
  531000       530500   -9904.1939    1031.1415   -10935.335    4273.4066   -15208.742    110.48439   -713.66559   -246.23726    -719.6752   -227.56566    126.25235  -0.86473434      46.7237      46.7237      46.7237           90           90           90     102002.7   -559.85935 
  532000       531500   -9847.4628    1035.5338   -10882.997    4308.5244   -15191.521    110.95501   -484.02691   -643.60461    -384.5194   -46.703413    25.031757    232.12334      46.7237      46.7237      46.7237           90           90           90     102002.7   -504.05031 
  533000       532500   -9922.6878    1014.4826    -10937.17    4259.7537   -15196.924    108.69942   -372.35491   -639.70229   -220.76427   -118.44069   -128.58476   -91.301279      46.7237      46.7237      46.7237           90           90           90     102002.7   -410.94049 
  534000       533500   -9918.7616    1011.6837   -10930.445    4273.3002   -15203.746    108.39953   -890.67554   -475.49932   -819.10539     163.6599   -14.234478     248.8259      46.7237      46.7237      46.7237           90           90           90     102002.7   -728.42675 
  535000       534500   -9912.7316    1017.2727   -10930.004    4277.1615   -15207.166    108.99838   -650.19906   -209.89942   -260.97877    85.449335   -105.28462   -127.54529      46.7237      46.7237      46.7237           90           90           90     102002.7   -373.69242 
  536000       535500      -9899.8    1030.1928   -10929.993     4269.305   -15199.298    110.38274    -438.4618   -218.16852   -498.91867   -133.51843    13.107896    175.49446      46.7237      46.7237      46.7237           90           90           90     102002.7   -385.18299 
  537000       536500   -9867.9204    1056.3108   -10924.231    4285.5928   -15209.824    113.18121   -661.13683   -774.65159   -511.59994    133.47738    258.10417   -260.69469      46.7237      46.7237      46.7237           90           90           90     102002.7   -649.12946 
  538000       537500   -9889.3735    1030.5133   -10919.887    4272.3074   -15192.194    110.41707   -172.80649   -530.26124   -252.30448    273.02119    -82.64303   -13.695354      46.7237      46.7237      46.7237           90           90           90     102002.7    -318.4574 
  539000       538500   -9905.7873    1002.7227    -10908.51    4272.0348   -15180.545    107.43938   -626.16562   -482.39108   -386.84352   -30.777538    15.656674   -302.65747      46.7237      46.7237      46.7237           90           90           90     102002.7   -498.46674 
  540000       539500   -9877.5189    1050.2417   -10927.761     4265.084   -15192.845    112.53092   -694.13224   -679.53416   -119.68694    8.7835021   -45.639991    89.876045      46.7237      46.7237      46.7237           90           90           90     102002.7   -497.78445 
  541000       540500   -9938.7315     1001.082   -10939.813    4266.0221   -15205.836    107.26358   -99.920486   -251.15494   -528.02721   -13.578616   -69.226514     191.4674      46.7237      46.7237      46.7237           90           90           90     102002.7   -293.03421 
  542000       541500   -9899.0238    1032.7304   -10931.754    4272.5103   -15204.265    110.65463   -649.79963    -300.6153   -542.93303    97.859168    46.133217    -178.3334      46.7237      46.7237      46.7237           90           90           90     102002.7   -497.78265 
  543000       542500   -9917.7846    1004.3153     -10922.1    4300.7693   -15222.869    107.61002     -836.848   -962.24053   -537.29523   -281.92991   -109.58976    69.402394      46.7237      46.7237      46.7237           90           90           90     102002.7   -778.79459 
  544000       543500    -9863.127    1035.8166   -10898.944    4281.2626   -15180.206    110.98531   -377.22408   -117.40637   -407.38383   -142.82336    135.34265    336.92794      46.7237      46.7237      46.7237           90           90           90     102002.7   -300.67143 
  545000       544500   -9881.9113    1040.3451   -10922.256    4279.4727   -15201.729    111.47053   -586.20732   -475.62331   -170.27438   -24.304191     16.28267  0.046813125      46.7237      46.7237      46.7237           90           90           90     102002.7   -410.70167 
  546000       545500   -9922.0297    1005.4119   -10927.442    4296.4979   -15223.939    107.72752   -851.81824   -267.82966   -714.88058    98.007398   -125.54319   -8.7037534      46.7237      46.7237      46.7237           90           90           90     102002.7   -611.50949 
  547000       546500   -9903.2256    1032.8948    -10936.12     4277.638   -15213.758    110.67225   -636.64368   -942.76248    -299.8951     117.6231   -186.85377   -184.55604      46.7237      46.7237      46.7237           90           90           90     102002.7   -626.43375 
  548000       547500   -9885.7239     1030.026    -10915.75    4282.3083   -15198.058    110.36486   -976.04524   -273.57202   -491.03965    203.39409    75.074305    87.730615      46.7237      46.7237      46.7237           90           90           90     102002.7   -580.21897 
  549000       548500   -9890.8886    1002.8791   -10893.768    4298.7539   -15192.522    107.45614   -507.06886   -681.76456   -612.59589   -60.481295   -139.73226    48.811477      46.7237      46.7237      46.7237           90           90           90     102002.7   -600.47644 
  550000       549500   -9902.2766    1021.5774   -10923.854    4275.7385   -15199.593    109.45961   -431.99949   0.66456053   -426.08507    3.2084178   -366.39057    98.010093      46.7237      46.7237      46.7237           90           90           90     102002.7   -285.80667 
  551000       550500   -9884.9835    1019.2152   -10904.199     4274.095   -15178.294    109.20651   -1116.7846   -701.96749   -617.32633    283.01114    224.52975    139.64938      46.7237      46.7237      46.7237           90           90           90     102002.7   -812.02614 
  552000       551500    -9957.122    983.95459   -10941.077    4265.3391   -15206.416    105.42842   -674.39209    -498.4123    -481.0035    16.407311    254.60696   -337.78211      46.7237      46.7237      46.7237           90           90           90     102002.7   -551.26929 
  553000       552500   -9904.1871    1021.3775   -10925.565    4263.9784   -15189.543    109.43819   -673.18123   -456.10621   -797.61347   -85.504015    156.36862   -6.5713572      46.7237      46.7237      46.7237           90           90           90     102002.7    -642.3003 
  554000       553500   -9879.3591    1024.9556   -10904.315    4283.0246   -15187.339    109.82158   -612.05618   -643.21524   -700.42245     -22.6354    293.95947    14.049264      46.7237      46.7237      46.7237           90           90           90     102002.7   -651.89796 
  555000       554500   -9916.7645    1011.6268   -10928.391    4269.8618   -15198.253    108.39343   -830.19524    85.546239   -176.76337   -32.605602    46.231259   -12.419546      46.7237      46.7237      46.7237           90           90           90     102002.7   -307.13746 
[...]
  936000       935500   -9895.4044    1037.8652    -10933.27    4264.2769   -15197.546    111.20481   -567.28618   -699.10287   -569.46532  -0.61538619   -70.813687   -287.89597      46.7237      46.7237      46.7237           90           90           90     102002.7   -611.95146 
  937000       936500   -9915.6158     1005.664    -10921.28    4283.3196   -15204.599    107.75453   -542.78386   -464.87783   -1032.7717   -226.79201    60.588776   -110.74986      46.7237      46.7237      46.7237           90           90           90     102002.7   -680.14446 
  938000       937500   -9903.1091    1012.3933   -10915.502    4270.0732   -15185.576    108.47556   -593.01602   -263.15234    -493.1177    60.153505   -60.309478   -123.28407      46.7237      46.7237      46.7237           90           90           90     102002.7   -449.76202 
  939000       938500   -9913.2888    1024.1099   -10937.399    4250.6239   -15188.023    109.73096   -414.09009   -547.99183   -302.29718   -27.454169    106.27469   -91.647191      46.7237      46.7237      46.7237           90           90           90     102002.7    -421.4597 
  940000       939500    -9899.672    1038.2817   -10937.954    4236.4555   -15174.409    111.24944   -403.78858    -294.4908    -936.7419    48.818539    6.2414341   -138.45499      46.7237      46.7237      46.7237           90           90           90     102002.7   -545.00709 
  941000       940500   -9893.4177    1037.2647   -10930.682    4262.0187   -15192.701    111.14047   -312.63218   -732.28271   -444.20625   -3.1165961    83.119362      34.8006      46.7237      46.7237      46.7237           90           90           90     102002.7   -496.37371 
  942000       941500   -9878.0714    1040.3357   -10918.407    4272.4945   -15190.902    111.46952   -822.82445   -822.89743   -843.31163   -223.51077   -79.239208   -167.02971      46.7237      46.7237      46.7237           90           90           90     102002.7   -829.67784 
  943000       942500   -9882.9459    1033.4012   -10916.347    4270.8816   -15187.229     110.7265   -360.30001   -449.44572   -546.25163   -57.998257    -219.0623    9.4277208      46.7237      46.7237      46.7237           90           90           90     102002.7   -451.99912 
  944000       943500   -9917.3915    1012.3962   -10929.788    4273.0488   -15202.836    108.47587   -796.97728   -621.05899   -578.94027    60.946389   -176.55251   -242.68347      46.7237      46.7237      46.7237           90           90           90     102002.7   -665.65885 
  945000       944500   -9899.8658    1031.2326   -10931.098    4271.3821    -15202.48    110.49414   -1280.1918    -647.6166   -696.37279     136.3171   -56.485768    97.528397      46.7237      46.7237      46.7237           90           90           90     102002.7   -874.72706 
  946000       945500    -9895.111    1020.4327   -10915.544    4257.1787   -15172.722    109.33696   -1103.1259   -579.85065   -75.276649   -87.657978   -136.81215    41.689649      46.7237      46.7237      46.7237           90           90           90     102002.7   -586.08439 
  947000       946500   -9882.3141    1043.2525   -10925.567    4254.2173   -15179.784    111.78205   -295.51441   -10.807017   -452.63485    42.257874   -402.42703   -32.542357      46.7237      46.7237      46.7237           90           90           90     102002.7   -252.98543 
  948000       947500    -9925.721    1008.7616   -10934.483    4245.1001   -15179.583    108.08643   -423.54522   -176.68389   -586.68436    43.306768   -327.42791   -95.900058      46.7237      46.7237      46.7237           90           90           90     102002.7   -395.63782 
  949000       948500   -9900.6907    1036.7575   -10937.448    4249.1744   -15186.623    111.08613   -281.08368   -291.76356   -285.28485    245.16622    223.54083     194.3779      46.7237      46.7237      46.7237           90           90           90     102002.7   -286.04403 
  950000       949500   -9869.0143     1051.802   -10920.816     4266.818   -15187.634     112.6981   -633.39092   -395.15299   -777.88097   -55.231625   -93.146503   -35.510186      46.7237      46.7237      46.7237           90           90           90     102002.7   -602.14163 
  951000       950500   -9861.5942    1044.8481   -10906.442    4255.3411   -15161.783    111.95302   -620.03922   -639.14376    27.786824   -49.414911   -28.169055   -171.96181      46.7237      46.7237      46.7237           90           90           90     102002.7   -410.46539 
  952000       951500   -9884.4227    1035.9133   -10920.336     4264.961   -15185.297    110.99568   -609.98799   -414.55837   -663.66649    232.97912   -14.126221   -80.899936      46.7237      46.7237      46.7237           90           90           90     102002.7   -562.73762 
  953000       952500   -9892.7492    1019.5011    -10912.25      4273.02    -15185.27    109.23714   -907.88506   -540.04388    -443.1562   -52.266786   -94.855038    104.24215      46.7237      46.7237      46.7237           90           90           90     102002.7   -630.36171 
  954000       953500   -9878.0398    1041.3036   -10919.343    4274.4125   -15193.756    111.57323   -671.57966   -925.33405   -946.00298    223.48535   -92.249936   -51.812724      46.7237      46.7237      46.7237           90           90           90     102002.7    -847.6389 
  955000       954500   -9888.0592    1036.9611    -10925.02    4258.2214   -15183.242    111.10794   -505.63326   -604.51865   -318.87539    154.65499   -127.74473    154.95193      46.7237      46.7237      46.7237           90           90           90     102002.7   -476.34243 
  956000       955500   -9931.1034    988.33504   -10919.438    4272.2782   -15191.717    105.89777   -650.74203   -260.08566   -397.90978    1.7309294    -30.95347   -33.781529      46.7237      46.7237      46.7237           90           90           90     102002.7   -436.24582 
  957000       956500   -9909.3798    1026.0747   -10935.454    4250.9238   -15186.378    109.94148   -838.88181    -372.8223   -664.44625   -146.14043   -142.32328    180.72525      46.7237      46.7237      46.7237           90           90           90     102002.7   -625.38345 
  958000       957500    -9872.859    1052.1611    -10925.02    4254.2942   -15179.314    112.73659    -41.11814     36.98922     62.28418   -367.04177    260.74098    227.40457      46.7237      46.7237      46.7237           90           90           90     102002.7    19.385087 
  959000       958500   -9858.4866    1023.0885   -10881.575    4277.3448    -15158.92    109.62152   -252.58149   -619.05251   -387.03651    43.776068    108.13825   -5.6511601      46.7237      46.7237      46.7237           90           90           90     102002.7   -419.55684 
  960000       959500   -9907.7174    1020.9577   -10928.675    4267.8106   -15196.486    109.39321   -614.89221   -516.76853   -743.00477       168.91    173.37684   -139.01966      46.7237      46.7237      46.7237           90           90           90     102002.7    -624.8885 
  961000       960500   -9893.0206    1041.1006   -10934.121    4251.6246   -15185.746    111.55148   -492.77223    43.025272   -295.63217    -71.99858   -34.987841   -69.274764      46.7237      46.7237      46.7237           90           90           90     102002.7   -248.45971 
  962000       961500   -9901.7402    1038.9185   -10940.659    4257.5951   -15198.254    111.31767   -867.91514   -361.37903   -116.98833    69.050761   -224.57608   -206.60425      46.7237      46.7237      46.7237           90           90           90     102002.7   -448.76084 
  963000       962500   -9905.1916    1008.5465   -10913.738    4280.6457   -15194.384    108.06339   -36.270969   -140.08082   -443.22766    1.3371238   -193.38544    65.108094      46.7237      46.7237      46.7237           90           90           90     102002.7   -206.52648 
  964000       963500   -9895.4895    1024.2335   -10919.723    4256.7737   -15176.497    109.74421   -582.54168   -345.16976   -474.76609    136.02885    273.35166    123.48254      46.7237      46.7237      46.7237           90           90           90     102002.7   -467.49251 
  965000       964500   -9868.7621    1054.3469   -10923.109    4266.5107    -15189.62    112.97079    -505.7992    -611.4233   -667.23908    -70.63515    106.54883     95.65265      46.7237      46.7237      46.7237           90           90           90     102002.7   -594.82052 
  966000       965500   -9911.2558    1023.2859   -10934.542    4265.1714   -15199.713    109.64268   -1286.3328   -1266.9422   -412.00424   -107.03702    232.78693   -30.562435      46.7237      46.7237      46.7237           90           90           90     102002.7   -988.42643 
  967000       966500    -9911.731    1018.2666   -10929.998    4255.5869   -15185.584    109.10486   -729.80703   -732.76458    97.193658   -118.21303   -204.56707   -91.495584      46.7237      46.7237      46.7237           90           90           90     102002.7   -455.12598 
  968000       967500   -9886.1597    1021.6712   -10907.831    4266.2699   -15174.101    109.46966   -526.19104   -840.77474   -556.54401    274.43468    185.36943     79.86861      46.7237      46.7237      46.7237           90           90           90     102002.7   -641.16993 
  969000       968500   -9922.3473    1007.6108   -10929.958    4258.6352   -15188.593    107.96312    -876.7154   -773.11913   -473.76948   -139.30483   -58.438062   -115.52264      46.7237      46.7237      46.7237           90           90           90     102002.7     -707.868 
  970000       969500    -9918.342    1007.5465   -10925.888    4239.9424   -15165.831    107.95623   -599.25928    -789.1021   -480.77274     48.94873    145.36346   -114.19894      46.7237      46.7237      46.7237           90           90           90     102002.7   -623.04471 
  971000       970500   -9890.3246    1023.2448   -10913.569     4278.242   -15191.811    109.63827   -585.10101   -748.49156   -882.22971   -174.25417   -231.27822    17.562399      46.7237      46.7237      46.7237           90           90           90     102002.7   -738.60743 
  972000       971500   -9901.9494    1034.8484   -10936.798    4246.0329   -15182.831    110.88156   -649.88685   -507.72849   -511.19994    42.352833   -259.59292    -177.9781      46.7237      46.7237      46.7237           90           90           90     102002.7   -556.27176 
  973000       972500   -9898.5065    1023.4258   -10921.932     4240.269   -15162.201    109.65766   -642.02929   -728.08502   -432.54554   -106.37907   -47.336501   -200.77132      46.7237      46.7237      46.7237           90           90           90     102002.7   -600.88662 
  974000       973500   -9885.0223    1030.7798   -10915.802     4254.072   -15169.874    110.44562   -610.35677   -340.59654   -725.91651    147.06316   -242.87212    155.46879      46.7237      46.7237      46.7237           90           90           90     102002.7   -558.95661 
  975000       974500   -9882.2083    1028.5518    -10910.76    4270.9348   -15181.695     110.2069   -831.52063   -626.88124    71.061032   -61.117265    92.408593   -129.55699      46.7237      46.7237      46.7237           90           90           90     102002.7   -462.44695 
  976000       975500   -9881.0136    1020.9235   -10901.937    4282.8592   -15184.796    109.38955   -635.23427   -665.68161    -813.8319   -221.25894   -113.14816    85.311685      46.7237      46.7237      46.7237           90           90           90     102002.7   -704.91593 
  977000       976500   -9877.8151    1048.9823   -10926.797    4266.1379   -15192.935    112.39598   -127.48782   -570.59405   -610.64747    130.37379   -184.68417   -64.465887      46.7237      46.7237      46.7237           90           90           90     102002.7   -436.24311 
  978000       977500   -9894.7737    1011.9844   -10906.758    4274.3473   -15181.105    108.43174   -703.36775   -437.27084   -663.67527    235.12208     172.4575   -198.88105      46.7237      46.7237      46.7237           90           90           90     102002.7   -601.43796 
  979000       978500   -9859.6837    1036.0044   -10895.688    4259.2048   -15154.893    111.00543   -845.19938   -523.46699    -648.3457    130.36422    325.14785   -178.13658      46.7237      46.7237      46.7237           90           90           90     102002.7   -672.33735 
  980000       979500   -9906.9798    1013.0901    -10920.07    4268.0848   -15188.155    108.55022   -113.67181   -273.66686   -362.51528   -199.00009    55.238829     -121.552      46.7237      46.7237      46.7237           90           90           90     102002.7   -249.95132 
  981000       980500   -9915.7958    1021.9196   -10937.715    4260.8297   -15198.545    109.49628   -715.18234   -742.60524   -338.11736      168.829    132.50758    96.090686      46.7237      46.7237      46.7237           90           90           90     102002.7   -598.63498 
  982000       981500    -9912.856    1028.0427   -10940.899    4255.2876   -15196.186    110.15236   -899.81011   -547.11548   -657.99173   -163.39235    148.08397    100.51434      46.7237      46.7237      46.7237           90           90           90     102002.7   -701.63911 
  983000       982500   -9840.4477    1048.5324    -10888.98    4281.0514   -15170.031    112.34778   -781.88513   -289.04443   -892.23131    225.10775    -64.64812   -54.927778      46.7237      46.7237      46.7237           90           90           90     102002.7   -654.38695 
  984000       983500   -9919.7483    1003.4352   -10923.184    4279.4318   -15202.615    107.51572   -1371.1754   -208.61331    -1167.817    102.33631    161.40502   -7.5732438      46.7237      46.7237      46.7237           90           90           90     102002.7   -915.86857 
  985000       984500   -9885.8221    1039.4106   -10925.233    4267.3199   -15192.553     111.3704   -760.41817   -624.28344   -536.19237    170.53902   -84.522354   -125.52995      46.7237      46.7237      46.7237           90           90           90     102002.7     -640.298 
  986000       985500    -9909.331    1016.3549   -10925.686    4268.9628   -15194.649    108.90003   -333.23331   -570.95661   -834.75479    235.16984    107.49977   -59.433234      46.7237      46.7237      46.7237           90           90           90     102002.7   -579.64824 
  987000       986500   -9889.0731    1026.3458   -10915.419    4266.6124   -15182.031    109.97053   -1156.5354   -673.05832   -663.56915   -86.147853    168.65801    23.638622      46.7237      46.7237      46.7237           90           90           90     102002.7   -831.05429 
  988000       987500   -9911.7708    1016.0364   -10927.807    4284.2572   -15212.064     108.8659   -988.68882   -967.38979   -209.35429   -17.109859   -173.49214   -63.273607      46.7237      46.7237      46.7237           90           90           90     102002.7   -721.81096 
  989000       988500   -9864.9765    1047.1761   -10912.153    4259.2625   -15171.415    112.20245   -1061.1844    -519.9491    76.132581   -42.308341    75.133005    222.76849      46.7237      46.7237      46.7237           90           90           90     102002.7   -501.66697 
  990000       989500   -9917.5234     1030.497    -10948.02    4247.5717   -15195.592    110.41533   -824.17848   -569.27123   -193.71744   -232.56226   -69.072919   -112.98682      46.7237      46.7237      46.7237           90           90           90     102002.7   -529.05572 
  991000       990500   -9908.5596    1015.9897   -10924.549    4277.8383   -15202.388    108.86091   -533.96679   -259.49491   -240.55763    191.65388   -318.66295    47.965765      46.7237      46.7237      46.7237           90           90           90     102002.7   -344.67311 
  992000       991500   -9955.9517     1012.647   -10968.599     4257.805   -15226.404    108.50274   -672.80531   -658.17037   -527.17097    40.381636   -266.93226   -246.05972      46.7237      46.7237      46.7237           90           90           90     102002.7   -619.38222 
  993000       992500   -9933.9082    1005.7407   -10939.649    4268.2194   -15207.868    107.76275   -491.01484   -14.368005   -920.33455    11.880984    -176.9883    92.314007      46.7237      46.7237      46.7237           90           90           90     102002.7   -475.23913 
  994000       993500   -9878.6863    1026.9165   -10905.603    4285.9454   -15191.548    110.03169   -506.75298   -119.74819   -564.05173    146.02549   -136.40192   -142.25019      46.7237      46.7237      46.7237           90           90           90     102002.7   -396.85097 
  995000       994500   -9900.6446    1029.2517   -10929.896     4247.362   -15177.258    110.28189   -859.49731    -598.2514   -654.34206     27.59399   -134.79877    78.655032      46.7237      46.7237      46.7237           90           90           90     102002.7   -704.03026 
  996000       995500   -9919.4284    1021.6017    -10941.03    4265.9752   -15207.005    109.46222   -337.54272   -415.89705   -677.54594    24.997659    -280.0284   -267.54847      46.7237      46.7237      46.7237           90           90           90     102002.7   -476.99523 
  997000       996500   -9894.9016    1035.1902   -10930.092    4264.4279    -15194.52    110.91819   -608.85724   -315.71264   -139.92221   -132.60995    19.689556    226.31319      46.7237      46.7237      46.7237           90           90           90     102002.7   -354.83069 
  998000       997500    -9904.577    1030.8019   -10935.379    4277.6075   -15212.986      110.448   -868.57483    -337.5609      -831.88    159.56304   -28.993418    148.43093      46.7237      46.7237      46.7237           90           90           90     102002.7   -679.33858 
  999000       998500   -9911.6807    1012.1471   -10923.828    4259.6033   -15183.431    108.44917   -1052.9754   -607.74522   -748.76633   -260.17112    104.31796    46.834084      46.7237      46.7237      46.7237           90           90           90     102002.7   -803.16233 
 1000000       999500   -9853.7969    1045.9302   -10899.727    4296.6792   -15196.406    112.06896   -525.25279   -611.35102   -998.71435    -130.2984    135.02737   -113.06781      46.7237      46.7237      46.7237           90           90           90     102002.7   -711.77272 
 1000500      1000000   -9872.5158     1039.426   -10911.942    4266.9744   -15178.916    111.37205   -377.67141   -673.05461   -813.87629   -347.64201   -52.120939    229.78056      46.7237      46.7237      46.7237           90           90           90     102002.7    -621.5341 
Loop time of 990.831 on 24 procs for 500000 steps with 3132 atoms

Performance: 43.600 ns/day, 0.550 hours/ns, 504.627 timesteps/s
98.2% CPU use with 24 MPI tasks x no OpenMP threads

MPI task timing breakdown:
Section |  min time  |  avg time  |  max time  |%varavg| %total
---------------------------------------------------------------
Pair    | 414.77     | 557.48     | 712.72     | 331.5 | 56.26
Bond    | 64.682     | 82.897     | 98.911     | 124.6 |  8.37
Neigh   | 7.5291     | 7.5541     | 7.5777     |   0.6 |  0.76
Comm    | 147.84     | 318.62     | 476.76     | 478.0 | 32.16
Output  | 0.53936    | 0.57902    | 0.5809     |   1.1 |  0.06
Modify  | 12.748     | 13.408     | 13.848     |   8.1 |  1.35
Other   |            | 10.3       |            |       |  1.04

Nlocal:    130.5 ave 169 max 94 min
Histogram: 1 3 2 4 4 3 1 2 1 3
Nghost:    3511 ave 3645 max 3416 min
Histogram: 3 7 5 1 0 0 0 1 2 5
Neighs:    7635.83 ave 14378 max 2007 min
Histogram: 1 3 4 5 3 1 2 2 0 3

Total # of neighbors = 183260
Ave neighs/atom = 58.5121
Ave special neighs/atom = 3.67816
Neighbor list builds = 4695
Dangerous builds = 0
Total wall time: 0:30:29
