LAMMPS (30 Mar 2018)
Reading data file ...
  orthogonal box = (0 0 0) to (46.7237 46.7237 46.7237)
  2 by 3 by 4 MPI processor grid
  reading atoms ...
  1735 atoms
  scanning bonds ...
  5 = max bonds/atom
  scanning angles ...
  10 = max angles/atom
  scanning dihedrals ...
  32 = max dihedrals/atom
  scanning impropers ...
  3 = max impropers/atom
  reading bonds ...
  2064 bonds
  reading angles ...
  3696 angles
  reading dihedrals ...
  6240 dihedrals
  reading impropers ...
  1008 impropers
Finding 1-2 1-3 1-4 neighbors ...
  special bond factors lj:   0          0          0         
  special bond factors coul: 0          0          0         
  5 = max # of 1-2 neighbors
  8 = max # of 1-3 neighbors
  20 = max # of 1-4 neighbors
  19 = max # of special neighbors
Finding 1-2 1-3 1-4 neighbors ...
  special bond factors lj:   0          0          1         
  special bond factors coul: 1          1          1         
  5 = max # of 1-2 neighbors
  8 = max # of 1-3 neighbors
  19 = max # of special neighbors
WARNING: Using 'neigh_modify every 1 delay 0 check yes' setting during minimization (../min.cpp:168)
Neighbor list info ...
  update every 1 steps, delay 0 steps, check yes
  max neighbors/atom: 2000, page size: 100000
  master list distance cutoff = 16
  ghost atom cutoff = 16
  binsize = 8, bins = 6 6 6
  3 neighbor lists, perpetual/occasional/extra = 3 0 0
  (1) pair buck6d/coul/gauss/dsf, perpetual, skip from (3)
      attributes: half, newton on
      pair build: skip
      stencil: none
      bin: none
  (2) pair lj/cut, perpetual, skip from (3)
      attributes: half, newton on
      pair build: skip
      stencil: none
      bin: none
  (3) neighbor class addition, perpetual
      attributes: half, newton on
      pair build: half/bin/newton
      stencil: half/bin/3d/newton
      bin: standard
Setting up cg style minimization ...
  Unit style    : real
  Current step  : 0
WARNING: Inconsistent image flags (../domain.cpp:786)
Per MPI rank memory allocation (min/avg/max) = 22.87 | 23.28 | 24.42 Mbytes
Step Temp E_pair E_mol TotEng Press 
       0            0   -11533.015    6482.8914   -5050.1236    6280.8022 
     508            0   -11554.667    3735.4592   -7819.2082   -486.75323 
Loop time of 1.16791 on 24 procs for 508 steps with 1735 atoms

99.8% CPU use with 24 MPI tasks x no OpenMP threads

Minimization stats:
  Stopping criterion = max force evaluations
  Energy initial, next-to-last, final = 
        -5050.12359862     -7819.18151689     -7819.20823128
  Force two-norm initial, final = 2576.97 7.53415
  Force max component initial, final = 152.031 0.788925
  Final line search alpha, max atom move = 0.00455185 0.00359106
  Iterations, force evaluations = 508 1001

MPI task timing breakdown:
Section |  min time  |  avg time  |  max time  |%varavg| %total
---------------------------------------------------------------
Pair    | 0.47841    | 0.59606    | 0.74482    |  10.1 | 51.04
Bond    | 0.10821    | 0.1569     | 0.18976    |   4.9 | 13.43
Neigh   | 0.0075494  | 0.0076755  | 0.0077644  |   0.1 |  0.66
Comm    | 0.22531    | 0.37592    | 0.50432    |  12.5 | 32.19
Output  | 0          | 0          | 0          |   0.0 |  0.00
Modify  | 0          | 0          | 0          |   0.0 |  0.00
Other   |            | 0.03135    |            |       |  2.68

Nlocal:    72.2917 ave 82 max 57 min
Histogram: 1 0 2 0 5 2 4 5 2 3
Nghost:    1974.21 ave 2150 max 1883 min
Histogram: 16 0 0 0 0 0 0 0 0 8
Neighs:    7629.71 ave 10294 max 4810 min
Histogram: 2 3 3 3 1 3 0 1 3 5

Total # of neighbors = 183113
Ave neighs/atom = 105.541
Ave special neighs/atom = 6.63977
Neighbor list builds = 15
Dangerous builds = 0
Neighbor list info ...
  update every 1 steps, delay 10 steps, check yes
  max neighbors/atom: 2000, page size: 100000
  master list distance cutoff = 16
  ghost atom cutoff = 16
  binsize = 8, bins = 6 6 6
  3 neighbor lists, perpetual/occasional/extra = 3 0 0
  (1) pair buck6d/coul/gauss/dsf, perpetual, skip from (3)
      attributes: half, newton on
      pair build: skip
      stencil: none
      bin: none
  (2) pair lj/cut, perpetual, skip from (3)
      attributes: half, newton on
      pair build: skip
      stencil: none
      bin: none
  (3) neighbor class addition, perpetual
      attributes: half, newton on
      pair build: half/bin/newton
      stencil: half/bin/3d/newton
      bin: standard
Setting up Verlet run ...
  Unit style    : real
  Current step  : 508
  Time step     : 1
WARNING: Inconsistent image flags (../domain.cpp:786)
Per MPI rank memory allocation (min/avg/max) = 22.52 | 22.68 | 23.29 Mbytes
Step Temp PotEng TotEng Press Volume Lx Ly Lz 
     508          110   -7819.2082   -7250.6485    -231.9545     102002.7      46.7237      46.7237      46.7237 
    1000    92.357196   -7293.6777   -6816.3088   -649.67833     102002.7      46.7237      46.7237      46.7237 
    2000    107.40658   -7209.2633   -6654.1083   -735.30822     102002.7      46.7237      46.7237      46.7237 
    3000    108.21574    -7237.286   -6677.9487   -878.88924     102002.7      46.7237      46.7237      46.7237 
    4000    107.06975    -7235.278    -6681.864   -846.26328     102002.7      46.7237      46.7237      46.7237 
    5000    110.92742   -7233.2254   -6659.8721   -740.22662     102002.7      46.7237      46.7237      46.7237 
    6000    105.36934   -7253.6669   -6709.0418   -919.30996     102002.7      46.7237      46.7237      46.7237 
    7000    111.81734   -7246.2266   -6668.2735   -774.79009     102002.7      46.7237      46.7237      46.7237 
    8000     112.2859   -7225.1227   -6644.7478   -1103.8388     102002.7      46.7237      46.7237      46.7237 
    9000    109.51862   -7240.4325    -6674.361   -723.68601     102002.7      46.7237      46.7237      46.7237 
   10000    110.22369   -7259.1369   -6689.4211   -841.31091     102002.7      46.7237      46.7237      46.7237 
   11000    109.62067   -7228.7067   -6662.1077   -884.50426     102002.7      46.7237      46.7237      46.7237 
   12000    108.96274   -7239.2992   -6676.1008   -532.09367     102002.7      46.7237      46.7237      46.7237 
   13000    114.46902   -7242.9538   -6651.2949   -693.08488     102002.7      46.7237      46.7237      46.7237 
   14000    111.12718   -7264.0699   -6689.6841   -329.92729     102002.7      46.7237      46.7237      46.7237 
   15000    114.00343   -7237.6982   -6648.4459    -750.3028     102002.7      46.7237      46.7237      46.7237 
   16000    111.42878   -7241.9348   -6665.9901   -615.29545     102002.7      46.7237      46.7237      46.7237 
   17000    105.61965   -7250.6436   -6704.7247   -648.45939     102002.7      46.7237      46.7237      46.7237 
   18000    108.74958   -7247.7712   -6685.6746   -1050.3864     102002.7      46.7237      46.7237      46.7237 
   19000    110.56238   -7232.5521   -6661.0855    -757.4356     102002.7      46.7237      46.7237      46.7237 
   20000    109.98873   -7239.4584   -6670.9569   -680.06404     102002.7      46.7237      46.7237      46.7237 
   21000    109.70655   -7252.1727   -6685.1297    -590.0151     102002.7      46.7237      46.7237      46.7237 
   22000    107.20238    -7221.896   -6667.7964   -691.09525     102002.7      46.7237      46.7237      46.7237 
   23000    108.32543   -7242.4324    -6682.528   -703.42711     102002.7      46.7237      46.7237      46.7237 
   24000    110.40296   -7233.3442   -6662.7017   -648.89448     102002.7      46.7237      46.7237      46.7237 
   25000    112.90431   -7245.0528   -6661.4815    -582.8174     102002.7      46.7237      46.7237      46.7237 
   26000    109.77696   -7249.2099    -6681.803   -581.83165     102002.7      46.7237      46.7237      46.7237 
   27000     110.1792   -7236.2484   -6666.7624    -407.3576     102002.7      46.7237      46.7237      46.7237 
   28000    103.54127    -7257.143   -6721.9667   -668.30872     102002.7      46.7237      46.7237      46.7237 
   29000    112.06008    -7245.801   -6666.5933   -364.12122     102002.7      46.7237      46.7237      46.7237 
   30000    107.28208   -7254.7439   -6700.2324   -698.14991     102002.7      46.7237      46.7237      46.7237 
   31000    109.35326    -7251.666   -6686.4491   -755.25374     102002.7      46.7237      46.7237      46.7237 
   32000    111.48688    -7228.709    -6652.464   -583.82105     102002.7      46.7237      46.7237      46.7237 
   33000    109.46056   -7255.6273   -6689.8559   -805.58274     102002.7      46.7237      46.7237      46.7237 
   34000    111.58742    -7224.106   -6647.3414   -541.94772     102002.7      46.7237      46.7237      46.7237 
   35000    113.71865   -7261.4859   -6673.7056   -456.57616     102002.7      46.7237      46.7237      46.7237 
   36000    110.98454   -7251.5179   -6677.8694   -503.23617     102002.7      46.7237      46.7237      46.7237 
   37000    112.46835   -7245.6349    -6664.317   -460.85852     102002.7      46.7237      46.7237      46.7237 
   38000    109.57315   -7249.0683   -6682.7148    -879.0153     102002.7      46.7237      46.7237      46.7237 
   39000     107.8893    -7218.282   -6660.6319   -812.95069     102002.7      46.7237      46.7237      46.7237 
   40000    109.04775   -7230.2956   -6666.6578   -581.16016     102002.7      46.7237      46.7237      46.7237 
   41000    109.95297   -7244.1589   -6675.8422   -931.92339     102002.7      46.7237      46.7237      46.7237 
   42000    107.17347   -7230.5198   -6676.5696   -856.46523     102002.7      46.7237      46.7237      46.7237 
   43000    113.25724   -7239.0335    -6653.638   -599.12097     102002.7      46.7237      46.7237      46.7237 
   44000      107.153   -7236.8066   -6682.9623   -895.82881     102002.7      46.7237      46.7237      46.7237 
   45000     113.5426   -7232.2716   -6645.4011    -543.1022     102002.7      46.7237      46.7237      46.7237 
   46000    111.04991   -7236.4472   -6662.4608   -536.26858     102002.7      46.7237      46.7237      46.7237 
   47000    108.97246   -7251.4248   -6688.1761   -547.68713     102002.7      46.7237      46.7237      46.7237 
   48000     109.8995   -7229.9066   -6661.8664    -535.3025     102002.7      46.7237      46.7237      46.7237 
   49000    108.00693   -7246.4823   -6688.2242   -578.58837     102002.7      46.7237      46.7237      46.7237 
   50000    111.02071   -7239.3791   -6665.5436   -535.44754     102002.7      46.7237      46.7237      46.7237 
   51000    106.70953    -7240.669   -6689.1169   -440.83646     102002.7      46.7237      46.7237      46.7237 
   52000    111.48735   -7248.0117   -6671.7643   -649.24391     102002.7      46.7237      46.7237      46.7237 
   53000    108.84634   -7238.6916   -6676.0948   -490.97418     102002.7      46.7237      46.7237      46.7237 
   54000    107.84466   -7244.0499   -6686.6306   -721.66847     102002.7      46.7237      46.7237      46.7237 
   55000    110.52949   -7230.9301   -6659.6336   -694.82062     102002.7      46.7237      46.7237      46.7237 
   56000    110.12009   -7261.0726   -6691.8922   -760.14312     102002.7      46.7237      46.7237      46.7237 
   57000    107.87705   -7233.1162   -6675.5294   -672.29056     102002.7      46.7237      46.7237      46.7237 
   58000    108.66134   -7229.8221   -6668.1816   -551.60742     102002.7      46.7237      46.7237      46.7237 
   59000    108.80935   -7251.7925   -6689.3869   -852.96653     102002.7      46.7237      46.7237      46.7237 
   60000    112.18759   -7241.6294   -6661.7626   -428.09825     102002.7      46.7237      46.7237      46.7237 
   61000    109.06913   -7240.3426   -6676.5943   -527.45834     102002.7      46.7237      46.7237      46.7237 
   62000    109.30546    -7222.728   -6657.7581   -891.74002     102002.7      46.7237      46.7237      46.7237 
   63000    111.74016   -7240.2546   -6662.7005   -659.78292     102002.7      46.7237      46.7237      46.7237 
   64000    112.20457   -7260.8966    -6680.942   -627.26611     102002.7      46.7237      46.7237      46.7237 
   65000    111.23856   -7248.9722   -6674.0107   -607.45159     102002.7      46.7237      46.7237      46.7237 
   66000    107.58161   -7247.0707    -6691.011    -713.8197     102002.7      46.7237      46.7237      46.7237 
   67000    109.96489   -7251.3789   -6683.0006   -502.97973     102002.7      46.7237      46.7237      46.7237 
   68000    112.36696   -7240.2344   -6659.4405   -490.11254     102002.7      46.7237      46.7237      46.7237 
   69000     110.6268   -7252.3758   -6680.5763   -798.24886     102002.7      46.7237      46.7237      46.7237 
   70000    106.85897    -7238.094   -6685.7694   -886.47428     102002.7      46.7237      46.7237      46.7237 
   71000    110.27096    -7225.886   -6655.9258   -797.45942     102002.7      46.7237      46.7237      46.7237 
   72000    107.75531   -7244.7408   -6687.7833   -796.51869     102002.7      46.7237      46.7237      46.7237 
   73000    108.35825   -7242.5757   -6682.5017   -862.63467     102002.7      46.7237      46.7237      46.7237 
   74000    111.56123   -7222.3503    -6645.721    -688.4159     102002.7      46.7237      46.7237      46.7237 
   75000    108.31951   -7250.2738   -6690.4001   -861.32148     102002.7      46.7237      46.7237      46.7237 
   76000    109.45252   -7235.7438   -6670.0138   -763.25004     102002.7      46.7237      46.7237      46.7237 
   77000    106.23559   -7216.6327   -6667.5302    -585.4729     102002.7      46.7237      46.7237      46.7237 
   78000    108.15375   -7242.8113   -6683.7944   -904.56409     102002.7      46.7237      46.7237      46.7237 
   79000    112.01982   -7242.7399   -6663.7403    -991.5206     102002.7      46.7237      46.7237      46.7237 
   80000    112.94175   -7261.9138    -6678.149   -826.72338     102002.7      46.7237      46.7237      46.7237 
   81000    111.67928   -7247.4723   -6670.2329   -930.75515     102002.7      46.7237      46.7237      46.7237 
   82000    113.26273   -7246.5486   -6661.1247    -881.4647     102002.7      46.7237      46.7237      46.7237 
   83000    110.73683   -7241.4948   -6669.1266   -693.73525     102002.7      46.7237      46.7237      46.7237 
   84000    111.86898   -7224.5531   -6646.3332   -684.91295     102002.7      46.7237      46.7237      46.7237 
   85000    109.13287   -7239.2731   -6675.1953   -692.69113     102002.7      46.7237      46.7237      46.7237 
   86000    112.88324   -7239.4543   -6655.9919   -643.10794     102002.7      46.7237      46.7237      46.7237 
   87000    110.55119   -7262.1838   -6690.7752   -790.95867     102002.7      46.7237      46.7237      46.7237 
   88000    110.60491   -7231.3292   -6659.6428   -495.81494     102002.7      46.7237      46.7237      46.7237 
   89000    112.68518   -7226.9585   -6644.5198    -381.6426     102002.7      46.7237      46.7237      46.7237 
   90000    108.88984   -7230.7037   -6667.8821   -621.33177     102002.7      46.7237      46.7237      46.7237 
   91000    111.47918   -7254.2839   -6678.0787   -542.82128     102002.7      46.7237      46.7237      46.7237 
   92000    106.70077   -7233.5361   -6682.0292   -589.04885     102002.7      46.7237      46.7237      46.7237 
   93000    109.57323   -7243.2274   -6676.8736   -462.08019     102002.7      46.7237      46.7237      46.7237 
   94000    106.62808   -7235.4255   -6684.2943   -582.09488     102002.7      46.7237      46.7237      46.7237 
   95000    111.73253   -7226.7355   -6649.2208   -717.24699     102002.7      46.7237      46.7237      46.7237 
   96000    112.44358    -7253.755   -6672.5651   -663.17288     102002.7      46.7237      46.7237      46.7237 
   97000    108.77227   -7221.8638   -6659.6499   -557.27758     102002.7      46.7237      46.7237      46.7237 
   98000    110.14732   -7252.3551   -6683.0339   -642.57368     102002.7      46.7237      46.7237      46.7237 
   99000    107.48348   -7231.2923   -6675.7398   -619.24744     102002.7      46.7237      46.7237      46.7237 
  100000    107.47709   -7225.3417   -6669.8222   -686.64855     102002.7      46.7237      46.7237      46.7237 
  101000    108.87432   -7241.4817   -6678.7404   -760.81046     102002.7      46.7237      46.7237      46.7237 
  102000    109.28971    -7229.245   -6664.3566   -939.93194     102002.7      46.7237      46.7237      46.7237 
  103000    109.18207   -7235.9614   -6671.6293   -626.84606     102002.7      46.7237      46.7237      46.7237 
  104000    113.37812   -7232.9784   -6646.9581   -987.14129     102002.7      46.7237      46.7237      46.7237 
  105000    111.28469   -7248.8505   -6673.6505   -599.56993     102002.7      46.7237      46.7237      46.7237 
  106000    111.99261   -7253.5755   -6674.7165   -718.45432     102002.7      46.7237      46.7237      46.7237 
  107000    107.99552     -7235.45   -6677.2509   -709.93731     102002.7      46.7237      46.7237      46.7237 
  108000    113.52227    -7221.781   -6635.0156   -922.65154     102002.7      46.7237      46.7237      46.7237 
  109000    110.05801    -7258.394   -6689.5345   -901.87201     102002.7      46.7237      46.7237      46.7237 
  110000    108.44008   -7238.5756   -6678.0786   -644.73792     102002.7      46.7237      46.7237      46.7237 
  111000    111.99622   -7237.5525   -6658.6749   -637.62252     102002.7      46.7237      46.7237      46.7237 
  112000    109.62389   -7233.3592   -6666.7435    -706.4443     102002.7      46.7237      46.7237      46.7237 
  113000    108.07519   -7249.1481   -6690.5372   -655.59905     102002.7      46.7237      46.7237      46.7237 
  114000    110.08234   -7254.6045   -6685.6192   -708.17357     102002.7      46.7237      46.7237      46.7237 
  115000    108.73285    -7230.728   -6668.7178   -337.45349     102002.7      46.7237      46.7237      46.7237 
  116000    109.42281   -7244.6755   -6679.0992   -708.24685     102002.7      46.7237      46.7237      46.7237 
  117000    109.45112   -7232.7504   -6667.0276   -829.04293     102002.7      46.7237      46.7237      46.7237 
  118000    108.18695   -7245.4572   -6686.2686   -531.58249     102002.7      46.7237      46.7237      46.7237 
  119000    107.24959   -7243.8283   -6689.4847   -469.48001     102002.7      46.7237      46.7237      46.7237 
  120000     108.7562   -7226.9361   -6664.8052   -678.51962     102002.7      46.7237      46.7237      46.7237 
  121000    108.17658   -7251.8907   -6692.7558   -535.49077     102002.7      46.7237      46.7237      46.7237 
  122000    110.05203   -7229.3391   -6660.5105   -663.01928     102002.7      46.7237      46.7237      46.7237 
  123000    111.41514   -7225.4856   -6649.6114   -613.77396     102002.7      46.7237      46.7237      46.7237 
  124000    105.49522   -7232.4324   -6687.1566    -540.3594     102002.7      46.7237      46.7237      46.7237 
  125000    109.22541   -7253.3711   -6688.8151   -491.77744     102002.7      46.7237      46.7237      46.7237 
  126000    106.14198   -7221.3859   -6672.7672   -691.08714     102002.7      46.7237      46.7237      46.7237 
  127000    107.10112   -7249.2687   -6695.6925   -558.71418     102002.7      46.7237      46.7237      46.7237 
  128000    113.54182   -7243.2927   -6656.4264   -500.89917     102002.7      46.7237      46.7237      46.7237 
  129000    112.45131   -7220.0861   -6638.8563    -838.6349     102002.7      46.7237      46.7237      46.7237 
  130000    108.20101   -7235.9149   -6676.6537    -910.6461     102002.7      46.7237      46.7237      46.7237 
  131000    110.52109   -7238.4339   -6667.1808   -1023.5021     102002.7      46.7237      46.7237      46.7237 
  132000    109.58506   -7231.5277   -6665.1127   -751.74566     102002.7      46.7237      46.7237      46.7237 
  133000    109.78288   -7240.2453   -6672.8078   -827.97008     102002.7      46.7237      46.7237      46.7237 
  134000    109.90353   -7231.6835   -6663.6224   -905.78312     102002.7      46.7237      46.7237      46.7237 
  135000    109.41853   -7239.8528   -6674.2985   -530.33705     102002.7      46.7237      46.7237      46.7237 
  136000    106.94776   -7247.6415   -6694.8579   -613.03417     102002.7      46.7237      46.7237      46.7237 
  137000    111.48451   -7233.0144   -6656.7817   -761.54991     102002.7      46.7237      46.7237      46.7237 
  138000    110.24237   -7242.4009   -6672.5885   -789.20874     102002.7      46.7237      46.7237      46.7237 
  139000    108.60989   -7251.5304   -6690.1558   -704.29068     102002.7      46.7237      46.7237      46.7237 
  140000    107.93669   -7212.4854   -6654.5904   -819.77562     102002.7      46.7237      46.7237      46.7237 
  141000    109.09552   -7242.6587    -6678.774   -748.33935     102002.7      46.7237      46.7237      46.7237 
  142000    109.91296   -7234.6093   -6666.4995   -711.55451     102002.7      46.7237      46.7237      46.7237 
  143000    106.07108   -7247.1296   -6698.8774   -653.64404     102002.7      46.7237      46.7237      46.7237 
  144000    108.01087   -7242.5372   -6684.2587   -524.74557     102002.7      46.7237      46.7237      46.7237 
  145000     105.4915   -7237.3778   -6692.1213   -701.06068     102002.7      46.7237      46.7237      46.7237 
  146000    109.96615   -7249.9023   -6681.5176   -620.90116     102002.7      46.7237      46.7237      46.7237 
  147000    108.59814   -7232.7722   -6671.4584   -708.15234     102002.7      46.7237      46.7237      46.7237 
  148000    107.25757   -7231.9555   -6677.5706   -559.45911     102002.7      46.7237      46.7237      46.7237 
  149000     111.3483   -7228.2942   -6652.7655   -442.58554     102002.7      46.7237      46.7237      46.7237 
  150000    108.82617   -7246.1571   -6683.6646   -697.67655     102002.7      46.7237      46.7237      46.7237 
  151000    112.34002   -7264.0095   -6683.3549   -595.64865     102002.7      46.7237      46.7237      46.7237 
  152000    111.34911   -7239.8062   -6664.2733   -631.22039     102002.7      46.7237      46.7237      46.7237 
  153000    108.68962   -7255.8334   -6694.0467   -593.23998     102002.7      46.7237      46.7237      46.7237 
  154000    115.30749   -7243.7702   -6647.7775   -540.82324     102002.7      46.7237      46.7237      46.7237 
  155000    109.24264   -7254.2771    -6689.632    -547.5571     102002.7      46.7237      46.7237      46.7237 
  156000    111.11919   -7233.2322   -6658.8877   -782.53736     102002.7      46.7237      46.7237      46.7237 
  157000    111.81097   -7245.5461    -6667.626    -632.6449     102002.7      46.7237      46.7237      46.7237 
  158000      109.657   -7248.8341   -6682.0473   -835.18554     102002.7      46.7237      46.7237      46.7237 
  159000    108.23131   -7229.4023   -6669.9844   -809.98712     102002.7      46.7237      46.7237      46.7237 
  160000    114.27795   -7236.7376   -6646.0663   -433.96565     102002.7      46.7237      46.7237      46.7237 
  161000    110.23602   -7254.5445   -6684.7649   -661.41491     102002.7      46.7237      46.7237      46.7237 
  162000    106.30778   -7238.6544   -6689.1788    -324.9868     102002.7      46.7237      46.7237      46.7237 
  163000    112.62347   -7235.0518   -6652.9321   -724.16877     102002.7      46.7237      46.7237      46.7237 
  164000    112.17666   -7256.0946   -6676.2844   -763.62257     102002.7      46.7237      46.7237      46.7237 
  165000    109.39069   -7241.0162   -6675.6058   -521.65837     102002.7      46.7237      46.7237      46.7237 
  166000    112.93408   -7232.9526   -6649.2274   -753.06444     102002.7      46.7237      46.7237      46.7237 
  167000    107.44544   -7232.5492   -6677.1933   -625.92454     102002.7      46.7237      46.7237      46.7237 
  168000    113.34051   -7240.3875   -6654.5616    -1024.594     102002.7      46.7237      46.7237      46.7237 
  169000    106.83691   -7264.0143   -6711.8038   -703.20233     102002.7      46.7237      46.7237      46.7237 
  170000    109.20903   -7223.8947   -6659.4233    -892.6972     102002.7      46.7237      46.7237      46.7237 
  171000    108.19716   -7252.3629   -6693.1216   -584.82694     102002.7      46.7237      46.7237      46.7237 
  172000    113.09471   -7221.2936   -6636.7382   -522.30386     102002.7      46.7237      46.7237      46.7237 
  173000    107.03484   -7228.3262   -6675.0926   -559.29204     102002.7      46.7237      46.7237      46.7237 
  174000    112.21962   -7218.5431   -6638.5108    -490.3536     102002.7      46.7237      46.7237      46.7237 
  175000    112.20048   -7245.8779   -6665.9445   -802.29525     102002.7      46.7237      46.7237      46.7237 
  176000    111.89155   -7248.8997   -6670.5631   -543.15431     102002.7      46.7237      46.7237      46.7237 
  177000    107.51118    -7260.977   -6705.2813   -718.53478     102002.7      46.7237      46.7237      46.7237 
  178000    109.27666   -7246.3243   -6681.5033   -468.98187     102002.7      46.7237      46.7237      46.7237 
  179000    108.76287   -7227.9397   -6665.7744   -482.14642     102002.7      46.7237      46.7237      46.7237 
  180000    111.31107   -7227.1503    -6651.814   -583.07957     102002.7      46.7237      46.7237      46.7237 
  181000    106.29071   -7244.3918   -6695.0044   -490.47203     102002.7      46.7237      46.7237      46.7237 
  182000    107.19582   -7218.1936   -6664.1279   -771.16569     102002.7      46.7237      46.7237      46.7237 
  183000    111.16329   -7239.1082   -6664.5358   -764.73496     102002.7      46.7237      46.7237      46.7237 
  184000    109.39198   -7253.2688   -6687.8517   -799.05146     102002.7      46.7237      46.7237      46.7237 
  185000    111.16294   -7248.2586    -6673.688     -834.876     102002.7      46.7237      46.7237      46.7237 
  186000    111.95835   -7240.6264   -6661.9445    -687.0507     102002.7      46.7237      46.7237      46.7237 
  187000      107.723   -7230.9398   -6674.1493   -848.58747     102002.7      46.7237      46.7237      46.7237 
  188000    106.62265    -7238.777   -6687.6738   -686.14197     102002.7      46.7237      46.7237      46.7237 
  189000          113   -7235.9115   -6651.8456   -661.81958     102002.7      46.7237      46.7237      46.7237 
  190000    109.95112   -7248.1814   -6679.8744   -1019.7357     102002.7      46.7237      46.7237      46.7237 
  191000    110.07826   -7252.5028   -6683.5385   -692.35206     102002.7      46.7237      46.7237      46.7237 
  192000    110.71925   -7230.1729   -6657.8956    -414.3879     102002.7      46.7237      46.7237      46.7237 
  193000    110.14344   -7249.9735   -6680.6723   -696.96063     102002.7      46.7237      46.7237      46.7237 
  194000    107.98995   -7238.0645   -6679.8942   -562.33401     102002.7      46.7237      46.7237      46.7237 
  195000    107.65424    -7245.723   -6689.2879   -732.62633     102002.7      46.7237      46.7237      46.7237 
  196000    110.55528   -7239.9958    -6668.566   -796.39324     102002.7      46.7237      46.7237      46.7237 
  197000     112.1868   -7230.4989   -6650.6362   -607.05961     102002.7      46.7237      46.7237      46.7237 
  198000    110.17294   -7250.1545   -6680.7009   -697.15121     102002.7      46.7237      46.7237      46.7237 
  199000    110.68502   -7245.1315   -6673.0311   -606.80928     102002.7      46.7237      46.7237      46.7237 
  200000    111.80773   -7237.6361   -6659.7328   -737.92316     102002.7      46.7237      46.7237      46.7237 
  201000    108.26246   -7223.5189   -6663.9401    -659.9792     102002.7      46.7237      46.7237      46.7237 
  202000    110.84936   -7252.4039    -6679.454   -596.76121     102002.7      46.7237      46.7237      46.7237 
  203000    112.14696    -7224.832   -6645.1753   -899.52896     102002.7      46.7237      46.7237      46.7237 
  204000    107.09367   -7241.5154   -6687.9777   -1052.7667     102002.7      46.7237      46.7237      46.7237 
  205000    114.22714   -7231.0408   -6640.6322   -811.59624     102002.7      46.7237      46.7237      46.7237 
  206000    109.84567   -7237.6915   -6669.9295   -686.67411     102002.7      46.7237      46.7237      46.7237 
  207000     105.8895   -7235.7999   -6688.4863   -1002.3169     102002.7      46.7237      46.7237      46.7237 
  208000    110.77599   -7232.6193   -6660.0487   -713.61263     102002.7      46.7237      46.7237      46.7237 
  209000    106.66032   -7241.9437   -6690.6459   -1010.0129     102002.7      46.7237      46.7237      46.7237 
  210000     109.5783   -7235.5365   -6669.1565   -780.25609     102002.7      46.7237      46.7237      46.7237 
  211000    110.76508   -7243.5155   -6671.0013   -827.47319     102002.7      46.7237      46.7237      46.7237 
  212000    106.46807   -7243.0746   -6692.7704    -969.4802     102002.7      46.7237      46.7237      46.7237 
  213000    110.96456    -7245.703   -6672.1577   -766.53272     102002.7      46.7237      46.7237      46.7237 
  214000    107.72213   -7250.8612   -6694.0752   -853.62498     102002.7      46.7237      46.7237      46.7237 
  215000    111.97632   -7241.8372   -6663.0625   -762.99457     102002.7      46.7237      46.7237      46.7237 
  216000    108.44387   -7257.0915    -6696.575   -742.87165     102002.7      46.7237      46.7237      46.7237 
  217000    110.91816   -7240.6111   -6667.3057   -547.37007     102002.7      46.7237      46.7237      46.7237 
  218000    111.27564   -7227.8612   -6652.7081   -807.43352     102002.7      46.7237      46.7237      46.7237 
  219000    106.70966   -7239.6411   -6688.0882   -633.95026     102002.7      46.7237      46.7237      46.7237 
  220000     107.6549   -7255.1791   -6698.7405   -758.06216     102002.7      46.7237      46.7237      46.7237 
  221000    110.25283   -7261.1535    -6691.287    -431.8314     102002.7      46.7237      46.7237      46.7237 
  222000    111.41309   -7237.6733   -6661.8097    -713.6139     102002.7      46.7237      46.7237      46.7237 
  223000     110.6629   -7252.0693   -6680.0832   -899.57586     102002.7      46.7237      46.7237      46.7237 
  224000    106.85358   -7241.2009   -6688.9042   -633.58021     102002.7      46.7237      46.7237      46.7237 
  225000    112.14482   -7256.8711   -6677.2254   -580.55871     102002.7      46.7237      46.7237      46.7237 
  226000     108.6742   -7254.8519   -6693.1449   -542.68719     102002.7      46.7237      46.7237      46.7237 
  227000    107.44222   -7242.0725   -6686.7333   -649.73048     102002.7      46.7237      46.7237      46.7237 
  228000    108.49864   -7238.6856    -6677.886   -629.24885     102002.7      46.7237      46.7237      46.7237 
  229000    112.51512    -7262.442   -6680.8823   -840.29686     102002.7      46.7237      46.7237      46.7237 
  230000    112.54226   -7227.6499   -6645.9499   -897.14484     102002.7      46.7237      46.7237      46.7237 
  231000    107.63925   -7228.3341   -6671.9765   -824.45694     102002.7      46.7237      46.7237      46.7237 
  232000    110.16263   -7224.6743   -6655.2739   -790.88754     102002.7      46.7237      46.7237      46.7237 
  233000    108.17566   -7235.2984   -6676.1682   -808.88662     102002.7      46.7237      46.7237      46.7237 
  234000    111.29465   -7235.5043   -6660.2529   -446.11375     102002.7      46.7237      46.7237      46.7237 
  235000    112.94378     -7251.42   -6667.6447   -673.98924     102002.7      46.7237      46.7237      46.7237 
  236000     109.1746   -7259.7903   -6695.4968   -547.47021     102002.7      46.7237      46.7237      46.7237 
  237000    110.73411   -7247.9385   -6675.5844   -743.80203     102002.7      46.7237      46.7237      46.7237 
  238000       112.62   -7235.2616   -6653.1598   -596.19262     102002.7      46.7237      46.7237      46.7237 
  239000    110.29092   -7245.3235   -6675.2602   -695.66752     102002.7      46.7237      46.7237      46.7237 
  240000    107.63126   -7218.0017   -6661.6853   -779.96097     102002.7      46.7237      46.7237      46.7237 
  241000    108.41548   -7233.8832   -6673.5134   -668.03407     102002.7      46.7237      46.7237      46.7237 
  242000    109.78534   -7231.2227   -6663.7725   -818.94207     102002.7      46.7237      46.7237      46.7237 
  243000    110.15447   -7253.5148   -6684.1566    -919.4555     102002.7      46.7237      46.7237      46.7237 
  244000    111.12093   -7234.1251   -6659.7716   -700.87687     102002.7      46.7237      46.7237      46.7237 
  245000    109.11134   -7257.5394   -6693.5729   -557.29752     102002.7      46.7237      46.7237      46.7237 
  246000    114.68536   -7246.9773   -6654.2003    -779.4911     102002.7      46.7237      46.7237      46.7237 
  247000    111.85573   -7249.8665   -6671.7151   -595.62599     102002.7      46.7237      46.7237      46.7237 
  248000    107.50944   -7249.8881   -6694.2014    -478.2415     102002.7      46.7237      46.7237      46.7237 
  249000    111.61748   -7252.2463   -6675.3263   -547.63327     102002.7      46.7237      46.7237      46.7237 
  250000      108.957   -7240.9729   -6677.8042   -737.60305     102002.7      46.7237      46.7237      46.7237 
  251000    111.53611   -7248.0049   -6671.5055   -445.34739     102002.7      46.7237      46.7237      46.7237 
  252000     110.0621   -7230.5816    -6661.701   -594.23285     102002.7      46.7237      46.7237      46.7237 
  253000    108.43508   -7237.9882   -6677.5171   -584.02394     102002.7      46.7237      46.7237      46.7237 
  254000    105.43182    -7232.804   -6687.8559   -545.62654     102002.7      46.7237      46.7237      46.7237 
  255000    110.63839   -7229.9133   -6658.0539   -528.28322     102002.7      46.7237      46.7237      46.7237 
  256000    111.08542   -7248.5157   -6674.3457   -643.75881     102002.7      46.7237      46.7237      46.7237 
  257000    110.62923   -7246.3062   -6674.4941   -771.72328     102002.7      46.7237      46.7237      46.7237 
  258000    114.35668   -7253.4833   -6662.4051    -305.6154     102002.7      46.7237      46.7237      46.7237 
  259000    109.59249   -7236.3955   -6669.9421   -917.99009     102002.7      46.7237      46.7237      46.7237 
  260000    108.03681   -7238.2958   -6679.8833   -500.92438     102002.7      46.7237      46.7237      46.7237 
  261000    111.54947   -7244.1344   -6667.5659   -454.66512     102002.7      46.7237      46.7237      46.7237 
  262000    106.63953    -7247.485   -6696.2946   -536.71736     102002.7      46.7237      46.7237      46.7237 
  263000    111.16777   -7249.3634   -6674.7678   -514.57735     102002.7      46.7237      46.7237      46.7237 
  264000    108.73149   -7236.1712    -6674.168   -785.28094     102002.7      46.7237      46.7237      46.7237 
  265000    111.55635   -7233.0497   -6656.4456   -482.86363     102002.7      46.7237      46.7237      46.7237 
  266000    105.91638   -7250.4727   -6703.0201   -560.49567     102002.7      46.7237      46.7237      46.7237 
  267000    112.14252   -7258.8035   -6679.1697   -659.47674     102002.7      46.7237      46.7237      46.7237 
  268000    107.28332   -7228.0801   -6673.5621   -609.29663     102002.7      46.7237      46.7237      46.7237 
  269000    114.35046   -7238.3299   -6647.2839   -821.76514     102002.7      46.7237      46.7237      46.7237 
  270000    110.17597     -7243.62   -6674.1508    -583.5027     102002.7      46.7237      46.7237      46.7237 
  271000    108.84478   -7249.9438   -6687.3551   -692.98147     102002.7      46.7237      46.7237      46.7237 
  272000     106.8521   -7215.2016   -6662.9126    -442.0775     102002.7      46.7237      46.7237      46.7237 
  273000    109.76152   -7230.6854   -6663.3583    -622.0455     102002.7      46.7237      46.7237      46.7237 
  274000    110.42735   -7245.9939   -6675.2254   -525.28289     102002.7      46.7237      46.7237      46.7237 
  275000    111.89752   -7232.2672   -6653.8997   -266.56487     102002.7      46.7237      46.7237      46.7237 
  276000    109.05443    -7238.192   -6674.5197   -603.68268     102002.7      46.7237      46.7237      46.7237 
  277000    111.31659   -7241.4285   -6666.0637    -750.9287     102002.7      46.7237      46.7237      46.7237 
  278000    110.52251    -7244.237   -6672.9766   -764.67471     102002.7      46.7237      46.7237      46.7237 
  279000    111.60607   -7243.4904   -6666.6293   -628.24165     102002.7      46.7237      46.7237      46.7237 
  280000    110.87783   -7214.9675   -6641.8705   -632.88068     102002.7      46.7237      46.7237      46.7237 
  281000     107.1433   -7230.9166   -6677.1224   -562.46475     102002.7      46.7237      46.7237      46.7237 
  282000    108.31361   -7232.5573   -6672.7141    -749.1846     102002.7      46.7237      46.7237      46.7237 
  283000     109.9311   -7249.7496   -6681.5461   -538.93486     102002.7      46.7237      46.7237      46.7237 
  284000    110.44689   -7236.1338   -6665.2642   -763.78645     102002.7      46.7237      46.7237      46.7237 
  285000    108.74008   -7242.1655    -6680.118   -765.43226     102002.7      46.7237      46.7237      46.7237 
  286000    107.62629   -7256.2238   -6699.9332   -748.09629     102002.7      46.7237      46.7237      46.7237 
  287000    109.51072   -7240.1243   -6674.0935   -635.51654     102002.7      46.7237      46.7237      46.7237 
  288000    110.02784   -7225.2074   -6656.5038   -635.27534     102002.7      46.7237      46.7237      46.7237 
  289000    108.91782   -7258.1856   -6695.2193   -167.48049     102002.7      46.7237      46.7237      46.7237 
  290000    109.66904   -7238.3163   -6671.4672    -886.7186     102002.7      46.7237      46.7237      46.7237 
  291000    111.66355   -7244.6595   -6667.5013   -641.27812     102002.7      46.7237      46.7237      46.7237 
  292000    105.04529   -7252.8965   -6709.9463   -656.98176     102002.7      46.7237      46.7237      46.7237 
  293000    112.49437   -7247.9836   -6666.5311   -791.57369     102002.7      46.7237      46.7237      46.7237 
  294000    110.61056   -7241.7191   -6670.0036   -663.44568     102002.7      46.7237      46.7237      46.7237 
  295000     108.5057   -7248.4794   -6687.6433   -587.32682     102002.7      46.7237      46.7237      46.7237 
  296000    110.11236   -7230.3619   -6661.2214   -852.49826     102002.7      46.7237      46.7237      46.7237 
  297000    110.63337   -7239.1875   -6667.3541   -617.35757     102002.7      46.7237      46.7237      46.7237 
  298000    107.13974   -7236.7943   -6683.0184   -516.24891     102002.7      46.7237      46.7237      46.7237 
  299000     110.5132   -7221.6449   -6650.4326   -838.01338     102002.7      46.7237      46.7237      46.7237 
  300000    107.74335   -7230.7878   -6673.8921   -920.80298     102002.7      46.7237      46.7237      46.7237 
  301000    109.11434   -7234.3513   -6670.3694   -637.77489     102002.7      46.7237      46.7237      46.7237 
  302000    107.96335   -7233.2283   -6675.1954   -655.95559     102002.7      46.7237      46.7237      46.7237 
  303000    112.03871   -7243.5348   -6664.4376   -577.69757     102002.7      46.7237      46.7237      46.7237 
  304000    110.33671   -7243.4876   -6673.1875   -828.50726     102002.7      46.7237      46.7237      46.7237 
  305000    110.72282   -7226.1827    -6653.887   -447.04014     102002.7      46.7237      46.7237      46.7237 
  306000    110.25667   -7259.2639   -6689.3776   -785.28974     102002.7      46.7237      46.7237      46.7237 
  307000    107.09246   -7230.3769   -6676.8455    -732.9345     102002.7      46.7237      46.7237      46.7237 
  308000    110.16182   -7242.9711    -6673.575   -514.67434     102002.7      46.7237      46.7237      46.7237 
  309000    108.31111   -7250.5246   -6690.6944   -458.08964     102002.7      46.7237      46.7237      46.7237 
  310000    111.63909   -7243.9156   -6666.8839   -683.25792     102002.7      46.7237      46.7237      46.7237 
  311000    108.58203   -7235.9474   -6674.7168   -587.51647     102002.7      46.7237      46.7237      46.7237 
  312000    113.03092   -7242.7329   -6658.5072   -1013.5004     102002.7      46.7237      46.7237      46.7237 
  313000    109.35813   -7245.3196   -6680.0776   -661.48441     102002.7      46.7237      46.7237      46.7237 
  314000    111.51642   -7239.8525   -6663.4548   -816.57039     102002.7      46.7237      46.7237      46.7237 
  315000    106.89996   -7234.9047   -6682.3683   -702.05361     102002.7      46.7237      46.7237      46.7237 
  316000    108.20427   -7236.9849   -6677.7068   -560.09948     102002.7      46.7237      46.7237      46.7237 
  317000    107.85571   -7252.9128   -6695.4364   -863.00599     102002.7      46.7237      46.7237      46.7237 
  318000    112.04968   -7234.4787   -6655.3248   -829.72099     102002.7      46.7237      46.7237      46.7237 
  319000    108.01328     -7242.39   -6684.0991   -791.02069     102002.7      46.7237      46.7237      46.7237 
  320000    109.84837   -7242.8077   -6675.0318   -761.13229     102002.7      46.7237      46.7237      46.7237 
  321000    109.20725   -7224.2052    -6659.743   -942.31726     102002.7      46.7237      46.7237      46.7237 
  322000     106.5778   -7246.8329   -6695.9616   -741.63352     102002.7      46.7237      46.7237      46.7237 
  323000    110.71263   -7249.2153   -6676.9723   -564.61536     102002.7      46.7237      46.7237      46.7237 
  324000    107.96848   -7248.3079   -6690.2485   -810.81456     102002.7      46.7237      46.7237      46.7237 
  325000    112.33777   -7262.1074   -6681.4644   -845.36671     102002.7      46.7237      46.7237      46.7237 
  326000    113.29357   -7220.2528   -6634.6695   -778.21185     102002.7      46.7237      46.7237      46.7237 
  327000    107.75183   -7241.7634   -6684.8239   -784.05288     102002.7      46.7237      46.7237      46.7237 
  328000    112.16402   -7236.4699   -6656.7249   -714.04711     102002.7      46.7237      46.7237      46.7237 
  329000    108.33948   -7253.1961   -6693.2191   -442.58732     102002.7      46.7237      46.7237      46.7237 
  330000     108.8433   -7224.0138   -6661.4328   -879.00591     102002.7      46.7237      46.7237      46.7237 
  331000    110.21697   -7232.6769   -6662.9958   -662.26946     102002.7      46.7237      46.7237      46.7237 
  332000    109.17658    -7251.327   -6687.0234   -801.99137     102002.7      46.7237      46.7237      46.7237 
  333000    112.60889   -7229.1209   -6647.0765   -1001.4525     102002.7      46.7237      46.7237      46.7237 
  334000    112.07086   -7257.9242   -6678.6608    -958.8545     102002.7      46.7237      46.7237      46.7237 
  335000    110.92899   -7244.9514     -6671.59   -951.65992     102002.7      46.7237      46.7237      46.7237 
  336000    113.48296   -7250.2599   -6663.6977   -714.92951     102002.7      46.7237      46.7237      46.7237 
  337000    109.90948   -7261.0428    -6692.951   -926.71428     102002.7      46.7237      46.7237      46.7237 
  338000    109.62839   -7246.4265   -6679.7875   -813.56095     102002.7      46.7237      46.7237      46.7237 
  339000    111.86205   -7233.0614   -6654.8773   -507.92839     102002.7      46.7237      46.7237      46.7237 
  340000    106.95638   -7240.3882   -6687.5602   -690.16043     102002.7      46.7237      46.7237      46.7237 
  341000    114.36088    -7231.882   -6640.7821    -704.4578     102002.7      46.7237      46.7237      46.7237 
  342000    107.89377   -7229.3288   -6671.6556   -708.08305     102002.7      46.7237      46.7237      46.7237 
  343000    109.14645   -7242.5154   -6678.3675   -516.09873     102002.7      46.7237      46.7237      46.7237 
  344000    109.43754   -7228.7096   -6663.0571   -677.75609     102002.7      46.7237      46.7237      46.7237 
  345000    109.76463   -7242.3254   -6674.9823   -627.20603     102002.7      46.7237      46.7237      46.7237 
  346000    111.35038   -7239.9508   -6664.4113   -578.63853     102002.7      46.7237      46.7237      46.7237 
  347000    111.17689   -7240.4519   -6665.8092   -598.41703     102002.7      46.7237      46.7237      46.7237 
  348000    111.51433   -7239.7127   -6663.3258   -841.42242     102002.7      46.7237      46.7237      46.7237 
  349000    105.95594   -7250.0965   -6702.4394   -682.82673     102002.7      46.7237      46.7237      46.7237 
  350000    108.95686   -7243.8493   -6680.6813   -120.20114     102002.7      46.7237      46.7237      46.7237 
  351000    110.83938   -7231.7661   -6658.8679   -769.74506     102002.7      46.7237      46.7237      46.7237 
  352000    111.19187   -7246.3803   -6671.6601   -445.22346     102002.7      46.7237      46.7237      46.7237 
  353000    110.58539   -7231.1274    -6659.542    -301.0907     102002.7      46.7237      46.7237      46.7237 
  354000    106.15775   -7253.0236   -6704.3234   -515.25818     102002.7      46.7237      46.7237      46.7237 
  355000    108.80349   -7229.7322   -6667.3569   -798.68606     102002.7      46.7237      46.7237      46.7237 
  356000    109.04091   -7248.1221   -6684.5197    -751.4402     102002.7      46.7237      46.7237      46.7237 
  357000    113.93992   -7238.2397   -6649.3156   -666.50292     102002.7      46.7237      46.7237      46.7237 
  358000    111.23463   -7230.6892    -6655.748   -666.12975     102002.7      46.7237      46.7237      46.7237 
  359000    107.03602   -7240.8572   -6687.6175   -832.60081     102002.7      46.7237      46.7237      46.7237 
  360000    115.38557   -7239.5607   -6643.1644   -775.20986     102002.7      46.7237      46.7237      46.7237 
  361000     109.9892   -7237.3542   -6668.8503   -681.14164     102002.7      46.7237      46.7237      46.7237 
  362000    112.52493   -7242.4745   -6660.8641   -681.66404     102002.7      46.7237      46.7237      46.7237 
  363000    112.59215   -7240.3862   -6658.4284    -684.5841     102002.7      46.7237      46.7237      46.7237 
  364000    108.39221      -7238.6   -6678.3506   -612.53132     102002.7      46.7237      46.7237      46.7237 
  365000    108.11752   -7242.1025   -6683.2729   -530.43441     102002.7      46.7237      46.7237      46.7237 
  366000    109.51481   -7227.7721   -6661.7202    -573.5597     102002.7      46.7237      46.7237      46.7237 
  367000    110.25486   -7235.4573   -6665.5802   -638.59801     102002.7      46.7237      46.7237      46.7237 
  368000    111.25514    -7242.122   -6667.0748   -575.28036     102002.7      46.7237      46.7237      46.7237 
  369000    111.48042   -7229.8661   -6653.6545   -631.08559     102002.7      46.7237      46.7237      46.7237 
  370000    107.22017   -7241.2623   -6687.0707   -653.69714     102002.7      46.7237      46.7237      46.7237 
  371000    108.06936   -7256.7131   -6698.1324    -472.7261     102002.7      46.7237      46.7237      46.7237 
  372000    110.53106   -7242.3126    -6671.008   -392.59953     102002.7      46.7237      46.7237      46.7237 
  373000    109.97528   -7255.4508   -6687.0188    -717.8706     102002.7      46.7237      46.7237      46.7237 
  374000    111.41445   -7245.5187   -6669.6481   -841.94719     102002.7      46.7237      46.7237      46.7237 
  375000    114.52734   -7251.2162   -6659.2559   -758.05378     102002.7      46.7237      46.7237      46.7237 
  376000    111.25224   -7264.8808   -6689.8486   -748.44275     102002.7      46.7237      46.7237      46.7237 
  377000     110.4705   -7213.6091   -6642.6175   -683.36604     102002.7      46.7237      46.7237      46.7237 
  378000    108.08349   -7245.1805   -6686.5266   -597.71753     102002.7      46.7237      46.7237      46.7237 
  379000    111.72027   -7221.2936   -6643.8423   -561.58098     102002.7      46.7237      46.7237      46.7237 
  380000    109.49153    -7246.554   -6680.6224   -816.43561     102002.7      46.7237      46.7237      46.7237 
  381000    108.69738   -7221.6748   -6659.8479   -1039.3215     102002.7      46.7237      46.7237      46.7237 
  382000    109.63492   -7216.4628   -6649.7901   -916.83676     102002.7      46.7237      46.7237      46.7237 
  383000    108.37304   -7245.1843   -6685.0339   -1041.8908     102002.7      46.7237      46.7237      46.7237 
  384000    111.18871   -7222.4333   -6647.7295   -845.09639     102002.7      46.7237      46.7237      46.7237 
  385000    108.89641   -7240.6322   -6677.7767   -716.89154     102002.7      46.7237      46.7237      46.7237 
  386000    111.40995   -7229.0725   -6653.2251   -691.57741     102002.7      46.7237      46.7237      46.7237 
  387000    107.87293   -7256.7898   -6699.2244   -437.44422     102002.7      46.7237      46.7237      46.7237 
  388000    109.57201   -7235.1374   -6668.7899    -599.2253     102002.7      46.7237      46.7237      46.7237 
  389000    110.41524   -7223.8174   -6653.1114   -766.46102     102002.7      46.7237      46.7237      46.7237 
  390000     113.7488   -7231.8016   -6643.8654   -710.73284     102002.7      46.7237      46.7237      46.7237 
  391000    108.92849   -7254.2161   -6691.1947   -513.86199     102002.7      46.7237      46.7237      46.7237 
  392000    111.56908   -7241.9972   -6665.3273   -911.25378     102002.7      46.7237      46.7237      46.7237 
  393000    106.88084   -7245.1661   -6692.7284   -940.16613     102002.7      46.7237      46.7237      46.7237 
  394000    110.38885   -7236.7793   -6666.2097   -615.90682     102002.7      46.7237      46.7237      46.7237 
  395000    106.67962   -7249.5596    -6698.162   -812.85202     102002.7      46.7237      46.7237      46.7237 
  396000    109.51745   -7236.4723   -6670.4068   -392.54942     102002.7      46.7237      46.7237      46.7237 
  397000    108.76558   -7253.0643   -6690.8849   -491.98156     102002.7      46.7237      46.7237      46.7237 
  398000    111.06705   -7236.0696   -6661.9946   -856.42496     102002.7      46.7237      46.7237      46.7237 
  399000    112.15778   -7234.4277    -6654.715   -351.66031     102002.7      46.7237      46.7237      46.7237 
  400000    111.31924   -7250.4145    -6675.036   -1004.0593     102002.7      46.7237      46.7237      46.7237 
  401000    110.29474   -7238.2902    -6668.207   -455.69905     102002.7      46.7237      46.7237      46.7237 
  402000    112.53551   -7244.4881   -6662.8231    -456.1621     102002.7      46.7237      46.7237      46.7237 
  403000    108.94101   -7232.4941    -6669.408    -536.2419     102002.7      46.7237      46.7237      46.7237 
  404000    107.50428    -7252.729    -6697.069   -128.49558     102002.7      46.7237      46.7237      46.7237 
  405000    110.66532   -7260.6008   -6688.6022   -654.59134     102002.7      46.7237      46.7237      46.7237 
  406000    113.12707   -7237.3494   -6652.6267   -414.53981     102002.7      46.7237      46.7237      46.7237 
  407000     111.4935   -7244.4383   -6668.1591   -732.58929     102002.7      46.7237      46.7237      46.7237 
  408000    108.19652   -7244.5625   -6685.3245   -842.62749     102002.7      46.7237      46.7237      46.7237 
  409000    108.69471   -7231.1472   -6669.3342   -525.03305     102002.7      46.7237      46.7237      46.7237 
  410000    107.79839   -7260.7776   -6703.5974   -764.28139     102002.7      46.7237      46.7237      46.7237 
  411000    109.09159   -7235.4601   -6671.5957   -676.37939     102002.7      46.7237      46.7237      46.7237 
  412000    107.00098   -7263.9689   -6710.9103   -534.52445     102002.7      46.7237      46.7237      46.7237 
  413000    110.44641     -7254.39    -6683.523   -822.28767     102002.7      46.7237      46.7237      46.7237 
  414000      110.495   -7240.0932   -6668.9749   -885.69064     102002.7      46.7237      46.7237      46.7237 
  415000    113.45778   -7234.0004   -6647.5684   -340.44351     102002.7      46.7237      46.7237      46.7237 
  416000     108.1213   -7240.4434   -6681.5941   -677.49952     102002.7      46.7237      46.7237      46.7237 
  417000    110.34819   -7236.4215   -6666.0621   -721.51757     102002.7      46.7237      46.7237      46.7237 
  418000    109.76364   -7222.2282   -6654.8901   -684.21785     102002.7      46.7237      46.7237      46.7237 
  419000    107.48873   -7245.3342   -6689.7545   -699.93775     102002.7      46.7237      46.7237      46.7237 
  420000    112.77483   -7250.4302   -6667.5282   -594.51326     102002.7      46.7237      46.7237      46.7237 
  421000    107.19968   -7251.7015   -6697.6159   -798.52796     102002.7      46.7237      46.7237      46.7237 
  422000    112.65807    -7239.628   -6657.3294   -818.22618     102002.7      46.7237      46.7237      46.7237 
  423000    112.02973   -7231.1412   -6652.0904    -672.7518     102002.7      46.7237      46.7237      46.7237 
  424000    108.80684   -7241.2029   -6678.8103   -956.53325     102002.7      46.7237      46.7237      46.7237 
  425000    110.33656   -7253.8835   -6683.5842   -735.38874     102002.7      46.7237      46.7237      46.7237 
  426000     109.5723   -7230.8122   -6664.4631   -841.33367     102002.7      46.7237      46.7237      46.7237 
  427000    110.17782   -7220.9784   -6651.4996   -715.86791     102002.7      46.7237      46.7237      46.7237 
  428000    110.83978   -7247.8103   -6674.9101   -764.00436     102002.7      46.7237      46.7237      46.7237 
  429000    109.14274   -7256.0531   -6691.9243    -746.2103     102002.7      46.7237      46.7237      46.7237 
  430000    109.47382   -7239.2227   -6673.3827   -542.06284     102002.7      46.7237      46.7237      46.7237 
  431000    107.03947   -7236.7258   -6683.4683   -493.84101     102002.7      46.7237      46.7237      46.7237 
  432000    111.54105   -7234.5245   -6657.9995   -742.18337     102002.7      46.7237      46.7237      46.7237 
  433000    106.14114    -7238.573   -6689.9586   -753.04806     102002.7      46.7237      46.7237      46.7237 
  434000    107.89419    -7237.715   -6680.0397   -586.93355     102002.7      46.7237      46.7237      46.7237 
  435000    107.50126    -7243.559   -6687.9146   -762.78785     102002.7      46.7237      46.7237      46.7237 
  436000    108.85052   -7249.5714    -6686.953   -764.85038     102002.7      46.7237      46.7237      46.7237 
  437000     113.3628   -7243.1413   -6657.2002   -421.77963     102002.7      46.7237      46.7237      46.7237 
  438000    109.53988   -7218.1241   -6651.9426   -707.89807     102002.7      46.7237      46.7237      46.7237 
  439000    110.33785   -7252.1563   -6681.8503   -706.58911     102002.7      46.7237      46.7237      46.7237 
  440000    113.54704   -7236.6618   -6649.7685   -667.70921     102002.7      46.7237      46.7237      46.7237 
  441000    111.20893   -7230.4713    -6655.663    -462.0866     102002.7      46.7237      46.7237      46.7237 
  442000    110.10188   -7255.9264   -6686.8401   -758.05609     102002.7      46.7237      46.7237      46.7237 
  443000    112.83206   -7232.1624   -6648.9646   -964.39844     102002.7      46.7237      46.7237      46.7237 
  444000    107.31986   -7236.4069      -6681.7   -763.87081     102002.7      46.7237      46.7237      46.7237 
  445000    111.75308   -7235.2436   -6657.6227   -677.03416     102002.7      46.7237      46.7237      46.7237 
  446000    113.71593   -7225.7423    -6637.976   -770.32006     102002.7      46.7237      46.7237      46.7237 
  447000    109.64171   -7252.4475   -6685.7397   -689.45809     102002.7      46.7237      46.7237      46.7237 
  448000      110.546    -7250.043   -6678.6611   -385.78157     102002.7      46.7237      46.7237      46.7237 
  449000    111.69538   -7247.5453   -6670.2227   -771.33315     102002.7      46.7237      46.7237      46.7237 
  450000    108.97913   -7254.5669   -6691.2838    -471.0657     102002.7      46.7237      46.7237      46.7237 
  451000     109.8352   -7257.7466   -6690.0387   -544.72581     102002.7      46.7237      46.7237      46.7237 
  452000    114.54388   -7234.7435   -6642.6978   -393.93587     102002.7      46.7237      46.7237      46.7237 
  453000    107.98581   -7240.4406   -6682.2917    -581.5012     102002.7      46.7237      46.7237      46.7237 
  454000    109.15023   -7235.8669   -6671.6994   -818.56226     102002.7      46.7237      46.7237      46.7237 
  455000    109.16778   -7243.8252    -6679.567   -681.00301     102002.7      46.7237      46.7237      46.7237 
  456000    108.46879   -7252.3626   -6691.7172   -630.11339     102002.7      46.7237      46.7237      46.7237 
  457000    113.57829   -7222.3917   -6635.3368   -861.11807     102002.7      46.7237      46.7237      46.7237 
  458000    109.21127   -7248.8985   -6684.4155   -761.46742     102002.7      46.7237      46.7237      46.7237 
  459000    110.91572   -7232.7338    -6659.441   -658.89652     102002.7      46.7237      46.7237      46.7237 
  460000     108.1112   -7256.4954   -6697.6984   -679.55924     102002.7      46.7237      46.7237      46.7237 
  461000    109.79726   -7226.0139   -6658.5021   -619.88041     102002.7      46.7237      46.7237      46.7237 
  462000    112.35854   -7229.2155   -6648.4652   -754.60251     102002.7      46.7237      46.7237      46.7237 
  463000     110.0116   -7221.1324   -6652.5127   -546.48156     102002.7      46.7237      46.7237      46.7237 
  464000    107.11188   -7242.9427   -6689.3109   -891.31411     102002.7      46.7237      46.7237      46.7237 
  465000    109.57157   -7234.4335   -6668.0882   -632.22667     102002.7      46.7237      46.7237      46.7237 
  466000    110.44994   -7226.7376   -6655.8523   -1074.6186     102002.7      46.7237      46.7237      46.7237 
  467000    108.74482   -7245.2394   -6683.1674   -613.73075     102002.7      46.7237      46.7237      46.7237 
  468000    108.48938   -7240.7056   -6679.9539   -556.36447     102002.7      46.7237      46.7237      46.7237 
  469000    108.09793   -7237.2171   -6678.4887   -811.43287     102002.7      46.7237      46.7237      46.7237 
  470000    113.80262   -7234.1032   -6645.8888   -639.72355     102002.7      46.7237      46.7237      46.7237 
  471000    109.87624   -7252.0167   -6684.0966   -645.43938     102002.7      46.7237      46.7237      46.7237 
  472000    110.82828   -7224.5824   -6651.7416   -644.78464     102002.7      46.7237      46.7237      46.7237 
  473000     110.1232   -7247.9033   -6678.7068   -829.08141     102002.7      46.7237      46.7237      46.7237 
  474000    109.07354   -7232.9232    -6669.152   -684.21634     102002.7      46.7237      46.7237      46.7237 
  475000    111.68457   -7256.0043   -6678.7375   -810.85341     102002.7      46.7237      46.7237      46.7237 
  476000    112.20677   -7233.7571   -6653.7912   -673.07465     102002.7      46.7237      46.7237      46.7237 
  477000    107.09805   -7236.8097   -6683.2494   -624.39946     102002.7      46.7237      46.7237      46.7237 
  478000    113.29933   -7237.9147   -6652.3017   -564.26666     102002.7      46.7237      46.7237      46.7237 
  479000    107.78034   -7235.0584   -6677.9715   -708.40526     102002.7      46.7237      46.7237      46.7237 
  480000    106.95675   -7235.6391   -6682.8091   -694.45135     102002.7      46.7237      46.7237      46.7237 
  481000    111.90488    -7241.246   -6662.8405   -747.71344     102002.7      46.7237      46.7237      46.7237 
  482000    111.27215   -7222.7256   -6647.5905   -735.21126     102002.7      46.7237      46.7237      46.7237 
  483000     109.2681   -7228.2422   -6663.4655   -671.95625     102002.7      46.7237      46.7237      46.7237 
  484000    106.94133   -7248.7461   -6695.9958   -763.22142     102002.7      46.7237      46.7237      46.7237 
  485000    110.11159   -7227.5614   -6658.4249   -795.93054     102002.7      46.7237      46.7237      46.7237 
  486000    112.29815   -7251.1533   -6670.7151   -794.19348     102002.7      46.7237      46.7237      46.7237 
  487000    108.83347   -7234.8857   -6672.3555   -847.66419     102002.7      46.7237      46.7237      46.7237 
  488000     110.0088   -7233.6594   -6665.0542   -593.85073     102002.7      46.7237      46.7237      46.7237 
  489000    110.92021    -7247.047    -6673.731   -896.07907     102002.7      46.7237      46.7237      46.7237 
  490000     110.4308   -7259.8144    -6689.028   -553.95625     102002.7      46.7237      46.7237      46.7237 
  491000    111.78913    -7240.547   -6662.7398   -918.29354     102002.7      46.7237      46.7237      46.7237 
  492000    111.96899    -7269.556   -6690.8192   -594.36508     102002.7      46.7237      46.7237      46.7237 
  493000    108.51994    -7230.402   -6669.4924   -616.04732     102002.7      46.7237      46.7237      46.7237 
  494000    109.85985   -7248.4263    -6680.591   -910.93567     102002.7      46.7237      46.7237      46.7237 
  495000    109.49468   -7244.7002   -6678.7523   -620.70461     102002.7      46.7237      46.7237      46.7237 
  496000     107.4726   -7243.0101   -6687.5138   -793.63066     102002.7      46.7237      46.7237      46.7237 
  497000    110.77077   -7247.7374   -6675.1938   -642.98075     102002.7      46.7237      46.7237      46.7237 
  498000    112.12818   -7225.8017    -6646.242   -576.46706     102002.7      46.7237      46.7237      46.7237 
  499000    110.26186   -7246.0805   -6676.1673   -641.58012     102002.7      46.7237      46.7237      46.7237 
  500000    111.17538   -7242.9203   -6668.2853   -401.29457     102002.7      46.7237      46.7237      46.7237 
  500508    112.39221   -7265.4416   -6684.5172   -795.39454     102002.7      46.7237      46.7237      46.7237 
Loop time of 573.559 on 24 procs for 500000 steps with 1735 atoms

Performance: 75.319 ns/day, 0.319 hours/ns, 871.749 timesteps/s
99.9% CPU use with 24 MPI tasks x no OpenMP threads

MPI task timing breakdown:
Section |  min time  |  avg time  |  max time  |%varavg| %total
---------------------------------------------------------------
Pair    | 184.7      | 273.18     | 367.97     | 346.0 | 47.63
Bond    | 67.242     | 78.059     | 89.767     |  55.7 | 13.61
Neigh   | 1.6448     | 1.6612     | 1.672      |   0.8 |  0.29
Comm    | 113.52     | 213.49     | 299.86     | 412.8 | 37.22
Output  | 0.31222    | 0.31253    | 0.31625    |   0.1 |  0.05
Modify  | 3.3877     | 3.8493     | 4.1735     |  11.8 |  0.67
Other   |            | 3.009      |            |       |  0.52

Nlocal:    72.2917 ave 107 max 49 min
Histogram: 3 2 3 7 1 3 3 0 0 2
Nghost:    1982.33 ave 2153 max 1870 min
Histogram: 6 8 2 0 0 0 0 0 0 8
Neighs:    7638 ave 12673 max 3832 min
Histogram: 2 5 4 3 0 3 1 1 4 1

Total # of neighbors = 183312
Ave neighs/atom = 105.655
Ave special neighs/atom = 6.63977
Neighbor list builds = 3152
Dangerous builds = 0
Neighbor list info ...
  update every 1 steps, delay 10 steps, check yes
  max neighbors/atom: 2000, page size: 100000
  master list distance cutoff = 16
  ghost atom cutoff = 16
  binsize = 8, bins = 6 6 6
  3 neighbor lists, perpetual/occasional/extra = 3 0 0
  (1) pair buck6d/coul/gauss/dsf, perpetual, skip from (3)
      attributes: half, newton on
      pair build: skip
      stencil: none
      bin: none
  (2) pair lj/cut, perpetual, skip from (3)
      attributes: half, newton on
      pair build: skip
      stencil: none
      bin: none
  (3) neighbor class addition, perpetual
      attributes: half, newton on
      pair build: half/bin/newton
      stencil: half/bin/3d/newton
      bin: standard
Setting up Verlet run ...
  Unit style    : real
  Current step  : 500508
  Time step     : 1
WARNING: Inconsistent image flags (../domain.cpp:786)
Per MPI rank memory allocation (min/avg/max) = 24.13 | 24.48 | 24.57 Mbytes
Step Time TotEng KinEng PotEng E_mol E_pair Temp Pxx Pyy Pzz Pxy Pxz Pyz Cella Cellb Cellc CellAlpha CellBeta CellGamma Volume Press 
  500508       500000   -6684.5172    580.92438   -7265.4416    4278.4302   -11543.872    112.39221   -976.82115   -334.75681   -1074.6057    104.92375    -61.37812    75.276591      46.7237      46.7237      46.7237           90           90           90     102002.7   -795.39454 
  501000       500492   -6682.7024    570.43658   -7253.1389    4294.1455   -11547.284    110.36312   -554.02919   -785.60999   -631.54425    88.689145    195.61605   -7.7479908      46.7237      46.7237      46.7237           90           90           90     102002.7   -657.06114 
  502000       501492   -6699.9045    555.39103   -7255.2955    4297.4645    -11552.76    107.45224   -918.22235   -577.13295   -758.35249    292.46267   -110.02262    40.200482      46.7237      46.7237      46.7237           90           90           90     102002.7   -751.23593 
  503000       502492   -6666.0388    592.36493   -7258.4037    4282.9933   -11541.397    114.60563   -924.39337   -995.73186    -793.8495   -67.562059   -83.254774    36.001539      46.7237      46.7237      46.7237           90           90           90     102002.7   -904.65824 
  504000       503492   -6693.9135     564.3219   -7258.2354    4293.1411   -11551.376    109.18011   -1029.3726   -616.84224   -750.45686    120.40341    68.716865    54.438672      46.7237      46.7237      46.7237           90           90           90     102002.7   -798.89056 
  505000       504492   -6658.5858    568.31506   -7226.9009    4333.5944   -11560.495    109.95267    -1108.456    -469.2385   -934.98596   -178.49861    177.24376     197.2101      46.7237      46.7237      46.7237           90           90           90     102002.7   -837.56015 
  506000       505492   -6705.7064    540.08267   -7245.7891    4301.1962   -11546.985    104.49051   -332.97911    -599.7298   -835.97122    38.924158   -216.81057   -179.36901      46.7237      46.7237      46.7237           90           90           90     102002.7   -589.56004 
  507000       506492   -6665.3371    577.86524   -7243.2023    4294.3373    -11537.54    111.80035   -904.67828   -540.85393   -540.04036   -39.393679    153.04806   -111.86826      46.7237      46.7237      46.7237           90           90           90     102002.7   -661.85752 
  508000       507492   -6654.4962    560.78455   -7215.2807    4339.7082   -11554.989    108.49573   -903.06912   -1120.9296   -843.05243    109.43786    29.840134    38.169567      46.7237      46.7237      46.7237           90           90           90     102002.7   -955.68372 
  509000       508492   -6691.0769    563.46097   -7254.5379    4301.1212   -11555.659    109.01354   -449.33675   -634.99915   -401.31032   -10.440564   -60.239307    117.26447      46.7237      46.7237      46.7237           90           90           90     102002.7   -495.21541 
  510000       509492   -6657.1517    592.44764   -7249.5993    4282.1965   -11531.796    114.62163   -783.83808   -1137.6034   -449.08998    21.889203    22.042859   -179.84904      46.7237      46.7237      46.7237           90           90           90     102002.7   -790.17715 
  511000       510492   -6654.2868    566.99961   -7221.2864    4333.1957   -11554.482    109.69817   -873.67331   -1035.5446   -405.24364    165.44859    136.74398   -234.47278      46.7237      46.7237      46.7237           90           90           90     102002.7   -771.48719 
  512000       511492   -6662.6367     582.3048   -7244.9415    4302.9609   -11547.902    112.65928   -638.96716   -698.05463   -863.03788   -21.548727    272.29377    -220.7996      46.7237      46.7237      46.7237           90           90           90     102002.7   -733.35322 
  513000       512492   -6676.0063     571.7401   -7247.7464    4301.8155   -11549.562    110.61531   -644.90142   -166.65806   -811.14151   -189.29687   -239.28677    200.73384      46.7237      46.7237      46.7237           90           90           90     102002.7   -540.90033 
  514000       513492   -6684.8145     544.4999   -7229.3144    4312.9068   -11542.221    105.34512   -620.19436   -552.55634   -477.62882    -41.80799    65.164105    23.952565      46.7237      46.7237      46.7237           90           90           90     102002.7   -550.12651 
  515000       514492   -6646.7221     582.5347   -7229.2568     4324.132   -11553.389    112.70376   -700.37774   -1046.5207   -628.17988   -9.6218253    327.71708   -131.12282      46.7237      46.7237      46.7237           90           90           90     102002.7   -791.69278 
  516000       515492    -6685.954    563.35855   -7249.3126    4292.1439   -11541.456    108.99372   -775.79242   -683.38199   -311.35826    -30.64519   -35.098097     269.9296      46.7237      46.7237      46.7237           90           90           90     102002.7   -590.17756 
  517000       516492   -6677.5222    576.67929   -7254.2015    4303.3171   -11557.519    111.57091   -726.34932   -964.94812   -857.94698   -120.59589    181.40235   -30.026886      46.7237      46.7237      46.7237           90           90           90     102002.7   -849.74814 
  518000       517492   -6654.0545    569.71708   -7223.7716     4318.477   -11542.249    110.22392   -762.74564   -875.69358   -519.36407   -40.550176    6.6234685   -23.509112      46.7237      46.7237      46.7237           90           90           90     102002.7   -719.26776 
  519000       518492   -6698.0927    544.33941   -7242.4321    4318.9909   -11561.423    105.31407   -528.10144   -811.33862   -870.72315    50.740212   -22.159091   -95.659612      46.7237      46.7237      46.7237           90           90           90     102002.7   -736.72107 
  520000       519492   -6687.9712    559.88871     -7247.86    4303.2465   -11551.106    108.32241   -967.91661   -779.70479   -422.35466   0.17423467    30.303933    162.68538      46.7237      46.7237      46.7237           90           90           90     102002.7   -723.32535 
  521000       520492   -6657.4424    580.07603   -7237.5185     4320.348   -11557.866    112.22808   -544.02428    -485.4334   -632.93092   -48.844128    -76.40274    145.72969      46.7237      46.7237      46.7237           90           90           90     102002.7   -554.12954 
  522000       521492   -6656.8883     576.9903   -7233.8786    4315.7437   -11549.622    111.63108   -964.03919   -774.61761   -907.95253   -92.217229    232.90596   -201.04345      46.7237      46.7237      46.7237           90           90           90     102002.7   -882.20311 
  523000       522492   -6675.4824    573.83876   -7249.3212    4301.7323   -11551.054    111.02134   -627.20754   -695.01435   -658.78416   -193.94187   -2.7322041    -109.3388      46.7237      46.7237      46.7237           90           90           90     102002.7   -660.33535 
  524000       523492   -6664.1786    567.06963   -7231.2483    4320.5596   -11551.808    109.71171   -1013.4435   -920.10624   -718.86485     111.0377    51.790247   -41.602656      46.7237      46.7237      46.7237           90           90           90     102002.7   -884.13822 
  525000       524492   -6656.4585    579.68651    -7236.145    4321.7739   -11557.919    112.15272   -709.12744   -1342.2035   -1004.9578   -129.60388   -13.712546    285.55711      46.7237      46.7237      46.7237           90           90           90     102002.7   -1018.7629 
  526000       525492   -6689.9735     562.1861   -7252.1596    4292.1253   -11544.285    108.76689   -514.97157   -654.40516   -680.83251   -187.66528    29.816945    128.94873      46.7237      46.7237      46.7237           90           90           90     102002.7   -616.73642 
  527000       526492   -6656.6871    588.59341   -7245.2805      4302.51    -11547.79    113.87595   -440.03759   -945.67318   -86.580658    -41.65624   -194.10779   -105.49739      46.7237      46.7237      46.7237           90           90           90     102002.7   -490.76381 
  528000       527492   -6693.4788     559.3512     -7252.83    4310.4385   -11563.269    108.21842   -891.02476   -911.61972   -1058.1389    116.94726    27.185786    74.494278      46.7237      46.7237      46.7237           90           90           90     102002.7   -953.59446 
  529000       528492   -6661.2049    577.75865   -7238.9635    4320.2131   -11559.177    111.77973   -617.41784   -641.63478    -514.8054    18.247749    18.229462    42.787869      46.7237      46.7237      46.7237           90           90           90     102002.7   -591.28601 
  530000       529492   -6675.2732    553.39614   -7228.6693    4306.7993   -11535.469    107.06628   -815.64052   -484.08042   -802.76852    124.27526     7.627716   -21.589967      46.7237      46.7237      46.7237           90           90           90     102002.7   -700.82982 
  531000       530492   -6700.5729    560.26248   -7260.8354    4295.4271   -11556.262    108.39472   -779.23747   -329.05955    -683.0793    24.713442   -111.95199    54.008631      46.7237      46.7237      46.7237           90           90           90     102002.7   -597.12544 
  532000       531492   -6658.2745    576.99323   -7235.2677    4314.2847   -11549.552    111.63164   -388.05696   -293.41334   -880.45632    203.31381   -266.67793    16.434201      46.7237      46.7237      46.7237           90           90           90     102002.7   -520.64221 
  533000       532492    -6664.743    579.69256   -7244.4355    4302.0947    -11546.53    112.15389   -644.19913   -724.24238   -617.52032    21.578422     174.2411    61.571759      46.7237      46.7237      46.7237           90           90           90     102002.7   -661.98728 
  534000       533492   -6668.9747    571.94039   -7240.9151    4326.0091   -11566.924    110.65406   -472.45789   -621.07009   -674.48337    94.743408    202.82308    63.947033      46.7237      46.7237      46.7237           90           90           90     102002.7   -589.33712 
  535000       534492   -6688.9552    561.40081    -7250.356    4295.9428   -11546.299    108.61496    -638.2862   -679.63611   -414.06076    458.69213   -29.156724   -185.88934      46.7237      46.7237      46.7237           90           90           90     102002.7   -577.32769 
  536000       535492   -6655.0236    569.81214   -7224.8357    4306.9082   -11531.744    110.24231   -540.22521   -713.31182    -878.3621    -166.3877    13.835448   -69.219546      46.7237      46.7237      46.7237           90           90           90     102002.7   -710.63304 
  537000       536492   -6681.1398    561.74622    -7242.886     4312.341   -11555.227    108.68179   -603.11939   -668.42852   -541.22767   -100.96393    147.44496     57.88787      46.7237      46.7237      46.7237           90           90           90     102002.7   -604.25852 
  538000       537492   -6706.1587    559.10007   -7265.2588     4276.226   -11541.485    108.16983   -428.25067   -401.49526   -1115.8739   -205.24984   -83.166546    -163.0065      46.7237      46.7237      46.7237           90           90           90     102002.7   -648.53993 
  539000       538492   -6654.7195    593.61203   -7248.3315    4303.0668   -11551.398    114.84691   -889.56063   -936.35568   -798.66341   -27.471752   -39.795612    64.158455      46.7237      46.7237      46.7237           90           90           90     102002.7   -874.85991 
  540000       539492   -6679.6978    571.64886   -7251.3467    4306.3242   -11557.671    110.59766   -763.29071   -894.86573   -323.37961   -66.308226   -95.378673   -83.906474      46.7237      46.7237      46.7237           90           90           90     102002.7   -660.51202 
  541000       540492   -6651.0998    592.74592   -7243.8457    4305.5775   -11549.423    114.67934   -872.59348   -1052.0083   -1003.4867    244.33757   -211.90855    291.72259      46.7237      46.7237      46.7237           90           90           90     102002.7   -976.02947 
  542000       541492   -6672.2039     580.1878   -7252.3917    4310.2911   -11562.683     112.2497   -911.27907   -391.02119   -896.74635   -5.5393053   -128.58815   -60.499836      46.7237      46.7237      46.7237           90           90           90     102002.7   -733.01554 
  543000       542492   -6679.1058    564.95088   -7244.0567    4303.3639   -11547.421    109.30179    -554.9521   -945.19179    -750.5273    133.47928   -95.383146   -18.051343      46.7237      46.7237      46.7237           90           90           90     102002.7   -750.22373 
  544000       543492   -6654.9251    562.65638   -7217.5815    4342.7158   -11560.297    108.85787   -677.97255   -1291.0768   -557.12412   -247.24377    258.01094    163.67928      46.7237      46.7237      46.7237           90           90           90     102002.7   -842.05781 
  545000       544492   -6681.9443    564.55441   -7246.4987    4316.7265   -11563.225    109.22509    -877.4322   -708.73806   -670.28749    101.95235   -171.43815   -9.4835241      46.7237      46.7237      46.7237           90           90           90     102002.7   -752.15259 
  546000       545492   -6666.7975    559.73531   -7226.5328    4329.2433   -11555.776    108.29273   -696.29033   -682.49678   -816.47858   -190.31727   -132.72846   -181.90728      46.7237      46.7237      46.7237           90           90           90     102002.7   -731.75523 
  547000       546492   -6686.5321    564.25464   -7250.7867     4290.414   -11541.201    109.16709   -914.08943   -540.20138   -410.94647   -40.874049   -39.370614   -23.788128      46.7237      46.7237      46.7237           90           90           90     102002.7   -621.74576 
  548000       547492   -6696.5074    555.65621   -7252.1636    4296.4657   -11548.629    107.50354   -572.38337   -430.63383   -939.90971    66.268731   -86.664742   -85.952358      46.7237      46.7237      46.7237           90           90           90     102002.7    -647.6423 
  549000       548492   -6659.6039    578.14361   -7237.7476     4317.082    -11554.83    111.85421   -678.63795   -653.70102   -809.88718   -167.58714    45.932673     111.2423      46.7237      46.7237      46.7237           90           90           90     102002.7   -714.07539 
  550000       549492   -6690.9396    564.17079   -7255.1104    4306.1983   -11561.309    109.15087   -753.94073   -584.08742   -539.98324    6.0026178    135.29055   -124.72404      46.7237      46.7237      46.7237           90           90           90     102002.7    -626.0038 
  551000       550492   -6685.4826    554.16349    -7239.646    4299.2463   -11538.892    107.21474   -324.43322    -669.1179   -578.95119   -101.84637    225.43119    144.25244      46.7237      46.7237      46.7237           90           90           90     102002.7   -524.16743 
  552000       551492   -6679.6086    574.58746    -7254.196    4295.9244    -11550.12     111.1662   -882.97191   -1027.2872    -568.8085   -188.45199    108.37707   -175.37954      46.7237      46.7237      46.7237           90           90           90     102002.7   -826.35588 
  553000       552492   -6656.1968    574.37641   -7230.5732     4323.661   -11554.234    111.12537   -767.56463    -875.0701   -380.02758   -280.71768    -59.48729   -11.024906      46.7237      46.7237      46.7237           90           90           90     102002.7   -674.22077 
  554000       553492   -6691.4512    563.08328   -7254.5345    4313.8672   -11568.402    108.94047   -667.32548   -1235.6588   -1146.7371   -44.013259    19.983391   -107.43672      46.7237      46.7237      46.7237           90           90           90     102002.7   -1016.5738 
  555000       554492   -6664.0315    570.68007   -7234.7116    4322.7672   -11557.479    110.41023   -549.00507    -652.9472   -914.38745   -162.23922   -166.90206    -95.29344      46.7237      46.7237      46.7237           90           90           90     102002.7   -705.44657 
[...]
  936000       935492   -6686.7748     553.9527   -7240.7275    4317.4249   -11558.152    107.17396   -946.58104    -714.0296   -762.87642    19.227156    106.96376    171.11356      46.7237      46.7237      46.7237           90           90           90     102002.7   -807.82902 
  937000       936492   -6668.6781    571.34518   -7240.0232     4300.136   -11540.159    110.53891   -217.38889   -920.18003   -386.50105    76.164027   -3.5932187    85.034725      46.7237      46.7237      46.7237           90           90           90     102002.7   -508.02332 
  938000       937492   -6668.2492    570.61496   -7238.8641    4317.4086   -11556.273    110.39763   -773.94226   -1101.6666   -951.59579   -108.73631   -172.89336    53.213162      46.7237      46.7237      46.7237           90           90           90     102002.7   -942.40154 
  939000       938492   -6689.0743    566.30372    -7255.378    4310.2754   -11565.653    109.56353    -475.0968    -392.5705   -361.39289   -243.70624   -179.51759   -294.66734      46.7237      46.7237      46.7237           90           90           90     102002.7   -409.68673 
  940000       939492   -6661.0526    560.39981   -7221.4524    4320.5059   -11541.958    108.42129   -426.77128   -446.18174   -857.24494   -4.4121724   -93.857059   -37.590399      46.7237      46.7237      46.7237           90           90           90     102002.7   -576.73265 
  941000       940492   -6671.0439    575.09088   -7246.1348    4287.5842   -11533.719    111.26359   -643.89756   -811.36515   -244.64132   -236.61225    52.340286   -80.222992      46.7237      46.7237      46.7237           90           90           90     102002.7   -566.63468 
  942000       941492   -6682.0298    561.05232   -7243.0821    4298.0175     -11541.1    108.54754     -508.984   -396.45323   -275.18718    49.643332    107.16422   -54.539512      46.7237      46.7237      46.7237           90           90           90     102002.7   -393.54147 
  943000       942492   -6644.6476    586.25916   -7230.9068    4320.1917   -11551.098    113.42434   -395.21084   -427.65424   -600.22193   -181.61765   -29.133577    75.363369      46.7237      46.7237      46.7237           90           90           90     102002.7   -474.36234 
  944000       943492   -6685.6362     564.8754   -7250.5116    4298.4825   -11548.994    109.28719    -527.4691   -734.32776   -403.85434    53.318881   -148.04287   -23.992909      46.7237      46.7237      46.7237           90           90           90     102002.7   -555.21707 
  945000       944492   -6654.8582    580.89957   -7235.7577    4305.8896   -11541.647    112.38741   -497.17796   -676.43339    -367.3428   -84.825895   -7.5673374     124.4714      46.7237      46.7237      46.7237           90           90           90     102002.7   -513.65138 
  946000       945492   -6676.3723    563.72158   -7240.0939    4315.4193   -11555.513    109.06396   -962.08416   -285.26376   -1011.4946    162.80803   -361.46006   -129.55707      46.7237      46.7237      46.7237           90           90           90     102002.7   -752.94751 
  947000       946492   -6680.6515    566.92193   -7247.5734    4296.3556   -11543.929    109.68314   -803.33742   -787.08172   -427.68425    99.566423    88.060843    27.247322      46.7237      46.7237      46.7237           90           90           90     102002.7   -672.70113 
  948000       947492   -6667.3027    569.50389   -7236.8065    4318.0303   -11554.837    110.18267   -431.14876     -604.191   -201.66012    187.84839   -49.783858    114.50961      46.7237      46.7237      46.7237           90           90           90     102002.7    -412.3333 
  949000       948492   -6689.6484    562.75241   -7252.4008     4296.573   -11548.974    108.87645   -849.24982   -666.80036   -791.32263   -151.12055   -159.70916   -199.19705      46.7237      46.7237      46.7237           90           90           90     102002.7   -769.12427 
  950000       949492    -6663.131    581.09175   -7244.2228    4281.7637   -11525.986    112.42459   -978.64661   -526.46394   -834.34514     78.22395   -73.342002   -169.49549      46.7237      46.7237      46.7237           90           90           90     102002.7   -779.81856 
  951000       950492   -6657.7943    569.10273   -7226.8971     4321.704   -11548.601    110.10506   -917.20665   -1073.9656    -673.3302     133.7297    196.01192    28.270817      46.7237      46.7237      46.7237           90           90           90     102002.7   -888.16747 
  952000       951492   -6702.9559    561.90651   -7264.8624    4281.3707   -11546.233     108.7128   -1323.3705   -1091.2199   -839.85953    80.096342   -179.84422   -192.78125      46.7237      46.7237      46.7237           90           90           90     102002.7   -1084.8167 
  953000       952492   -6669.5354    568.54041   -7238.0758    4313.5837   -11551.659    109.99627   -515.09933   -926.67991   -502.57762   -94.956717    35.935817   -55.708646      46.7237      46.7237      46.7237           90           90           90     102002.7   -648.11895 
  954000       953492   -6697.9183    560.04894   -7257.9673    4286.1627    -11544.13    108.35341   -726.98076    -941.3519   -1046.6586    122.59879    46.374883    245.22837      46.7237      46.7237      46.7237           90           90           90     102002.7   -904.99709 
  955000       954492   -6661.9112     563.4272   -7225.3384    4315.8652   -11541.204    109.00701   -391.02292   -1225.0119   -612.75497    161.26655    102.27574   -22.211055      46.7237      46.7237      46.7237           90           90           90     102002.7   -742.92993 
  956000       955492   -6693.5187    547.01769   -7240.5363    4321.2776   -11561.814    105.83224   -1396.9576   -946.50347    -957.2806    77.615658    206.94897   -109.24333      46.7237      46.7237      46.7237           90           90           90     102002.7   -1100.2472 
  957000       956492    -6673.891    570.60073   -7244.4917    4296.0755   -11540.567    110.39488   -1099.8647   -1072.4039   -504.58103    -160.1243     126.0025   -105.08131      46.7237      46.7237      46.7237           90           90           90     102002.7   -892.28324 
  958000       957492   -6677.8545    585.18352    -7263.038    4291.1621     -11554.2    113.21623   -887.12413   -815.73641   -825.96672    3.5616146    39.793285   -3.2684631      46.7237      46.7237      46.7237           90           90           90     102002.7   -842.94242 
  959000       958492   -6669.6192    561.20889    -7230.828    4324.5716     -11555.4    108.57783   -821.86277   -721.08313   -650.84133   -172.97394   -151.37775    214.41138      46.7237      46.7237      46.7237           90           90           90     102002.7   -731.26241 
  960000       959492   -6676.1536     571.4112   -7247.5648    4276.9803   -11524.545    110.55168   -626.46437   -659.81297   -728.22609   -88.995711    107.22989   -276.89874      46.7237      46.7237      46.7237           90           90           90     102002.7   -671.50114 
  961000       960492   -6656.8837    577.43706   -7234.3208    4312.2618   -11546.583    111.71751   -592.65335   -1087.6829   -416.19735   -141.77352   -123.12123    131.24646      46.7237      46.7237      46.7237           90           90           90     102002.7   -698.84454 
  962000       961492   -6670.4412    571.25162   -7241.6928    4281.9094   -11523.602    110.52081   -272.87229   -614.42012   -858.38798   -106.65028    104.19062    69.803097      46.7237      46.7237      46.7237           90           90           90     102002.7   -581.89346 
  963000       962492   -6653.5055    567.75404   -7221.2595    4317.9836   -11539.243    109.84413   -492.94982     -962.763   -784.82953   -56.496562   -140.26122    180.84272      46.7237      46.7237      46.7237           90           90           90     102002.7   -746.84745 
  964000       963492   -6677.3372    575.18077    -7252.518    4289.2305   -11541.749    111.28099   -1137.7035   -642.86889   -1067.8419   -90.281436   -23.449681   -124.58927      46.7237      46.7237      46.7237           90           90           90     102002.7   -949.47144 
  965000       964492   -6667.9679    566.95811    -7234.926    4314.2108   -11549.137    109.69014   -488.25251   -888.49247   -891.76877   -141.50159    189.40171   -33.585971      46.7237      46.7237      46.7237           90           90           90     102002.7   -756.17125 
  966000       965492   -6663.3687    562.78593   -7226.1546    4337.1051    -11563.26    108.88294   -1326.6031   -587.85583   -676.85218    188.97888   -164.14969     10.77417      46.7237      46.7237      46.7237           90           90           90     102002.7   -863.77038 
  967000       966492   -6670.0286    567.09547   -7237.1241    4296.6437   -11533.768    109.71671   -624.76315   -628.97697   -160.13345   -41.515111    117.46007    134.47524      46.7237      46.7237      46.7237           90           90           90     102002.7   -471.29119 
  968000       967492   -6673.2443    570.29751   -7243.5418     4304.277   -11547.819    110.33622    -677.8255   -535.98672   -562.41034   0.86870066   -90.649228   -25.501905      46.7237      46.7237      46.7237           90           90           90     102002.7   -592.07419 
  969000       968492   -6653.0614    556.64001   -7209.7014    4338.9775   -11548.679    107.69388   -681.57494   -287.22639   -739.28021     79.96958     37.82266   -84.338828      46.7237      46.7237      46.7237           90           90           90     102002.7   -569.36051 
  970000       969492   -6677.3818    569.25567   -7246.6374    4300.1408   -11546.778    110.13465   -568.66596   -1378.8565   -283.40928    59.978644   -50.804512    191.44793      46.7237      46.7237      46.7237           90           90           90     102002.7   -743.64393 
  971000       970492   -6649.9013    565.81632   -7215.7177    4321.6432   -11537.361    109.46923   -727.43805    -358.2231    -385.5522   -176.86089   -3.7154764   -42.521957      46.7237      46.7237      46.7237           90           90           90     102002.7   -490.40445 
  972000       971492   -6677.1564    565.65513   -7242.8115     4299.802   -11542.614    109.43805   -369.81526   -881.61068   -162.16416   -178.23561    25.691073    71.467281      46.7237      46.7237      46.7237           90           90           90     102002.7    -471.1967 
  973000       972492   -6640.7803    590.62736   -7231.4077    4305.0872   -11536.495    114.26946   -903.65305   -702.69982   -365.52421    20.174145   -81.250616    13.215928      46.7237      46.7237      46.7237           90           90           90     102002.7   -657.29236 
  974000       973492   -6673.4683    563.28819   -7236.7565    4305.0557   -11541.812    108.98011    -742.0252   -188.43474   -79.282201   -154.48174    26.032508   -110.37731      46.7237      46.7237      46.7237           90           90           90     102002.7   -336.58071 
  975000       974492   -6651.2387    589.56126      -7240.8    4310.6249   -11551.425     114.0632   -940.29551   -772.40743   -765.60772   -54.335913    -11.12296   -61.775357      46.7237      46.7237      46.7237           90           90           90     102002.7   -826.10355 
  976000       975492   -6673.2531    566.91603   -7240.1692    4318.7461   -11558.915      109.682    -633.7216   -643.20035    -904.9802   -14.656938    22.704247    99.668625      46.7237      46.7237      46.7237           90           90           90     102002.7   -727.30072 
  977000       976492   -6679.1978    556.89684   -7236.0946    4339.8195   -11575.914    107.74357   -1413.9637   -603.41265   -790.37254   -60.760096    24.909678   -100.19858      46.7237      46.7237      46.7237           90           90           90     102002.7   -935.91631 
  978000       977492   -6670.2728    563.51299   -7233.7858     4303.982   -11537.768     109.0236   -745.86834   -811.11818   -827.26184   -6.9721919   -21.317354     45.15976      46.7237      46.7237      46.7237           90           90           90     102002.7   -794.74945 
  979000       978492   -6707.1107     543.1427   -7250.2534    4310.9348   -11561.188    105.08254   -750.13048   -669.43206   -840.58551    40.524427   -211.11402   -85.458845      46.7237      46.7237      46.7237           90           90           90     102002.7   -753.38268 
  980000       979492    -6683.184    564.39112   -7247.5751    4300.1325   -11547.708     109.1935   -807.56852   -898.73377   -822.52888      342.051     38.42578    77.064618      46.7237      46.7237      46.7237           90           90           90     102002.7   -842.94373 
  981000       980492   -6651.8959     588.7831    -7240.679    4304.7236   -11545.403    113.91265   -560.72241   -552.71647   -686.42194    45.153156    219.36913    251.00557      46.7237      46.7237      46.7237           90           90           90     102002.7   -599.95361 
  982000       981492   -6674.6501    563.21775   -7237.8679    4307.7115   -11545.579    108.96648   -880.51549   -905.72489   -505.16971   -68.516997     10.91128   -111.44332      46.7237      46.7237      46.7237           90           90           90     102002.7   -763.80336 
  983000       982492   -6650.9531    571.95647   -7222.9095    4330.6206    -11553.53    110.65718   -818.09496   -861.57828    -810.0336   -216.78955    -24.56213    121.55285      46.7237      46.7237      46.7237           90           90           90     102002.7   -829.90228 
  984000       983492   -6663.7949    570.30736   -7234.1022    4310.4526   -11544.555    110.33812   -602.41777   -976.11802   -779.70616   -37.988623   -118.40476    189.22096      46.7237      46.7237      46.7237           90           90           90     102002.7   -786.08065 
  985000       984492   -6674.9664    572.70908   -7247.6755    4319.9086   -11567.584    110.80278   -394.25096   -1179.1251   -1185.7643   -145.88499    98.861699    181.65427      46.7237      46.7237      46.7237           90           90           90     102002.7   -919.71347 
  986000       985492   -6621.7502    595.93409   -7217.6843    4314.2811   -11531.965    115.29616   -624.78849   -701.97607   -985.68932   -80.747262    38.263979    198.78649      46.7237      46.7237      46.7237           90           90           90     102002.7   -770.81796 
  987000       986492   -6672.9465    552.81602   -7225.7625    4328.3734   -11554.136    106.95405   -857.21697    -1002.316   -661.96258    46.130568    177.54565   -104.56677      46.7237      46.7237      46.7237           90           90           90     102002.7   -840.49852 
  988000       987492   -6659.8019    556.29002   -7216.0919    4321.3475   -11537.439    107.62617    -713.1692   -971.58778   -717.07572    177.09107    91.593655   -42.895283      46.7237      46.7237      46.7237           90           90           90     102002.7    -800.6109 
  989000       988492   -6683.8709    566.28228   -7250.1532     4319.898   -11570.051    109.55938   -940.13071   -841.22986   -1032.5132    -142.7103    194.56013   -276.36783      46.7237      46.7237      46.7237           90           90           90     102002.7   -937.95791 
  990000       989492   -6665.6564    560.73939   -7226.3958    4315.9226   -11542.318    108.48699   -850.62514   -557.36828   -748.45685    18.588714    -33.25103   -230.17727      46.7237      46.7237      46.7237           90           90           90     102002.7   -718.81676 
  991000       990492   -6687.6145    559.37575   -7246.9903    4304.7273   -11551.718    108.22317    -1202.294    -854.0722   -1155.8468   -48.645212    188.49336    29.933947      46.7237      46.7237      46.7237           90           90           90     102002.7   -1070.7376 
  992000       991492   -6681.6702    547.04247   -7228.7126    4324.5498   -11553.262    105.83703   -952.55324   -881.78485   -1284.1064    66.706973   -138.43584   -98.426891      46.7237      46.7237      46.7237           90           90           90     102002.7   -1039.4815 
  993000       992492   -6673.1557    563.04578   -7236.2015    4317.1916   -11553.393    108.93321   -764.12754   -541.10051    -855.9297   -57.835256   -272.74189    7.1635329      46.7237      46.7237      46.7237           90           90           90     102002.7   -720.38592 
  994000       993492   -6685.6613    569.94107   -7255.6024    4295.6698   -11551.272    110.26725   -402.74493   -206.06868   -475.23907   -31.250097   -19.911761    1.3577485      46.7237      46.7237      46.7237           90           90           90     102002.7   -361.35089 
  995000       994492   -6640.2312    581.64112   -7221.8724    4338.9672    -11560.84    112.53088   -447.67696   -427.91388   -836.29028      66.8458    45.746691    266.12719      46.7237      46.7237      46.7237           90           90           90     102002.7   -570.62704 
  996000       995492   -6665.7702    562.59973     -7228.37    4311.2046   -11539.575    108.84691    -625.0259    -638.7272   -29.895023    137.93669    15.598454   -125.97279      46.7237      46.7237      46.7237           90           90           90     102002.7   -431.21604 
  997000       996492   -6680.2323    567.77139   -7248.0037    4293.3265    -11541.33    109.84748   -446.13432   -271.63426   -606.05794   -379.08076   -56.652491   -74.156461      46.7237      46.7237      46.7237           90           90           90     102002.7   -441.27551 
  998000       997492   -6654.4117    584.56908   -7238.9808    4321.7661   -11560.747    113.09735   -628.16941   -471.46759   -745.72855    183.61313    6.0070444    138.87997      46.7237      46.7237      46.7237           90           90           90     102002.7   -615.12185 
  999000       998492   -6680.9544    560.44503   -7241.3994    4307.4062   -11548.806    108.43004   -914.06832   -529.20703   -459.15558   -122.46515   -65.559186    51.917064      46.7237      46.7237      46.7237           90           90           90     102002.7   -634.14364 
 1000000       999492   -6641.7339    585.95702   -7227.6909    4319.6822   -11547.373    113.36588   -987.16239   -1020.5174   -382.43302    40.985679   -66.278064   -134.13031      46.7237      46.7237      46.7237           90           90           90     102002.7   -796.70427 
 1000508      1000000   -6685.4003    576.09387   -7261.4942    4302.6916   -11564.186    111.45764   -707.56407   -656.83278   -907.60819   -87.416607   -175.86931    31.284885      46.7237      46.7237      46.7237           90           90           90     102002.7   -757.33501 
Loop time of 627.384 on 24 procs for 500000 steps with 1735 atoms

Performance: 68.857 ns/day, 0.349 hours/ns, 796.960 timesteps/s
99.9% CPU use with 24 MPI tasks x no OpenMP threads

MPI task timing breakdown:
Section |  min time  |  avg time  |  max time  |%varavg| %total
---------------------------------------------------------------
Pair    | 201.9      | 300.57     | 404.2      | 358.8 | 47.91
Bond    | 70.299     | 82.148     | 93.469     |  56.3 | 13.09
Neigh   | 1.6493     | 1.6672     | 1.6786     |   0.8 |  0.27
Comm    | 116.06     | 227.69     | 326.73     | 436.0 | 36.29
Output  | 0.3605     | 0.39575    | 0.39736    |   1.2 |  0.06
Modify  | 11.382     | 11.904     | 12.193     |   7.0 |  1.90
Other   |            | 3.008      |            |       |  0.48

Nlocal:    72.2917 ave 94 max 53 min
Histogram: 2 1 4 3 2 4 4 2 1 1
Nghost:    1978.96 ave 2147 max 1881 min
Histogram: 11 5 0 0 0 0 0 0 0 8
Neighs:    7641.08 ave 11404 max 3911 min
Histogram: 2 2 2 3 4 5 0 0 4 2

Total # of neighbors = 183386
Ave neighs/atom = 105.698
Ave special neighs/atom = 6.63977
Neighbor list builds = 3134
Dangerous builds = 0
Total wall time: 0:20:02
