LAMMPS (30 Mar 2018)
Reading data file ...
  orthogonal box = (0 0 0) to (46.7237 46.7237 46.7237)
  2 by 2 by 4 MPI processor grid
  reading atoms ...
  3360 atoms
  scanning bonds ...
  5 = max bonds/atom
  scanning angles ...
  10 = max angles/atom
  scanning dihedrals ...
  32 = max dihedrals/atom
  scanning impropers ...
  3 = max impropers/atom
  reading bonds ...
  2064 bonds
  reading angles ...
  3696 angles
  reading dihedrals ...
  6240 dihedrals
  reading impropers ...
  1008 impropers
Finding 1-2 1-3 1-4 neighbors ...
  special bond factors lj:   0          0          0         
  special bond factors coul: 0          0          0         
  5 = max # of 1-2 neighbors
  8 = max # of 1-3 neighbors
  20 = max # of 1-4 neighbors
  19 = max # of special neighbors
Finding 1-2 1-3 1-4 neighbors ...
  special bond factors lj:   0          0          1         
  special bond factors coul: 1          1          1         
  5 = max # of 1-2 neighbors
  8 = max # of 1-3 neighbors
  19 = max # of special neighbors
WARNING: Using 'neigh_modify every 1 delay 0 check yes' setting during minimization (../min.cpp:168)
Neighbor list info ...
  update every 1 steps, delay 0 steps, check yes
  max neighbors/atom: 2000, page size: 100000
  master list distance cutoff = 16
  ghost atom cutoff = 16
  binsize = 8, bins = 6 6 6
  3 neighbor lists, perpetual/occasional/extra = 3 0 0
  (1) pair buck6d/coul/gauss/dsf, perpetual, skip from (3)
      attributes: half, newton on
      pair build: skip
      stencil: none
      bin: none
  (2) pair lj/cut, perpetual, skip from (3)
      attributes: half, newton on
      pair build: skip
      stencil: none
      bin: none
  (3) neighbor class addition, perpetual
      attributes: half, newton on
      pair build: half/bin/newton
      stencil: half/bin/3d/newton
      bin: standard
Setting up cg style minimization ...
  Unit style    : real
  Current step  : 0
WARNING: Inconsistent image flags (../domain.cpp:786)
Per MPI rank memory allocation (min/avg/max) = 23.03 | 23.49 | 23.93 Mbytes
Step Temp E_pair E_mol TotEng Press 
       0            0   -16086.429    6482.8914   -9603.5373    7087.0199 
     500            0   -16495.402    3822.9687   -12672.433   -859.27733 
Loop time of 4.65713 on 16 procs for 500 steps with 3360 atoms

99.9% CPU use with 16 MPI tasks x no OpenMP threads

Minimization stats:
  Stopping criterion = max force evaluations
  Energy initial, next-to-last, final = 
        -9603.53734688      -12672.385687     -12672.4333868
  Force two-norm initial, final = 2575.2 9.71534
  Force max component initial, final = 152.091 1.42895
  Final line search alpha, max atom move = 0.0121494 0.0173609
  Iterations, force evaluations = 500 1000

MPI task timing breakdown:
Section |  min time  |  avg time  |  max time  |%varavg| %total
---------------------------------------------------------------
Pair    | 2.6758     | 3.1885     | 3.704      |  16.6 | 68.46
Bond    | 0.27878    | 0.36051    | 0.42469    |   8.4 |  7.74
Neigh   | 0.026208   | 0.026262   | 0.026332   |   0.0 |  0.56
Comm    | 0.46267    | 1.0353     | 1.6312     |  30.7 | 22.23
Output  | 0          | 0          | 0          |   0.0 |  0.00
Modify  | 0          | 0          | 0          |   0.0 |  0.00
Other   |            | 0.04654    |            |       |  1.00

Nlocal:    210 ave 228 max 186 min
Histogram: 1 2 1 1 3 1 1 0 2 4
Nghost:    4199.25 ave 4234 max 4177 min
Histogram: 4 2 0 2 3 2 1 0 1 1
Neighs:    11506.9 ave 15852 max 6989 min
Histogram: 1 1 3 2 2 1 1 1 1 3

Total # of neighbors = 184110
Ave neighs/atom = 54.7946
Ave special neighs/atom = 3.42857
Neighbor list builds = 7
Dangerous builds = 0
Neighbor list info ...
  update every 1 steps, delay 10 steps, check yes
  max neighbors/atom: 2000, page size: 100000
  master list distance cutoff = 16
  ghost atom cutoff = 16
  binsize = 8, bins = 6 6 6
  3 neighbor lists, perpetual/occasional/extra = 3 0 0
  (1) pair buck6d/coul/gauss/dsf, perpetual, skip from (3)
      attributes: half, newton on
      pair build: skip
      stencil: none
      bin: none
  (2) pair lj/cut, perpetual, skip from (3)
      attributes: half, newton on
      pair build: skip
      stencil: none
      bin: none
  (3) neighbor class addition, perpetual
      attributes: half, newton on
      pair build: half/bin/newton
      stencil: half/bin/3d/newton
      bin: standard
Setting up Verlet run ...
  Unit style    : real
  Current step  : 500
  Time step     : 1
WARNING: Inconsistent image flags (../domain.cpp:786)
Per MPI rank memory allocation (min/avg/max) = 22.67 | 22.74 | 22.8 Mbytes
Step Temp PotEng TotEng Press Volume Lx Ly Lz 
     500           91   -12672.433   -11761.292   -450.95148     102002.7      46.7237      46.7237      46.7237 
    1000    76.077027   -11912.932   -11151.208    855.29486     102002.7      46.7237      46.7237      46.7237 
    2000    92.071171   -11753.583   -10831.717    994.63094     102002.7      46.7237      46.7237      46.7237 
    3000    89.682852   -11787.447   -10889.494    1304.4925     102002.7      46.7237      46.7237      46.7237 
    4000     94.73533   -11795.663   -10847.122    1083.8735     102002.7      46.7237      46.7237      46.7237 
    5000     88.99512   -11788.676   -10897.609    973.73766     102002.7      46.7237      46.7237      46.7237 
    6000     89.99475   -11790.959   -10889.883    1340.5294     102002.7      46.7237      46.7237      46.7237 
    7000     93.21564   -11790.677   -10857.351    1113.4996     102002.7      46.7237      46.7237      46.7237 
    8000    90.987026   -11789.606   -10878.594    723.15102     102002.7      46.7237      46.7237      46.7237 
    9000    90.460373   -11791.916   -10886.178    937.55655     102002.7      46.7237      46.7237      46.7237 
   10000    87.914638   -11797.184   -10916.936    1228.9768     102002.7      46.7237      46.7237      46.7237 
   11000    90.804179   -11789.981   -10880.801    1187.1688     102002.7      46.7237      46.7237      46.7237 
   12000    90.518842   -11798.644   -10892.321    1025.5592     102002.7      46.7237      46.7237      46.7237 
   13000    89.540705    -11807.55    -10911.02    1075.7328     102002.7      46.7237      46.7237      46.7237 
   14000    91.055412   -11829.524   -10917.828    1134.3576     102002.7      46.7237      46.7237      46.7237 
   15000    93.680031   -11787.936   -10849.961    1419.9649     102002.7      46.7237      46.7237      46.7237 
   16000    89.820838   -11817.713   -10918.379    1345.3069     102002.7      46.7237      46.7237      46.7237 
   17000    92.328975    -11805.47   -10881.023    1182.8264     102002.7      46.7237      46.7237      46.7237 
   18000    90.588482   -11826.768   -10919.747    1000.8886     102002.7      46.7237      46.7237      46.7237 
   19000    87.897259   -11823.528   -10943.453    1013.5659     102002.7      46.7237      46.7237      46.7237 
   20000    93.966058   -11807.717   -10866.878    915.03646     102002.7      46.7237      46.7237      46.7237 
   21000    91.763887   -11822.642   -10903.852    1037.6324     102002.7      46.7237      46.7237      46.7237 
   22000    89.342121   -11782.794   -10888.252    1274.9788     102002.7      46.7237      46.7237      46.7237 
   23000    89.896811   -11832.383   -10932.288    902.88851     102002.7      46.7237      46.7237      46.7237 
   24000    91.999562   -11807.344   -10886.195     1283.173     102002.7      46.7237      46.7237      46.7237 
   25000    92.248589     -11833.9   -10910.257    1036.5686     102002.7      46.7237      46.7237      46.7237 
   26000    91.668282    -11820.52   -10902.687    1031.3471     102002.7      46.7237      46.7237      46.7237 
   27000    90.491552   -11779.486   -10873.435    1192.6356     102002.7      46.7237      46.7237      46.7237 
   28000    91.484795   -11808.146    -10892.15    1064.4804     102002.7      46.7237      46.7237      46.7237 
   29000    91.850064   -11825.215   -10905.563    1032.9895     102002.7      46.7237      46.7237      46.7237 
   30000    88.753847   -11807.232   -10918.581    1190.4451     102002.7      46.7237      46.7237      46.7237 
   31000    90.849193   -11803.678   -10894.046    1185.3949     102002.7      46.7237      46.7237      46.7237 
   32000    91.642411   -11810.915   -10893.342    1084.1693     102002.7      46.7237      46.7237      46.7237 
   33000    90.413565   -11837.758   -10932.489    907.18282     102002.7      46.7237      46.7237      46.7237 
   34000    89.247091   -11827.691   -10934.101    1053.9877     102002.7      46.7237      46.7237      46.7237 
   35000    90.153749   -11822.589   -10919.921    836.26717     102002.7      46.7237      46.7237      46.7237 
   36000    91.745682   -11818.201   -10899.594    975.85796     102002.7      46.7237      46.7237      46.7237 
   37000    90.735608   -11812.094     -10903.6    1149.4092     102002.7      46.7237      46.7237      46.7237 
   38000    90.066996   -11818.756   -10916.956    1103.3067     102002.7      46.7237      46.7237      46.7237 
   39000    91.196974   -11822.373    -10909.26    1242.6369     102002.7      46.7237      46.7237      46.7237 
   40000    88.715591   -11839.991   -10951.722    1165.9708     102002.7      46.7237      46.7237      46.7237 
   41000    93.187743   -11839.674   -10906.627    1177.6905     102002.7      46.7237      46.7237      46.7237 
   42000    90.144739   -11822.642   -10920.064    1206.1866     102002.7      46.7237      46.7237      46.7237 
   43000    90.433281   -11808.775   -10903.308     1137.982     102002.7      46.7237      46.7237      46.7237 
   44000    91.119309   -11823.496   -10911.161    992.72868     102002.7      46.7237      46.7237      46.7237 
   45000    91.626547   -11833.283   -10915.869    1341.1007     102002.7      46.7237      46.7237      46.7237 
   46000     91.34804   -11836.021   -10921.395    1149.2332     102002.7      46.7237      46.7237      46.7237 
   47000    90.162982   -11804.142   -10901.382    978.11341     102002.7      46.7237      46.7237      46.7237 
   48000    91.474589   -11822.849   -10906.956    1284.0893     102002.7      46.7237      46.7237      46.7237 
   49000    92.497129   -11846.837   -10920.705    1079.2365     102002.7      46.7237      46.7237      46.7237 
   50000    91.828729   -11823.562   -10904.123    1200.1434     102002.7      46.7237      46.7237      46.7237 
   51000    91.881532   -11841.959   -10921.992    1325.0226     102002.7      46.7237      46.7237      46.7237 
   52000    90.596942   -11796.998   -10889.892     1343.844     102002.7      46.7237      46.7237      46.7237 
   53000    90.734852   -11828.065   -10919.578    980.25579     102002.7      46.7237      46.7237      46.7237 
   54000    89.164884   -11833.991   -10941.224    976.59849     102002.7      46.7237      46.7237      46.7237 
   55000    89.147904   -11826.745   -10934.148    1048.1573     102002.7      46.7237      46.7237      46.7237 
   56000    90.164896   -11827.645   -10924.865    942.66514     102002.7      46.7237      46.7237      46.7237 
   57000    89.805288   -11836.551   -10937.372     1118.554     102002.7      46.7237      46.7237      46.7237 
   58000    90.121787   -11836.347   -10933.999    1169.5949     102002.7      46.7237      46.7237      46.7237 
   59000    89.535964   -11832.992   -10936.509    950.17786     102002.7      46.7237      46.7237      46.7237 
   60000     90.92305   -11809.343   -10898.973    1283.6227     102002.7      46.7237      46.7237      46.7237 
   61000    91.513256   -11843.604   -10927.324    1052.9553     102002.7      46.7237      46.7237      46.7237 
   62000    91.975817   -11818.438   -10897.527    1212.5997     102002.7      46.7237      46.7237      46.7237 
   63000    91.470895   -11836.124   -10920.267    1258.0506     102002.7      46.7237      46.7237      46.7237 
   64000     90.24636   -11834.054   -10930.459    1269.5773     102002.7      46.7237      46.7237      46.7237 
   65000    89.203832    -11845.89   -10952.733    1278.3934     102002.7      46.7237      46.7237      46.7237 
   66000    90.844683    -11847.12   -10937.534    1067.9427     102002.7      46.7237      46.7237      46.7237 
   67000    89.975033   -11852.699   -10951.821    923.18028     102002.7      46.7237      46.7237      46.7237 
   68000    90.972334   -11846.943   -10936.079    1096.6668     102002.7      46.7237      46.7237      46.7237 
   69000    91.862489   -11835.177     -10915.4    879.17214     102002.7      46.7237      46.7237      46.7237 
   70000    92.084665   -11840.038   -10918.037    862.53494     102002.7      46.7237      46.7237      46.7237 
   71000    89.485592    -11826.22   -10930.242    1079.9838     102002.7      46.7237      46.7237      46.7237 
   72000    91.221155    -11840.39   -10927.034    1324.1528     102002.7      46.7237      46.7237      46.7237 
   73000    89.500759   -11851.751   -10955.621    1148.7538     102002.7      46.7237      46.7237      46.7237 
   74000    91.564578   -11849.614    -10932.82    1351.0045     102002.7      46.7237      46.7237      46.7237 
   75000     91.67441   -11842.688   -10924.794    1111.7036     102002.7      46.7237      46.7237      46.7237 
   76000    90.912814   -11857.508    -10947.24    914.46089     102002.7      46.7237      46.7237      46.7237 
   77000    90.882665   -11834.022   -10924.056     1292.849     102002.7      46.7237      46.7237      46.7237 
   78000    92.349442   -11854.761   -10930.108    1229.2335     102002.7      46.7237      46.7237      46.7237 
   79000    89.012477   -11846.705   -10955.464    938.31608     102002.7      46.7237      46.7237      46.7237 
   80000    90.251036   -11838.347   -10934.704    1255.0903     102002.7      46.7237      46.7237      46.7237 
   81000    89.124544   -11851.678   -10959.315    836.33785     102002.7      46.7237      46.7237      46.7237 
   82000    94.181016   -11811.206   -10868.215     784.7014     102002.7      46.7237      46.7237      46.7237 
   83000    91.318732   -11856.045   -10941.713    1158.7261     102002.7      46.7237      46.7237      46.7237 
   84000    93.184291   -11808.148   -10875.137    1035.8584     102002.7      46.7237      46.7237      46.7237 
   85000    88.041893   -11828.392   -10946.869    1294.0419     102002.7      46.7237      46.7237      46.7237 
   86000    91.027469   -11834.197   -10922.781     1112.057     102002.7      46.7237      46.7237      46.7237 
   87000    90.063015   -11838.261   -10936.501     846.8175     102002.7      46.7237      46.7237      46.7237 
   88000    92.536667   -11831.462   -10904.935    1423.8431     102002.7      46.7237      46.7237      46.7237 
   89000    91.623176   -11830.804   -10913.423    1110.3744     102002.7      46.7237      46.7237      46.7237 
   90000    91.793061    -11840.29   -10921.208    1051.4597     102002.7      46.7237      46.7237      46.7237 
   91000    89.175535   -11851.161   -10958.288    1055.4283     102002.7      46.7237      46.7237      46.7237 
   92000    88.617744   -11852.985   -10965.696    1080.8384     102002.7      46.7237      46.7237      46.7237 
   93000    89.843193   -11848.252   -10948.694    1038.4813     102002.7      46.7237      46.7237      46.7237 
   94000    92.007217    -11844.79   -10923.564     1029.679     102002.7      46.7237      46.7237      46.7237 
   95000    91.083291   -11859.524   -10947.549    1172.8314     102002.7      46.7237      46.7237      46.7237 
   96000    93.374192   -11818.531   -10883.618     951.6106     102002.7      46.7237      46.7237      46.7237 
   97000    90.308624    -11855.88   -10951.661    1164.4238     102002.7      46.7237      46.7237      46.7237 
   98000    92.226968     -11853.4   -10929.973    930.09922     102002.7      46.7237      46.7237      46.7237 
   99000    91.362536   -11864.187   -10949.416    982.77708     102002.7      46.7237      46.7237      46.7237 
  100000      89.8739   -11850.955   -10951.089    942.42686     102002.7      46.7237      46.7237      46.7237 
  101000    90.685474   -11831.846   -10923.854    801.78626     102002.7      46.7237      46.7237      46.7237 
  102000    92.865798   -11868.611   -10938.788    994.04941     102002.7      46.7237      46.7237      46.7237 
  103000    90.637444   -11812.664   -10905.153    1019.4221     102002.7      46.7237      46.7237      46.7237 
  104000    90.733275   -11854.207   -10945.737    870.52099     102002.7      46.7237      46.7237      46.7237 
  105000    90.545324   -11830.107   -10923.519    1258.2754     102002.7      46.7237      46.7237      46.7237 
  106000    89.418427   -11856.476    -10961.17    976.02463     102002.7      46.7237      46.7237      46.7237 
  107000    93.180256   -11863.727   -10930.756    1056.1342     102002.7      46.7237      46.7237      46.7237 
  108000    91.875601   -11853.811   -10933.903    1163.9097     102002.7      46.7237      46.7237      46.7237 
  109000    90.889321   -11859.885   -10949.852    1010.0451     102002.7      46.7237      46.7237      46.7237 
  110000    91.247072   -11865.772   -10952.157    1113.7748     102002.7      46.7237      46.7237      46.7237 
  111000    90.340677   -11859.502   -10954.963    1012.7803     102002.7      46.7237      46.7237      46.7237 
  112000    90.955259   -11851.443    -10940.75    933.64858     102002.7      46.7237      46.7237      46.7237 
  113000    90.641724   -11842.864    -10935.31    1273.9349     102002.7      46.7237      46.7237      46.7237 
  114000    92.275952   -11856.997    -10933.08    1389.4931     102002.7      46.7237      46.7237      46.7237 
  115000    90.332365   -11854.345   -10949.889    933.51333     102002.7      46.7237      46.7237      46.7237 
  116000    89.654052   -11865.991   -10968.326    966.18893     102002.7      46.7237      46.7237      46.7237 
  117000    88.249508   -11849.397   -10965.795    1186.0935     102002.7      46.7237      46.7237      46.7237 
  118000    91.555505   -11856.394    -10939.69    1051.0879     102002.7      46.7237      46.7237      46.7237 
  119000    90.092753   -11875.901   -10973.844    1062.1853     102002.7      46.7237      46.7237      46.7237 
  120000    89.008065   -11871.255   -10980.058    1235.9707     102002.7      46.7237      46.7237      46.7237 
  121000     92.87141   -11858.919   -10929.041     1029.288     102002.7      46.7237      46.7237      46.7237 
  122000    91.208962   -11869.471   -10956.238    1139.2552     102002.7      46.7237      46.7237      46.7237 
  123000    89.176447   -11864.611   -10971.728    1016.5637     102002.7      46.7237      46.7237      46.7237 
  124000    90.656173   -11860.783   -10953.084    943.43616     102002.7      46.7237      46.7237      46.7237 
  125000    91.350718   -11868.489   -10953.837    1085.1736     102002.7      46.7237      46.7237      46.7237 
  126000    89.649255   -11857.592   -10959.975    992.92322     102002.7      46.7237      46.7237      46.7237 
  127000    92.135919   -11844.263   -10921.749     781.2834     102002.7      46.7237      46.7237      46.7237 
  128000    91.225655   -11872.055   -10958.654    1097.2595     102002.7      46.7237      46.7237      46.7237 
  129000    90.143817   -11859.642   -10957.073      1115.58     102002.7      46.7237      46.7237      46.7237 
  130000    87.918144    -11852.48   -10972.196    1086.2899     102002.7      46.7237      46.7237      46.7237 
  131000    91.013588   -11857.082   -10945.804    1197.8647     102002.7      46.7237      46.7237      46.7237 
  132000    90.821112   -11876.129   -10966.779    1052.1479     102002.7      46.7237      46.7237      46.7237 
  133000    93.353958   -11874.547   -10939.837    1224.4871     102002.7      46.7237      46.7237      46.7237 
  134000     91.04524   -11851.869   -10940.275     1148.195     102002.7      46.7237      46.7237      46.7237 
  135000    91.821646   -11874.034   -10954.666    967.83163     102002.7      46.7237      46.7237      46.7237 
  136000    90.389074   -11856.444    -10951.42    1015.2219     102002.7      46.7237      46.7237      46.7237 
  137000    91.120845    -11852.87   -10940.519    1015.8915     102002.7      46.7237      46.7237      46.7237 
  138000    92.085617   -11825.928   -10903.917    1314.3089     102002.7      46.7237      46.7237      46.7237 
  139000     90.98396   -11848.774   -10937.793    1252.0341     102002.7      46.7237      46.7237      46.7237 
  140000    90.710053     -11867.6   -10959.362    1211.2463     102002.7      46.7237      46.7237      46.7237 
  141000    88.546344    -11872.44   -10985.867    1466.9533     102002.7      46.7237      46.7237      46.7237 
  142000    89.772416   -11859.952   -10961.102    1160.6756     102002.7      46.7237      46.7237      46.7237 
  143000    92.531246    -11837.01   -10910.537    1190.2669     102002.7      46.7237      46.7237      46.7237 
  144000    91.662464   -11855.174     -10937.4    1271.3301     102002.7      46.7237      46.7237      46.7237 
  145000    89.387679   -11869.345   -10974.348    1280.5719     102002.7      46.7237      46.7237      46.7237 
  146000    90.044182   -11844.104   -10942.532    1327.4678     102002.7      46.7237      46.7237      46.7237 
  147000     88.78624   -11856.912   -10967.936    1228.5303     102002.7      46.7237      46.7237      46.7237 
  148000    92.121549   -11884.658   -10962.288    1060.4143     102002.7      46.7237      46.7237      46.7237 
  149000    91.678772   -11867.621   -10949.683    1027.6259     102002.7      46.7237      46.7237      46.7237 
  150000    92.301428    -11855.39   -10931.218    1365.4609     102002.7      46.7237      46.7237      46.7237 
  151000    92.368794   -11858.466    -10933.62    972.67401     102002.7      46.7237      46.7237      46.7237 
  152000    92.518298   -11857.625   -10931.282    1246.6999     102002.7      46.7237      46.7237      46.7237 
  153000    90.035106    -11856.65    -10955.17    1028.4915     102002.7      46.7237      46.7237      46.7237 
  154000    90.593169   -11877.215   -10970.148    901.03904     102002.7      46.7237      46.7237      46.7237 
  155000    91.910223   -11853.053   -10932.798    885.92945     102002.7      46.7237      46.7237      46.7237 
  156000    90.592572   -11882.613   -10975.551    840.10824     102002.7      46.7237      46.7237      46.7237 
  157000    89.114025   -11887.427    -10995.17    838.42328     102002.7      46.7237      46.7237      46.7237 
  158000    93.036795   -11883.884   -10952.349    1024.9758     102002.7      46.7237      46.7237      46.7237 
  159000    88.597564   -11842.076   -10954.989     1235.409     102002.7      46.7237      46.7237      46.7237 
  160000    88.084239   -11859.283   -10977.336    1086.9401     102002.7      46.7237      46.7237      46.7237 
  161000    90.405253   -11841.609   -10936.422    1204.9508     102002.7      46.7237      46.7237      46.7237 
  162000    89.652221   -11863.926    -10966.28    906.85994     102002.7      46.7237      46.7237      46.7237 
  163000    88.581304   -11855.787   -10968.863    976.59526     102002.7      46.7237      46.7237      46.7237 
  164000    92.451266   -11853.387   -10927.715    870.54837     102002.7      46.7237      46.7237      46.7237 
  165000    91.022585   -11880.873   -10969.506    1193.4566     102002.7      46.7237      46.7237      46.7237 
  166000    92.121722   -11856.723   -10934.351    1348.7123     102002.7      46.7237      46.7237      46.7237 
  167000    90.042733   -11874.004   -10972.447    1068.4816     102002.7      46.7237      46.7237      46.7237 
  168000    92.555368   -11841.818   -10915.104    1108.8556     102002.7      46.7237      46.7237      46.7237 
  169000    90.083284   -11882.622   -10980.659    960.96113     102002.7      46.7237      46.7237      46.7237 
  170000    91.693311   -11841.047   -10922.964    1083.5308     102002.7      46.7237      46.7237      46.7237 
  171000    88.234366   -11847.049   -10963.598    1095.7334     102002.7      46.7237      46.7237      46.7237 
  172000    91.605653   -11865.859   -10948.653    1033.3751     102002.7      46.7237      46.7237      46.7237 
  173000    89.690031   -11865.671   -10967.646    1411.3588     102002.7      46.7237      46.7237      46.7237 
  174000    89.469432   -11880.025   -10984.209    1022.3189     102002.7      46.7237      46.7237      46.7237 
  175000    89.173584   -11825.521   -10932.666    950.37446     102002.7      46.7237      46.7237      46.7237 
  176000    91.602079   -11858.586   -10941.417    1058.3308     102002.7      46.7237      46.7237      46.7237 
  177000    88.781732   -11862.655   -10973.724    921.35372     102002.7      46.7237      46.7237      46.7237 
  178000    90.366573   -11857.202   -10952.403    940.04241     102002.7      46.7237      46.7237      46.7237 
  179000    90.289191   -11860.905   -10956.881    950.86817     102002.7      46.7237      46.7237      46.7237 
  180000    91.520455   -11861.671   -10945.318    831.62108     102002.7      46.7237      46.7237      46.7237 
  181000    90.029725   -11890.186   -10988.759    924.90685     102002.7      46.7237      46.7237      46.7237 
  182000    91.064033   -11849.795   -10938.012    1193.9358     102002.7      46.7237      46.7237      46.7237 
  183000     91.94308   -11877.345   -10956.761    996.98048     102002.7      46.7237      46.7237      46.7237 
  184000    90.741514   -11879.128   -10970.575    1068.9396     102002.7      46.7237      46.7237      46.7237 
  185000    91.439134   -11873.246   -10957.707    915.34644     102002.7      46.7237      46.7237      46.7237 
  186000    92.046805   -11865.709   -10944.087      1054.89     102002.7      46.7237      46.7237      46.7237 
  187000    90.776089   -11871.598   -10962.699    1204.7884     102002.7      46.7237      46.7237      46.7237 
  188000    90.183497   -11858.248   -10955.282    1250.6801     102002.7      46.7237      46.7237      46.7237 
  189000    92.043293   -11881.578   -10959.991    1351.8531     102002.7      46.7237      46.7237      46.7237 
  190000    92.011187   -11855.732   -10934.466    1331.9432     102002.7      46.7237      46.7237      46.7237 
  191000    92.584728   -11848.981   -10921.973       1328.6     102002.7      46.7237      46.7237      46.7237 
  192000     87.55902   -11877.129   -11000.441    940.98201     102002.7      46.7237      46.7237      46.7237 
  193000    88.542574   -11856.392   -10969.855    1013.0393     102002.7      46.7237      46.7237      46.7237 
  194000    91.562151   -11839.834   -10923.064    1227.2969     102002.7      46.7237      46.7237      46.7237 
  195000    90.447955    -11866.23   -10960.616    1102.6115     102002.7      46.7237      46.7237      46.7237 
  196000    90.695082   -11874.067   -10965.978    1150.0884     102002.7      46.7237      46.7237      46.7237 
  197000    90.022526   -11877.881   -10976.526    1248.3948     102002.7      46.7237      46.7237      46.7237 
  198000    91.032934   -11867.079   -10955.608    1160.7424     102002.7      46.7237      46.7237      46.7237 
  199000    92.902198   -11877.048   -10946.861    1086.4351     102002.7      46.7237      46.7237      46.7237 
  200000    93.763576   -11862.049   -10923.237    922.12763     102002.7      46.7237      46.7237      46.7237 
  201000    91.391743   -11879.996   -10964.933    643.81262     102002.7      46.7237      46.7237      46.7237 
  202000    88.763012   -11866.133    -10977.39    825.25003     102002.7      46.7237      46.7237      46.7237 
  203000     89.26961   -11878.209   -10984.394    944.63403     102002.7      46.7237      46.7237      46.7237 
  204000    91.182066    -11861.41   -10948.446    832.90224     102002.7      46.7237      46.7237      46.7237 
  205000    90.267194   -11872.699   -10968.895    1263.6931     102002.7      46.7237      46.7237      46.7237 
  206000     90.99542   -11871.912   -10960.817    1166.1079     102002.7      46.7237      46.7237      46.7237 
  207000    91.970491   -11870.605   -10949.746    1118.8356     102002.7      46.7237      46.7237      46.7237 
  208000    91.181156   -11864.849   -10951.894     1461.448     102002.7      46.7237      46.7237      46.7237 
  209000     93.09953   -11868.369   -10936.206    932.24941     102002.7      46.7237      46.7237      46.7237 
  210000    90.190714    -11848.37   -10945.332    688.71018     102002.7      46.7237      46.7237      46.7237 
  211000     90.92528   -11860.719   -10950.326    1297.6813     102002.7      46.7237      46.7237      46.7237 
  212000    90.500297   -11879.506   -10973.368    1140.3522     102002.7      46.7237      46.7237      46.7237 
  213000    90.584043   -11844.255   -10937.278    1024.4875     102002.7      46.7237      46.7237      46.7237 
  214000    92.335279   -11874.725   -10950.214    905.50862     102002.7      46.7237      46.7237      46.7237 
  215000    92.517406    -11885.58   -10959.246     1268.931     102002.7      46.7237      46.7237      46.7237 
  216000    90.876941   -11890.258   -10980.349    937.39006     102002.7      46.7237      46.7237      46.7237 
  217000    88.557263   -11861.481   -10974.797    1502.0488     102002.7      46.7237      46.7237      46.7237 
  218000    93.396657   -11861.441   -10926.303    1051.6593     102002.7      46.7237      46.7237      46.7237 
  219000    91.682434   -11865.489   -10947.514    883.66644     102002.7      46.7237      46.7237      46.7237 
  220000    92.440942    -11864.69   -10939.122    931.74476     102002.7      46.7237      46.7237      46.7237 
  221000    89.927086   -11856.532   -10956.133    1292.4752     102002.7      46.7237      46.7237      46.7237 
  222000     91.12659   -11874.256   -10961.847    1231.6669     102002.7      46.7237      46.7237      46.7237 
  223000    90.761786    -11883.27   -10974.514    1213.0228     102002.7      46.7237      46.7237      46.7237 
  224000    90.703074   -11890.717   -10982.549    1036.1044     102002.7      46.7237      46.7237      46.7237 
  225000     90.33833   -11878.351   -10973.835    1247.1705     102002.7      46.7237      46.7237      46.7237 
  226000     92.09214   -11880.628   -10958.552    1061.9393     102002.7      46.7237      46.7237      46.7237 
  227000    92.123115   -11859.128   -10936.741    786.19225     102002.7      46.7237      46.7237      46.7237 
  228000    91.221988   -11877.504    -10964.14    1084.4534     102002.7      46.7237      46.7237      46.7237 
  229000    89.554683   -11866.502   -10969.832     1095.947     102002.7      46.7237      46.7237      46.7237 
  230000    91.590503   -11843.014   -10925.961    1356.5457     102002.7      46.7237      46.7237      46.7237 
  231000    91.079325    -11889.17   -10977.235     862.7949     102002.7      46.7237      46.7237      46.7237 
  232000    91.808759   -11861.209    -10941.97    996.90471     102002.7      46.7237      46.7237      46.7237 
  233000    91.371513   -11883.625   -10968.764    1382.2126     102002.7      46.7237      46.7237      46.7237 
  234000    90.769069   -11849.963   -10941.134    1085.7384     102002.7      46.7237      46.7237      46.7237 
  235000    90.516438   -11869.416   -10963.117    890.72959     102002.7      46.7237      46.7237      46.7237 
  236000    90.351363   -11889.979   -10985.333    880.69572     102002.7      46.7237      46.7237      46.7237 
  237000    92.669723   -11852.117   -10924.257    1223.1964     102002.7      46.7237      46.7237      46.7237 
  238000    91.173571   -11866.532   -10953.653    940.79092     102002.7      46.7237      46.7237      46.7237 
  239000    90.304621   -11869.013   -10964.835    1016.5962     102002.7      46.7237      46.7237      46.7237 
  240000    90.747792   -11851.168   -10942.552    1081.2795     102002.7      46.7237      46.7237      46.7237 
  241000    90.741059   -11869.771   -10961.223    862.29162     102002.7      46.7237      46.7237      46.7237 
  242000    92.677588   -11875.645   -10947.707    1088.4695     102002.7      46.7237      46.7237      46.7237 
  243000    89.009399   -11874.344   -10983.134    849.10237     102002.7      46.7237      46.7237      46.7237 
  244000    87.800494    -11884.85   -11005.744    876.75942     102002.7      46.7237      46.7237      46.7237 
  245000     91.25908   -11857.217   -10943.481    1096.0207     102002.7      46.7237      46.7237      46.7237 
  246000    93.287437   -11882.959   -10948.915    864.53585     102002.7      46.7237      46.7237      46.7237 
  247000    92.334245   -11885.253   -10960.753    833.63917     102002.7      46.7237      46.7237      46.7237 
  248000    89.629579   -11863.189   -10965.769    904.50465     102002.7      46.7237      46.7237      46.7237 
  249000    88.572931   -11880.296   -10993.455    1326.0451     102002.7      46.7237      46.7237      46.7237 
  250000    92.144253   -11865.105   -10942.507    1051.5719     102002.7      46.7237      46.7237      46.7237 
  251000    90.898215   -11873.026   -10962.904    1192.9357     102002.7      46.7237      46.7237      46.7237 
  252000     88.61662   -11860.497    -10973.22    959.29568     102002.7      46.7237      46.7237      46.7237 
  253000    91.926961   -11874.391   -10953.969    1257.8376     102002.7      46.7237      46.7237      46.7237 
  254000    90.960686   -11856.297   -10945.549    1174.2862     102002.7      46.7237      46.7237      46.7237 
  255000    89.983453   -11854.557   -10953.594    1070.3955     102002.7      46.7237      46.7237      46.7237 
  256000    89.155254   -11880.845   -10988.175    879.29517     102002.7      46.7237      46.7237      46.7237 
  257000    89.776187   -11863.214   -10964.327    1078.8008     102002.7      46.7237      46.7237      46.7237 
  258000    91.326399   -11913.792   -10999.383    821.19967     102002.7      46.7237      46.7237      46.7237 
  259000    90.397441   -11872.273   -10967.165    910.09947     102002.7      46.7237      46.7237      46.7237 
  260000    90.843997   -11874.206   -10964.627     733.3991     102002.7      46.7237      46.7237      46.7237 
  261000    89.768107   -11881.058   -10982.251    902.40215     102002.7      46.7237      46.7237      46.7237 
  262000    91.282126   -11909.449   -10995.483    946.65097     102002.7      46.7237      46.7237      46.7237 
  263000    92.245505   -11875.652    -10952.04    1005.3406     102002.7      46.7237      46.7237      46.7237 
  264000    91.570664   -11882.378   -10965.523    1039.1404     102002.7      46.7237      46.7237      46.7237 
  265000     90.33904   -11875.016   -10970.492    1192.4567     102002.7      46.7237      46.7237      46.7237 
  266000    88.293724   -11854.934    -10970.89    1266.9818     102002.7      46.7237      46.7237      46.7237 
  267000    90.289856   -11866.089   -10962.058    1168.7921     102002.7      46.7237      46.7237      46.7237 
  268000    92.011814   -11879.688   -10958.416    1034.2965     102002.7      46.7237      46.7237      46.7237 
  269000    92.054504   -11872.662   -10950.963    1160.1183     102002.7      46.7237      46.7237      46.7237 
  270000    90.491334   -11896.326   -10990.278    953.59259     102002.7      46.7237      46.7237      46.7237 
  271000    90.542886   -11892.897   -10986.332    967.64711     102002.7      46.7237      46.7237      46.7237 
  272000     90.84471   -11867.278   -10957.691    856.04364     102002.7      46.7237      46.7237      46.7237 
  273000    89.729099   -11874.473   -10976.057    976.84598     102002.7      46.7237      46.7237      46.7237 
  274000    92.065505    -11859.22    -10937.41    1041.4266     102002.7      46.7237      46.7237      46.7237 
  275000     89.31547   -11866.021   -10971.746    690.08323     102002.7      46.7237      46.7237      46.7237 
  276000    90.954013   -11862.761    -10952.08    1028.2088     102002.7      46.7237      46.7237      46.7237 
  277000    92.265268   -11867.612   -10943.802    1250.7024     102002.7      46.7237      46.7237      46.7237 
  278000    90.815363   -11854.297   -10945.005    974.75406     102002.7      46.7237      46.7237      46.7237 
  279000    91.875818   -11884.671    -10964.76    1351.4806     102002.7      46.7237      46.7237      46.7237 
  280000    91.159803   -11864.404   -10951.663    1228.9694     102002.7      46.7237      46.7237      46.7237 
  281000     91.23397   -11878.026   -10964.542    1154.7343     102002.7      46.7237      46.7237      46.7237 
  282000     91.08238    -11875.36   -10963.394     1002.374     102002.7      46.7237      46.7237      46.7237 
  283000    89.689838   -11891.049   -10993.025    991.97792     102002.7      46.7237      46.7237      46.7237 
  284000    92.275021    -11885.45   -10961.542    932.52984     102002.7      46.7237      46.7237      46.7237 
  285000     91.03576   -11893.135   -10981.636    903.46387     102002.7      46.7237      46.7237      46.7237 
  286000    90.774059   -11858.148   -10949.269    755.50686     102002.7      46.7237      46.7237      46.7237 
  287000    90.681603   -11891.666   -10983.712    970.63002     102002.7      46.7237      46.7237      46.7237 
  288000    91.439022   -11871.731   -10956.194     1143.235     102002.7      46.7237      46.7237      46.7237 
  289000    91.520482   -11889.864   -10973.511    864.45462     102002.7      46.7237      46.7237      46.7237 
  290000    90.867904   -11874.471   -10964.652    1056.4684     102002.7      46.7237      46.7237      46.7237 
  291000    92.514473   -11876.368   -10950.063    1162.5086     102002.7      46.7237      46.7237      46.7237 
  292000    93.217893   -11888.314   -10954.966    1167.1408     102002.7      46.7237      46.7237      46.7237 
  293000     89.64486   -11891.795   -10994.222    1136.2212     102002.7      46.7237      46.7237      46.7237 
  294000    92.180098   -11860.783   -10937.826    1199.9212     102002.7      46.7237      46.7237      46.7237 
  295000    88.332258   -11875.073   -10990.643    1043.7685     102002.7      46.7237      46.7237      46.7237 
  296000    90.382312   -11895.759   -10990.803    1025.1315     102002.7      46.7237      46.7237      46.7237 
  297000    89.888075   -11857.944   -10957.936    1319.2843     102002.7      46.7237      46.7237      46.7237 
  298000    90.364716   -11867.196   -10962.416    988.80551     102002.7      46.7237      46.7237      46.7237 
  299000     92.86927   -11855.339   -10925.481    1003.4094     102002.7      46.7237      46.7237      46.7237 
  300000    88.684176   -11878.867   -10990.913    730.54037     102002.7      46.7237      46.7237      46.7237 
  301000    89.825771   -11869.044    -10969.66    1030.7095     102002.7      46.7237      46.7237      46.7237 
  302000    91.392234   -11875.687   -10960.619    973.08243     102002.7      46.7237      46.7237      46.7237 
  303000    90.954832   -11885.144   -10974.455    777.42948     102002.7      46.7237      46.7237      46.7237 
  304000    90.668129   -11878.482   -10970.664    978.37583     102002.7      46.7237      46.7237      46.7237 
  305000    89.059313   -11866.879   -10975.168    1287.8246     102002.7      46.7237      46.7237      46.7237 
  306000    94.231928   -11871.881    -10928.38    1201.5651     102002.7      46.7237      46.7237      46.7237 
  307000    88.628637   -11880.963   -10993.565    980.56169     102002.7      46.7237      46.7237      46.7237 
  308000    91.777188   -11892.006   -10973.083    1053.3216     102002.7      46.7237      46.7237      46.7237 
  309000    88.815337   -11880.256   -10990.989    1141.6262     102002.7      46.7237      46.7237      46.7237 
  310000    92.201938   -11876.684   -10953.509    730.58463     102002.7      46.7237      46.7237      46.7237 
  311000    92.037969   -11888.481   -10966.948    1003.2538     102002.7      46.7237      46.7237      46.7237 
  312000    91.702614   -11859.595   -10941.419    888.75925     102002.7      46.7237      46.7237      46.7237 
  313000    91.340521   -11893.239   -10978.688    872.17727     102002.7      46.7237      46.7237      46.7237 
  314000    92.276372   -11897.624   -10973.703    1092.3784     102002.7      46.7237      46.7237      46.7237 
  315000    91.765996   -11872.032   -10953.222    953.10026     102002.7      46.7237      46.7237      46.7237 
  316000    89.497478   -11880.415   -10984.317    891.84107     102002.7      46.7237      46.7237      46.7237 
  317000    90.888833   -11858.356   -10948.328    1156.6428     102002.7      46.7237      46.7237      46.7237 
  318000    89.213666   -11865.958   -10972.703    958.91043     102002.7      46.7237      46.7237      46.7237 
  319000    93.029797    -11867.21   -10935.745    1016.6571     102002.7      46.7237      46.7237      46.7237 
  320000    87.181098   -11878.541   -11005.636    1063.3177     102002.7      46.7237      46.7237      46.7237 
  321000    90.015436   -11863.685   -10962.401    1152.1723     102002.7      46.7237      46.7237      46.7237 
  322000    93.331041   -11870.552   -10936.071    1119.0528     102002.7      46.7237      46.7237      46.7237 
  323000    90.429134   -11890.837   -10985.411    1129.7434     102002.7      46.7237      46.7237      46.7237 
  324000    91.166841   -11860.864   -10948.052    1156.8141     102002.7      46.7237      46.7237      46.7237 
  325000    89.469357   -11883.807   -10987.991    993.10129     102002.7      46.7237      46.7237      46.7237 
  326000    89.124855   -11895.278   -11002.911     1028.662     102002.7      46.7237      46.7237      46.7237 
  327000    92.807516    -11873.46   -10944.221     922.5756     102002.7      46.7237      46.7237      46.7237 
  328000    89.402618   -11872.266   -10977.119    803.40039     102002.7      46.7237      46.7237      46.7237 
  329000    91.867122   -11882.074    -10962.25    1121.2694     102002.7      46.7237      46.7237      46.7237 
  330000    92.143701   -11888.897   -10966.305    1276.0998     102002.7      46.7237      46.7237      46.7237 
  331000     92.32284    -11872.81   -10948.424    1104.2924     102002.7      46.7237      46.7237      46.7237 
  332000    90.830445   -11876.811   -10967.368    999.42366     102002.7      46.7237      46.7237      46.7237 
  333000    91.347814     -11853.6   -10938.977    1006.1868     102002.7      46.7237      46.7237      46.7237 
  334000    89.047396    -11860.42   -10968.829    1038.3118     102002.7      46.7237      46.7237      46.7237 
  335000    91.769484   -11885.745   -10966.899    1134.6213     102002.7      46.7237      46.7237      46.7237 
  336000    88.613564   -11862.767    -10975.52    1108.6109     102002.7      46.7237      46.7237      46.7237 
  337000    89.474086   -11861.586   -10965.723    971.15271     102002.7      46.7237      46.7237      46.7237 
  338000    92.825153   -11873.104   -10943.689    1165.4925     102002.7      46.7237      46.7237      46.7237 
  339000    92.367581   -11895.113   -10970.279    1031.8976     102002.7      46.7237      46.7237      46.7237 
  340000    91.292909   -11861.959   -10947.885    908.31631     102002.7      46.7237      46.7237      46.7237 
  341000    88.557345   -11862.531   -10975.847    1122.1825     102002.7      46.7237      46.7237      46.7237 
  342000    89.775685   -11887.837   -10988.954    974.05589     102002.7      46.7237      46.7237      46.7237 
  343000    90.453742   -11891.159   -10985.488    1093.3697     102002.7      46.7237      46.7237      46.7237 
  344000    89.660046   -11885.246   -10987.522    1313.4698     102002.7      46.7237      46.7237      46.7237 
  345000    89.986629   -11873.923   -10972.928    861.74655     102002.7      46.7237      46.7237      46.7237 
  346000    92.283969   -11864.109   -10940.112    921.70227     102002.7      46.7237      46.7237      46.7237 
  347000    91.696051   -11886.595   -10968.485    1189.6138     102002.7      46.7237      46.7237      46.7237 
  348000    89.154746   -11872.998   -10980.332    706.61209     102002.7      46.7237      46.7237      46.7237 
  349000    88.627421   -11891.958   -11004.573    1068.3464     102002.7      46.7237      46.7237      46.7237 
  350000    90.582616   -11889.929   -10982.967    1100.5261     102002.7      46.7237      46.7237      46.7237 
  351000    92.400917   -11858.655   -10933.487    1164.0209     102002.7      46.7237      46.7237      46.7237 
  352000    90.725242   -11877.635   -10969.245    1212.8227     102002.7      46.7237      46.7237      46.7237 
  353000    88.512895   -11870.683   -10984.444    1043.9036     102002.7      46.7237      46.7237      46.7237 
  354000    87.285737   -11854.027   -10980.075     1103.913     102002.7      46.7237      46.7237      46.7237 
  355000    89.823961   -11882.509   -10983.143    1003.6459     102002.7      46.7237      46.7237      46.7237 
  356000    91.978628   -11878.344   -10957.404    742.74879     102002.7      46.7237      46.7237      46.7237 
  357000    91.649362   -11866.932   -10949.289     1033.891     102002.7      46.7237      46.7237      46.7237 
  358000    93.192366   -11877.843    -10944.75    1275.5213     102002.7      46.7237      46.7237      46.7237 
  359000    91.403698   -11891.506   -10976.323     886.5363     102002.7      46.7237      46.7237      46.7237 
  360000    92.286473   -11875.426   -10951.404    907.77407     102002.7      46.7237      46.7237      46.7237 
  361000     87.85134   -11873.575    -10993.96    898.21697     102002.7      46.7237      46.7237      46.7237 
  362000    90.382774   -11884.647   -10979.686    1021.0905     102002.7      46.7237      46.7237      46.7237 
  363000     90.18228   -11873.422   -10970.468    723.94065     102002.7      46.7237      46.7237      46.7237 
  364000    91.475857   -11860.009   -10944.104    773.92062     102002.7      46.7237      46.7237      46.7237 
  365000    92.362956   -11874.686   -10949.899    986.56171     102002.7      46.7237      46.7237      46.7237 
  366000    92.553456   -11859.044   -10932.349      896.844     102002.7      46.7237      46.7237      46.7237 
  367000    90.306905   -11905.991   -11001.789    916.54297     102002.7      46.7237      46.7237      46.7237 
  368000    91.660449   -11872.405   -10954.651    1105.3537     102002.7      46.7237      46.7237      46.7237 
  369000    89.522291   -11876.531   -10980.185    1255.4355     102002.7      46.7237      46.7237      46.7237 
  370000    89.521731   -11858.902   -10962.562    1074.3645     102002.7      46.7237      46.7237      46.7237 
  371000     92.64725   -11863.387   -10935.752    1253.7471     102002.7      46.7237      46.7237      46.7237 
  372000    92.889615    -11886.66   -10956.599    984.48702     102002.7      46.7237      46.7237      46.7237 
  373000     91.35398   -11891.038   -10976.352    938.45503     102002.7      46.7237      46.7237      46.7237 
  374000    89.687017   -11866.742   -10968.747    1428.6564     102002.7      46.7237      46.7237      46.7237 
  375000    90.841449   -11886.902   -10977.348    861.11291     102002.7      46.7237      46.7237      46.7237 
  376000    90.925182   -11875.167   -10964.775    928.69134     102002.7      46.7237      46.7237      46.7237 
  377000    92.765732   -11844.964   -10916.143    1300.5018     102002.7      46.7237      46.7237      46.7237 
  378000     90.36263    -11888.87    -10984.11    959.68581     102002.7      46.7237      46.7237      46.7237 
  379000    88.861527   -11857.698   -10967.968    1203.8249     102002.7      46.7237      46.7237      46.7237 
  380000    90.535131   -11878.693   -10972.206    1162.3883     102002.7      46.7237      46.7237      46.7237 
  381000    89.791699    -11871.15   -10972.107    743.85593     102002.7      46.7237      46.7237      46.7237 
  382000    91.505587   -11874.346   -10958.142    1157.3192     102002.7      46.7237      46.7237      46.7237 
  383000    91.953399   -11891.882   -10971.195    1149.7729     102002.7      46.7237      46.7237      46.7237 
  384000    90.706331   -11876.374   -10968.173    1164.4523     102002.7      46.7237      46.7237      46.7237 
  385000    93.296628   -11867.026    -10932.89    1035.7234     102002.7      46.7237      46.7237      46.7237 
  386000    89.936953   -11887.527    -10987.03    1112.3633     102002.7      46.7237      46.7237      46.7237 
  387000     89.43817   -11866.079   -10970.576    1037.4841     102002.7      46.7237      46.7237      46.7237 
  388000    89.474656   -11877.539   -10981.671    1095.8928     102002.7      46.7237      46.7237      46.7237 
  389000    90.594215    -11870.13   -10963.051    913.75375     102002.7      46.7237      46.7237      46.7237 
  390000     90.76906   -11904.933   -10996.104     894.0239     102002.7      46.7237      46.7237      46.7237 
  391000    91.203008   -11877.374     -10964.2    1076.8692     102002.7      46.7237      46.7237      46.7237 
  392000    90.641207   -11884.697   -10977.148    861.47357     102002.7      46.7237      46.7237      46.7237 
  393000    90.091013   -11884.719   -10982.679    790.18626     102002.7      46.7237      46.7237      46.7237 
  394000    87.708666   -11871.296   -10993.109    1262.4657     102002.7      46.7237      46.7237      46.7237 
  395000     89.57824   -11869.744   -10972.838    940.74223     102002.7      46.7237      46.7237      46.7237 
  396000    91.107748   -11865.614   -10953.394    819.89032     102002.7      46.7237      46.7237      46.7237 
  397000    94.131806    -11862.06   -10919.562     998.2108     102002.7      46.7237      46.7237      46.7237 
  398000    92.339417    -11871.74   -10947.187    936.46519     102002.7      46.7237      46.7237      46.7237 
  399000    91.505738    -11875.13   -10958.925    1046.9269     102002.7      46.7237      46.7237      46.7237 
  400000    89.737917   -11876.377   -10977.873    1095.2109     102002.7      46.7237      46.7237      46.7237 
  401000     93.64741   -11875.428    -10937.78    828.57911     102002.7      46.7237      46.7237      46.7237 
  402000    90.803417   -11884.396   -10975.223     1278.052     102002.7      46.7237      46.7237      46.7237 
  403000    93.581809   -11880.236   -10943.244    1008.0505     102002.7      46.7237      46.7237      46.7237 
  404000      90.3682   -11865.121   -10960.305    993.45982     102002.7      46.7237      46.7237      46.7237 
  405000    92.082761   -11906.401   -10984.418    1187.4698     102002.7      46.7237      46.7237      46.7237 
  406000    89.989462   -11878.401   -10977.377    915.88836     102002.7      46.7237      46.7237      46.7237 
  407000    87.959259   -11899.117   -11018.421    958.78058     102002.7      46.7237      46.7237      46.7237 
  408000    90.361659   -11871.724   -10966.974    946.21123     102002.7      46.7237      46.7237      46.7237 
  409000    89.229333   -11868.047   -10974.635    835.89606     102002.7      46.7237      46.7237      46.7237 
  410000    88.928117   -11867.143   -10976.746    854.65013     102002.7      46.7237      46.7237      46.7237 
  411000    92.442318   -11890.668   -10965.086    933.15632     102002.7      46.7237      46.7237      46.7237 
  412000    88.920159   -11877.017   -10986.701    971.10233     102002.7      46.7237      46.7237      46.7237 
  413000    90.106326   -11845.662   -10943.468    940.44518     102002.7      46.7237      46.7237      46.7237 
  414000     89.48671   -11868.892   -10972.902    1138.2755     102002.7      46.7237      46.7237      46.7237 
  415000    87.503783   -11880.037   -11003.902    1118.5374     102002.7      46.7237      46.7237      46.7237 
  416000    91.409196    -11865.99   -10950.752      962.637     102002.7      46.7237      46.7237      46.7237 
  417000    91.333461   -11861.255   -10946.775    1322.3516     102002.7      46.7237      46.7237      46.7237 
  418000    92.919784   -11864.406   -10934.043    1361.6695     102002.7      46.7237      46.7237      46.7237 
  419000    92.128868   -11873.051   -10950.607    1043.8796     102002.7      46.7237      46.7237      46.7237 
  420000    89.085522   -11870.519   -10978.547    838.16632     102002.7      46.7237      46.7237      46.7237 
  421000     89.63575   -11877.339   -10979.857     774.3618     102002.7      46.7237      46.7237      46.7237 
  422000    91.894273   -11871.653   -10951.558    893.77359     102002.7      46.7237      46.7237      46.7237 
  423000    88.374783   -11870.916    -10986.06    1138.8909     102002.7      46.7237      46.7237      46.7237 
  424000    92.639165   -11871.542   -10943.989    1029.6689     102002.7      46.7237      46.7237      46.7237 
  425000    89.619718   -11889.751    -10992.43    826.34137     102002.7      46.7237      46.7237      46.7237 
  426000     92.38745    -11886.11   -10961.077    1082.1426     102002.7      46.7237      46.7237      46.7237 
  427000    89.393992   -11885.139   -10990.078     1064.932     102002.7      46.7237      46.7237      46.7237 
  428000    89.848585   -11860.328   -10960.715    1239.5394     102002.7      46.7237      46.7237      46.7237 
  429000     87.53676   -11876.452   -10999.987    1002.7722     102002.7      46.7237      46.7237      46.7237 
  430000    91.551598   -11868.154    -10951.49    902.96172     102002.7      46.7237      46.7237      46.7237 
  431000    92.341859   -11890.426    -10965.85    971.78547     102002.7      46.7237      46.7237      46.7237 
  432000    91.185826   -11888.688   -10975.687     905.0374     102002.7      46.7237      46.7237      46.7237 
  433000    89.017123   -11872.531   -10981.243    1222.1106     102002.7      46.7237      46.7237      46.7237 
  434000    92.195545   -11860.159   -10937.047    892.91487     102002.7      46.7237      46.7237      46.7237 
  435000    91.152302   -11885.784   -10973.118    1076.1461     102002.7      46.7237      46.7237      46.7237 
  436000    92.792811    -11866.89   -10937.798     1093.398     102002.7      46.7237      46.7237      46.7237 
  437000    88.674326   -11886.539   -10998.684    997.79487     102002.7      46.7237      46.7237      46.7237 
  438000    88.489713    -11873.84   -10987.833    1146.1049     102002.7      46.7237      46.7237      46.7237 
  439000    91.896918   -11864.017   -10943.895    1041.9684     102002.7      46.7237      46.7237      46.7237 
  440000    90.764095   -11872.579     -10963.8    972.77949     102002.7      46.7237      46.7237      46.7237 
  441000    91.301119    -11868.18   -10954.023     843.0066     102002.7      46.7237      46.7237      46.7237 
  442000    89.838597   -11887.084   -10987.572    942.02594     102002.7      46.7237      46.7237      46.7237 
  443000    89.868424   -11852.955   -10953.143    1051.1881     102002.7      46.7237      46.7237      46.7237 
  444000    90.739825   -11874.014   -10965.478    1072.0141     102002.7      46.7237      46.7237      46.7237 
  445000    93.834045   -11878.359   -10938.842    1031.0007     102002.7      46.7237      46.7237      46.7237 
  446000    92.888058   -11870.642   -10940.597    870.24383     102002.7      46.7237      46.7237      46.7237 
  447000    91.937153   -11880.831   -10960.307    1173.4797     102002.7      46.7237      46.7237      46.7237 
  448000    90.122589   -11894.437    -10992.08    867.90832     102002.7      46.7237      46.7237      46.7237 
  449000    92.299247   -11846.865   -10922.715    979.84012     102002.7      46.7237      46.7237      46.7237 
  450000    91.632139   -11880.628   -10963.158    963.06335     102002.7      46.7237      46.7237      46.7237 
  451000    88.643102   -11891.449   -11003.906    1015.0929     102002.7      46.7237      46.7237      46.7237 
  452000    93.129281   -11875.706   -10943.245    925.63124     102002.7      46.7237      46.7237      46.7237 
  453000    91.519405   -11885.639   -10969.297    1183.2926     102002.7      46.7237      46.7237      46.7237 
  454000    89.934422   -11872.046   -10971.573    908.40725     102002.7      46.7237      46.7237      46.7237 
  455000    89.942654   -11890.264   -10989.709    935.57035     102002.7      46.7237      46.7237      46.7237 
  456000    94.188791   -11869.676   -10926.607    1022.3165     102002.7      46.7237      46.7237      46.7237 
  457000    93.261273   -11885.552    -10951.77    945.91492     102002.7      46.7237      46.7237      46.7237 
  458000    90.622863   -11871.837   -10964.472    894.68492     102002.7      46.7237      46.7237      46.7237 
  459000    90.642115   -11884.798    -10977.24    934.26955     102002.7      46.7237      46.7237      46.7237 
  460000    91.699035   -11854.239   -10936.098    1002.1457     102002.7      46.7237      46.7237      46.7237 
  461000    90.172743   -11869.393   -10966.535    1025.5153     102002.7      46.7237      46.7237      46.7237 
  462000    92.711625   -11852.953   -10924.674    1051.1288     102002.7      46.7237      46.7237      46.7237 
  463000    90.013204   -11859.352   -10958.092    1145.3453     102002.7      46.7237      46.7237      46.7237 
  464000    89.890506   -11891.111   -10991.078    1082.4763     102002.7      46.7237      46.7237      46.7237 
  465000    92.853488   -11834.636   -10904.936    1058.3994     102002.7      46.7237      46.7237      46.7237 
  466000    90.531609    -11881.98   -10975.529    1135.5045     102002.7      46.7237      46.7237      46.7237 
  467000    91.733367   -11885.596   -10967.112    1084.5518     102002.7      46.7237      46.7237      46.7237 
  468000    93.540232   -11873.492   -10936.917    813.32217     102002.7      46.7237      46.7237      46.7237 
  469000    90.721776   -11873.593   -10965.238    953.43568     102002.7      46.7237      46.7237      46.7237 
  470000    92.576024   -11869.863   -10942.942    1323.5982     102002.7      46.7237      46.7237      46.7237 
  471000    90.521574   -11869.561    -10963.21    1111.2537     102002.7      46.7237      46.7237      46.7237 
  472000    92.302694    -11896.66   -10972.476    1042.8483     102002.7      46.7237      46.7237      46.7237 
  473000    92.456189   -11851.756   -10926.035    1032.9706     102002.7      46.7237      46.7237      46.7237 
  474000    91.184522   -11876.199    -10963.21    1006.9735     102002.7      46.7237      46.7237      46.7237 
  475000    90.212919    -11877.18    -10973.92      773.398     102002.7      46.7237      46.7237      46.7237 
  476000    91.072138   -11874.016   -10962.153    842.33434     102002.7      46.7237      46.7237      46.7237 
  477000    90.337233    -11855.16   -10950.655     1167.798     102002.7      46.7237      46.7237      46.7237 
  478000    91.525751   -11889.049   -10972.643    743.63016     102002.7      46.7237      46.7237      46.7237 
  479000    92.549189   -11865.122   -10938.469    1135.5202     102002.7      46.7237      46.7237      46.7237 
  480000    93.121179   -11879.569    -10947.19    1135.3811     102002.7      46.7237      46.7237      46.7237 
  481000    92.970439   -11845.493   -10914.623    1251.7889     102002.7      46.7237      46.7237      46.7237 
  482000    91.291115   -11887.096    -10973.04    1009.4717     102002.7      46.7237      46.7237      46.7237 
  483000     88.39121   -11870.051    -10985.03    754.60852     102002.7      46.7237      46.7237      46.7237 
  484000    91.726571   -11879.285   -10960.869    930.83846     102002.7      46.7237      46.7237      46.7237 
  485000    91.386506   -11857.301    -10942.29    1008.7546     102002.7      46.7237      46.7237      46.7237 
  486000    89.305342   -11875.324    -10981.15    915.11092     102002.7      46.7237      46.7237      46.7237 
  487000    92.233402   -11879.993   -10956.502    1127.4407     102002.7      46.7237      46.7237      46.7237 
  488000    93.177057   -11875.162   -10942.223    1107.2512     102002.7      46.7237      46.7237      46.7237 
  489000    90.552555   -11878.552   -10971.891    1500.0523     102002.7      46.7237      46.7237      46.7237 
  490000    91.024342   -11865.104   -10953.719    1183.8119     102002.7      46.7237      46.7237      46.7237 
  491000    89.430872   -11893.635   -10998.205    1204.9065     102002.7      46.7237      46.7237      46.7237 
  492000    90.003642   -11847.643   -10946.478     1035.537     102002.7      46.7237      46.7237      46.7237 
  493000    92.199872   -11900.296   -10977.141    1103.4957     102002.7      46.7237      46.7237      46.7237 
  494000    90.980544   -11865.701   -10954.754    983.54091     102002.7      46.7237      46.7237      46.7237 
  495000    89.543655   -11885.005   -10988.445     1123.819     102002.7      46.7237      46.7237      46.7237 
  496000    91.729828   -11886.104   -10967.655    949.85303     102002.7      46.7237      46.7237      46.7237 
  497000    89.371915   -11881.983   -10987.143    1114.5144     102002.7      46.7237      46.7237      46.7237 
  498000    91.478734   -11867.312   -10951.377    1070.7772     102002.7      46.7237      46.7237      46.7237 
  499000    89.014968   -11891.571   -11000.305    865.57879     102002.7      46.7237      46.7237      46.7237 
  500000    90.561248   -11884.328    -10977.58    1111.0591     102002.7      46.7237      46.7237      46.7237 
  500500    92.172037   -11893.164   -10970.287    1097.3425     102002.7      46.7237      46.7237      46.7237 
Loop time of 1973.81 on 16 procs for 500000 steps with 3360 atoms

Performance: 21.887 ns/day, 1.097 hours/ns, 253.317 timesteps/s
99.8% CPU use with 16 MPI tasks x no OpenMP threads

MPI task timing breakdown:
Section |  min time  |  avg time  |  max time  |%varavg| %total
---------------------------------------------------------------
Pair    | 809.57     | 1236       | 1543.8     | 551.8 | 62.62
Bond    | 118.16     | 175.02     | 215.82     | 208.6 |  8.87
Neigh   | 15.334     | 15.365     | 15.401     |   0.5 |  0.78
Comm    | 182.8      | 529.26     | 1011.2     | 925.5 | 26.81
Output  | 0.02197    | 0.022668   | 0.027265   |   0.8 |  0.00
Modify  | 8.9081     | 10.993     | 13.31      |  53.2 |  0.56
Other   |            | 7.109      |            |       |  0.36

Nlocal:    210 ave 248 max 180 min
Histogram: 2 3 1 2 0 2 2 3 0 1
Nghost:    4215.06 ave 4242 max 4170 min
Histogram: 1 1 1 1 1 1 3 2 2 3
Neighs:    11453.2 ave 15668 max 5852 min
Histogram: 2 0 3 0 1 0 4 2 2 2

Total # of neighbors = 183251
Ave neighs/atom = 54.539
Ave special neighs/atom = 3.42857
Neighbor list builds = 4027
Dangerous builds = 0
Neighbor list info ...
  update every 1 steps, delay 10 steps, check yes
  max neighbors/atom: 2000, page size: 100000
  master list distance cutoff = 16
  ghost atom cutoff = 16
  binsize = 8, bins = 6 6 6
  3 neighbor lists, perpetual/occasional/extra = 3 0 0
  (1) pair buck6d/coul/gauss/dsf, perpetual, skip from (3)
      attributes: half, newton on
      pair build: skip
      stencil: none
      bin: none
  (2) pair lj/cut, perpetual, skip from (3)
      attributes: half, newton on
      pair build: skip
      stencil: none
      bin: none
  (3) neighbor class addition, perpetual
      attributes: half, newton on
      pair build: half/bin/newton
      stencil: half/bin/3d/newton
      bin: standard
Setting up Verlet run ...
  Unit style    : real
  Current step  : 500500
  Time step     : 1
WARNING: Inconsistent image flags (../domain.cpp:786)
Per MPI rank memory allocation (min/avg/max) = 22.8 | 23.25 | 23.45 Mbytes
Step Time TotEng KinEng PotEng E_mol E_pair Temp Pxx Pyy Pzz Pxy Pxz Pyz Cella Cellb Cellc CellAlpha CellBeta CellGamma Volume Press 
  500500       500000   -10970.287     922.8763   -11893.164    4130.1284   -16023.292    92.172037    1142.5996    1061.1315    1088.2965   -65.680519   -47.374646   -152.29274      46.7237      46.7237      46.7237           90           90           90     102002.7    1097.3425 
  501000       500500   -10973.259    917.80733   -11891.066    4134.1231   -16025.189    91.665776    985.86556    1010.8803    944.99556    7.8295287     189.4354    153.89582      46.7237      46.7237      46.7237           90           90           90     102002.7    980.58048 
  502000       501500   -10942.917    944.95542   -11887.872    4137.2338   -16025.106    94.377184     901.8414    923.54708    598.68076   -134.34165   -76.423573    218.27245      46.7237      46.7237      46.7237           90           90           90     102002.7    808.02308 
  503000       502500   -10991.445    894.41607   -11885.861    4147.6079   -16033.469    89.329579    975.03775    1202.9572    1376.2653   -197.84024   -130.12961   -47.527287      46.7237      46.7237      46.7237           90           90           90     102002.7    1184.7534 
  504000       503500    -10977.94    900.56653   -11878.506    4138.8215   -16017.328    89.943855    1125.4765    1037.9499    1421.1873    122.23585   -145.62947    21.349543      46.7237      46.7237      46.7237           90           90           90     102002.7    1194.8712 
  505000       504500   -10965.929    912.02924   -11877.958    4148.6495   -16026.607     91.08869    829.63051    889.81306    802.80657   -181.22995   -165.56373    69.004328      46.7237      46.7237      46.7237           90           90           90     102002.7    840.75005 
  506000       505500   -10939.106    934.77958   -11873.885    4152.6483   -16026.534    93.360874    1375.8511    1297.2254    1238.9155   -5.0765313    83.835846    58.713692      46.7237      46.7237      46.7237           90           90           90     102002.7    1303.9973 
  507000       506500   -10966.937     914.6582   -11881.595    4167.1377   -16048.733    91.351256    762.41425    1314.1893    770.44844   -40.653727    27.914556   -105.97656      46.7237      46.7237      46.7237           90           90           90     102002.7    949.01733 
  508000       507500   -10953.795    905.69406   -11859.489    4154.7518   -16014.241    90.455965     1149.673    1050.1074    460.52754    217.92804    169.93511   -119.85028      46.7237      46.7237      46.7237           90           90           90     102002.7    886.76929 
  509000       508500   -11002.511    905.61376   -11908.125    4135.5756     -16043.7    90.447946    1108.5153    1286.1976    1611.0586   -74.484732    178.59618   -121.18116      46.7237      46.7237      46.7237           90           90           90     102002.7    1335.2572 
  510000       509500   -10942.695    931.67122   -11874.366    4146.1217   -16020.488    93.050428    726.37391    962.06171    771.38994   -128.85468     189.1389   -219.05236      46.7237      46.7237      46.7237           90           90           90     102002.7    819.94185 
  511000       510500   -10973.449    907.01489   -11880.464    4152.2307   -16032.695    90.587883    502.34326    1252.0723    1232.5252   -37.621613    31.619281    78.602997      46.7237      46.7237      46.7237           90           90           90     102002.7    995.64694 
  512000       511500   -10960.048    912.79658   -11872.845    4158.5684   -16031.413    91.165328    1008.7401    943.50439    1145.6021    65.953847    14.535097    63.442592      46.7237      46.7237      46.7237           90           90           90     102002.7    1032.6155 
  513000       512500   -10953.678    917.35327   -11871.031    4162.3432   -16033.375    91.620426     697.1132    491.05467    1056.5574   -183.77282   -121.33164   -49.371863      46.7237      46.7237      46.7237           90           90           90     102002.7    748.24176 
  514000       513500   -10984.086    907.42637   -11891.513    4137.9429   -16029.455     90.62898    935.81613    900.64645    991.03502    46.696169   -43.301603     85.85323      46.7237      46.7237      46.7237           90           90           90     102002.7     942.4992 
  515000       514500   -10984.786    911.12633   -11895.913    4141.5588   -16037.472    90.998512    1238.8644    781.99779    922.87681   -143.12518   -176.45892   -54.906599      46.7237      46.7237      46.7237           90           90           90     102002.7    981.24633 
  516000       515500   -10962.817    919.73085   -11882.548    4150.3399   -16032.888    91.857887    1270.7513     770.3411    799.33892    137.42679    51.075157    173.73689      46.7237      46.7237      46.7237           90           90           90     102002.7    946.81044 
  517000       516500   -10955.052    921.34587   -11876.398    4143.6395   -16020.037    92.019187     1425.243     491.0319    1035.7613   -48.103425   -190.59246   -172.54893      46.7237      46.7237      46.7237           90           90           90     102002.7    984.01207 
  518000       517500   -10980.099    904.47366   -11884.572     4137.793   -16022.365    90.334079    1195.5856    1183.4157    1387.0792   -75.276638    81.572086    245.88327      46.7237      46.7237      46.7237           90           90           90     102002.7    1255.3602 
  519000       518500    -10966.66    905.80614   -11872.466    4153.3499   -16025.816     90.46716    860.22916    803.21601     699.7965    185.25678    240.78643     56.91395      46.7237      46.7237      46.7237           90           90           90     102002.7    787.74722 
  520000       519500    -10973.56    900.49467   -11874.055    4148.3173   -16022.372    89.936678    1011.5072    949.28732    978.50052   -106.76755     240.8069    -14.47165      46.7237      46.7237      46.7237           90           90           90     102002.7      979.765 
  521000       520500   -10971.136    896.05373   -11867.189    4150.8469   -16018.036     89.49314    927.01362    1203.8648    1175.3579   -35.155065    42.869978   -14.695114      46.7237      46.7237      46.7237           90           90           90     102002.7    1102.0788 
  522000       521500   -10968.969    916.55047    -11885.52    4141.7213   -16027.241    91.540247    849.34425    844.70127    1011.1116   -156.22481   -169.47705   -121.78961      46.7237      46.7237      46.7237           90           90           90     102002.7    901.71903 
  523000       522500    -10968.42    924.41576   -11892.836    4141.0379   -16033.874    92.325791    1108.4182    982.32833    1329.4087    48.498433   -224.21551    345.34476      46.7237      46.7237      46.7237           90           90           90     102002.7    1140.0517 
  524000       523500   -10933.502    925.93338   -11859.435    4152.5828   -16012.018    92.477362    1211.2393    1040.6539    1341.2412    89.440684    199.61076    62.937702      46.7237      46.7237      46.7237           90           90           90     102002.7    1197.7115 
  525000       524500   -10983.184    886.77868   -11869.963    4146.8831   -16016.846    88.566797    1119.8506    979.37268    1399.2403    77.198203    118.48964   -208.45348      46.7237      46.7237      46.7237           90           90           90     102002.7    1166.1545 
  526000       525500   -10984.069      907.613   -11891.682    4150.1808   -16041.863    90.647619    1061.1068    1233.9771    1052.5412  -0.65676487   -244.81378    202.28428      46.7237      46.7237      46.7237           90           90           90     102002.7     1115.875 
  527000       526500   -10972.936    907.87364    -11880.81    4174.1976   -16055.008    90.673651    685.85633    952.02226    871.26636     118.4743   -276.09525   -81.900035      46.7237      46.7237      46.7237           90           90           90     102002.7    836.38165 
  528000       527500   -10972.347    914.32276    -11886.67    4151.1458   -16037.815    91.317755    534.64294    909.58179    771.66685   -10.511032   0.42294858    16.943096      46.7237      46.7237      46.7237           90           90           90     102002.7    738.63053 
  529000       528500   -10962.948    909.47433   -11872.422    4142.9523   -16015.374    90.833519    1105.4293    978.78864    797.26996    130.61859   -23.962465     142.1082      46.7237      46.7237      46.7237           90           90           90     102002.7    960.49595 
  530000       529500   -10958.486    922.37823   -11880.864     4153.243   -16034.107    92.122293    1066.5629    1124.4789    1055.7762   -106.99933    109.25659   -13.974673      46.7237      46.7237      46.7237           90           90           90     102002.7    1082.2727 
  531000       530500   -10935.535    934.22437    -11869.76    4144.9523   -16014.712    93.305423    789.56439     777.3637    855.03809   -132.22814   -138.14368   -176.21785      46.7237      46.7237      46.7237           90           90           90     102002.7    807.32206 
  532000       531500   -10959.714    924.01393   -11883.728    4128.7409   -16012.469    92.285658    1049.8105    807.50998    1169.7056    34.991256   -350.44981    112.11752      46.7237      46.7237      46.7237           90           90           90     102002.7    1009.0087 
  533000       532500   -10950.203    919.88846   -11870.091    4141.5513   -16011.643    91.873628    972.27019    1620.2377    941.73838    199.18464   -31.851964    -178.5419      46.7237      46.7237      46.7237           90           90           90     102002.7    1178.0821 
  534000       533500   -10978.107    897.98797   -11876.095    4138.7187   -16014.813    89.686321    862.68409    857.86866    904.03085    159.48797    -159.2031   -13.338329      46.7237      46.7237      46.7237           90           90           90     102002.7     874.8612 
  535000       534500   -10996.333    894.38332   -11890.716    4150.9482   -16041.664    89.326308    1244.1887    1177.4144    1125.9627    17.729622   -98.200777    118.89332      46.7237      46.7237      46.7237           90           90           90     102002.7    1182.5219 
  536000       535500   -10951.492    922.54362   -11874.036     4154.876   -16028.912    92.138811    926.51616    1045.3092    1311.4142   -39.343171   -136.25208     288.4801      46.7237      46.7237      46.7237           90           90           90     102002.7    1094.4132 
  537000       536500   -10983.023    904.37706     -11887.4    4161.3068   -16048.707     90.32443    661.77943     436.1455    1320.7786   -83.322576    3.5097907   -56.036368      46.7237      46.7237      46.7237           90           90           90     102002.7     806.2345 
  538000       537500   -10968.492     914.9257   -11883.417    4168.7291   -16052.147    91.377973       1042.9    1291.8715     889.3375    193.59171    50.774256    170.99978      46.7237      46.7237      46.7237           90           90           90     102002.7     1074.703 
  539000       538500   -10960.052     895.9948   -11856.046    4171.8183   -16027.865    89.487255    1067.1019    842.50374     1076.435   -46.210954   -46.723894   -39.328896      46.7237      46.7237      46.7237           90           90           90     102002.7    995.34689 
  540000       539500   -10986.147    897.29637   -11883.444    4153.6286   -16037.072    89.617248     616.4441    700.40287     566.7243   -80.963886     74.92916   -43.745706      46.7237      46.7237      46.7237           90           90           90     102002.7    627.85709 
  541000       540500   -10977.236    889.66594   -11866.902    4166.2409   -16033.143    88.855161    1316.7742    1006.5347    1026.7349   -200.51772   -117.30887    49.976861      46.7237      46.7237      46.7237           90           90           90     102002.7    1116.6813 
  542000       541500   -10988.338    895.33809   -11883.676    4137.0938    -16020.77    89.421666    1023.9075    1063.1058    1170.0146   -181.07681   -254.20889   -293.19509      46.7237      46.7237      46.7237           90           90           90     102002.7     1085.676 
  543000       542500   -10977.761    915.85425   -11893.615    4140.5399   -16034.155    91.470712    840.88301    1074.9678    931.92717   -27.617505   -279.64054    59.459372      46.7237      46.7237      46.7237           90           90           90     102002.7    949.25934 
  544000       543500    -10944.51    921.20288   -11865.713    4159.7371    -16025.45    92.004905    1256.0413    932.33417    1033.2112   -37.827911    59.634747   -207.48239      46.7237      46.7237      46.7237           90           90           90     102002.7    1073.8622 
  545000       544500   -10967.464    918.55645    -11886.02    4144.3739   -16030.394    91.740593     743.8573    1150.1856    1112.3323    80.572544   -97.296814    29.195199      46.7237      46.7237      46.7237           90           90           90     102002.7    1002.1251 
  546000       545500   -10948.473    910.18655   -11858.659    4165.4026   -16024.062    90.904651     968.7535    1460.8977     1372.846   -9.5025083     215.4818    69.907194      46.7237      46.7237      46.7237           90           90           90     102002.7    1267.4991 
  547000       546500   -10971.557    916.15712   -11887.714    4144.7317   -16032.445    91.500961    911.61147     1024.926    1539.2085    4.9513268    107.86694   -189.11927      46.7237      46.7237      46.7237           90           90           90     102002.7     1158.582 
  548000       547500   -10992.476    899.33141   -11891.807    4145.3279   -16037.135    89.820498    652.41768    1133.3045    718.02754    37.532566   -8.7896951    156.03018      46.7237      46.7237      46.7237           90           90           90     102002.7    834.58323 
  549000       548500   -10933.783    927.54563   -11861.328    4156.1219    -16017.45    92.638385    1042.8066    993.75725    846.04183    127.79657   -173.28123    288.42402      46.7237      46.7237      46.7237           90           90           90     102002.7    960.86855 
  550000       549500   -10977.843    893.87917   -11871.723    4144.2511   -16015.974    89.275957    831.29069    1176.1658    1190.6602    258.36764    259.41398    50.317956      46.7237      46.7237      46.7237           90           90           90     102002.7    1066.0389 
  551000       550500   -10967.229    899.59275   -11866.821    4162.5846   -16029.406    89.846598    986.27778    1458.9888    1143.9728    95.277163   -52.684313   -57.472241      46.7237      46.7237      46.7237           90           90           90     102002.7    1196.4131 
  552000       551500   -11021.329    887.25755   -11908.587    4142.3006   -16050.887    88.614624    932.65325    1144.0564    705.49649   -93.034668    42.930767     95.58657      46.7237      46.7237      46.7237           90           90           90     102002.7    927.40204 
  553000       552500   -10938.213    935.83432   -11874.047    4161.3413   -16035.388    93.466216    777.89121    880.81717    1507.1307   -200.30975   -148.65454    72.546091      46.7237      46.7237      46.7237           90           90           90     102002.7    1055.2797 
  554000       553500   -10967.046    903.52482    -11870.57    4163.4962   -16034.067    90.239314    1086.6295    781.20696    954.89557   -72.587573   -145.39937    123.86584      46.7237      46.7237      46.7237           90           90           90     102002.7    940.91067 
  555000       554500   -10932.244    920.29356   -11852.537    4158.9448   -16011.482    91.914087    731.81229    774.67851    1018.1388   -128.14581   -12.608574    163.35862      46.7237      46.7237      46.7237           90           90           90     102002.7    841.54318 
[...]
  936000       935500   -10981.535    911.62477    -11893.16    4149.3891   -16042.549    91.048293    596.63567    788.25749    890.27563    13.150877   -13.882381    133.34781      46.7237      46.7237      46.7237           90           90           90     102002.7    758.38959 
  937000       936500   -10966.311    912.11494   -11878.426    4170.7348   -16049.161    91.097249    682.04592    577.53279    441.76675    25.202818   -314.12884    124.25073      46.7237      46.7237      46.7237           90           90           90     102002.7    567.11515 
  938000       937500   -10986.241    908.39717   -11894.638    4159.2244   -16053.863    90.725938    1111.4868    788.56091    1161.9863    271.26208     -31.8037    128.07323      46.7237      46.7237      46.7237           90           90           90     102002.7     1020.678 
  939000       938500   -10948.431    919.01341   -11867.444    4160.3758    -16027.82    91.786232    1116.0688     1431.931    1026.1979    110.07034    264.92549   -143.19218      46.7237      46.7237      46.7237           90           90           90     102002.7    1191.3992 
  940000       939500   -10979.427    918.63507   -11898.062    4133.4578    -16031.52    91.748445    1259.6954    967.74077    1302.5578   -14.553234    158.41117   -86.503289      46.7237      46.7237      46.7237           90           90           90     102002.7    1176.6646 
  941000       940500   -10956.203    909.30418   -11865.507    4147.7294   -16013.237    90.816525    1109.7334    933.96346     1479.955   -190.39992   -36.637777    20.837427      46.7237      46.7237      46.7237           90           90           90     102002.7    1174.5506 
  942000       941500    -10983.22    897.22838   -11880.449    4151.3484   -16031.797    89.610458    1027.7897     804.3149    1333.5831    115.89087   -427.02506    5.8675152      46.7237      46.7237      46.7237           90           90           90     102002.7    1055.2292 
  943000       942500   -10955.189    906.29185   -11861.481    4159.5529   -16021.034    90.515669    1214.8397    819.17017    875.57656     55.69887   -14.865771   -30.210969      46.7237      46.7237      46.7237           90           90           90     102002.7    969.86213 
  944000       943500   -10998.593    899.95003   -11898.543    4158.5708   -16057.114    89.882282     987.2167    1211.7454    1626.5342    -116.7317    36.198835   -130.26508      46.7237      46.7237      46.7237           90           90           90     102002.7    1275.1654 
  945000       944500   -10973.077    921.87704   -11894.954    4136.0395   -16030.994    92.072237    914.44236    1052.4116    1287.7626    6.3860884    72.110675   -2.3188848      46.7237      46.7237      46.7237           90           90           90     102002.7    1084.8722 
  946000       945500   -10956.731    908.20783   -11864.938    4165.6092   -16030.548    90.707028    1012.5688    1425.3028    897.08249   -167.58324    211.83755   -146.23285      46.7237      46.7237      46.7237           90           90           90     102002.7    1111.6514 
  947000       946500   -11010.555    885.80468    -11896.36    4149.9367   -16046.296    88.469519    1002.4387    1052.1732    1291.2025    128.88323    8.8683635    86.016606      46.7237      46.7237      46.7237           90           90           90     102002.7    1115.2715 
  948000       947500   -10920.708    935.42031   -11856.128    4171.8685   -16027.997    93.424868    857.42596    1027.5996     913.3408   -129.17151   -25.518801   -133.46484      46.7237      46.7237      46.7237           90           90           90     102002.7     932.7888 
  949000       948500    -10982.91    901.87092   -11884.781    4165.3382    -16050.12    90.074131    865.47272    1143.2257    929.62409   -49.839467    -83.81782   -164.63661      46.7237      46.7237      46.7237           90           90           90     102002.7    979.44084 
  950000       949500   -10970.161     902.0401   -11872.201    4158.8785    -16031.08    90.091027    982.49496    991.12968    1312.3829   -77.991372    120.85893     152.3118      46.7237      46.7237      46.7237           90           90           90     102002.7    1095.3359 
  951000       950500   -10958.181    913.25929    -11871.44    4169.0996    -16040.54    91.211541    1138.3247     917.1642    857.90807   -117.44743   -344.97767    -44.59056      46.7237      46.7237      46.7237           90           90           90     102002.7    971.13232 
  952000       951500   -10984.477    898.72771   -11883.205    4146.9445   -16030.149    89.760203    1145.8336    801.72224    1287.2687   -18.674551   -94.185818    179.81185      46.7237      46.7237      46.7237           90           90           90     102002.7    1078.2748 
  953000       952500   -10983.613    899.71218   -11883.325    4154.3623   -16037.687    89.858527    913.15649    704.32958    1080.7401    50.057055    84.288714   -53.242834      46.7237      46.7237      46.7237           90           90           90     102002.7    899.40873 
  954000       953500   -10958.165    915.51754   -11873.683    4161.7761   -16035.459    91.437083    1189.3709     787.5058    1041.8779    -163.9953    -49.55967     118.0495      46.7237      46.7237      46.7237           90           90           90     102002.7    1006.2515 
  955000       954500   -10984.547    911.92518   -11896.472    4134.0524   -16030.525    91.078297    1029.2934    1159.4513    816.95579       91.778    162.65135    5.9225094      46.7237      46.7237      46.7237           90           90           90     102002.7    1001.9001 
  956000       955500   -11002.742    883.35976   -11886.102    4146.5775   -16032.679    88.225333    813.53824    607.61504    1122.6406   -8.2106831    139.44446   -101.37142      46.7237      46.7237      46.7237           90           90           90     102002.7    847.93131 
  957000       956500   -10966.473    902.95011   -11869.423    4148.9012   -16018.324    90.181915    830.64069     621.1098    556.40482    361.24801    9.0780179    130.43321      46.7237      46.7237      46.7237           90           90           90     102002.7     669.3851 
  958000       957500   -10958.213    920.56917   -11878.782    4140.4795   -16019.262    91.941613    881.26278    815.05508     1172.799    44.873831   -146.98873    3.7390388      46.7237      46.7237      46.7237           90           90           90     102002.7     956.3723 
  959000       958500   -10983.852    908.14345   -11891.995    4141.0735   -16033.069    90.700598    522.56242    1083.4609    1059.0017   -30.833053   -42.670345   -8.5768394      46.7237      46.7237      46.7237           90           90           90     102002.7    888.34167 
  960000       959500   -10951.416    920.70341   -11872.119    4176.9463   -16049.066     91.95502    635.71257    910.19416    1075.3773    38.973084   -422.05482    -108.5801      46.7237      46.7237      46.7237           90           90           90     102002.7    873.76133 
  961000       960500   -10958.954    918.70801   -11877.662    4143.5352   -16021.198     91.75573    489.16523    1153.0626    934.64319    259.60312   -128.56967    114.73546      46.7237      46.7237      46.7237           90           90           90     102002.7    858.95701 
  962000       961500    -10955.71    919.91777   -11875.627    4162.5003   -16038.128    91.876555    779.43335    1001.8571    715.91099   -39.697153   -76.914108    288.82938      46.7237      46.7237      46.7237           90           90           90     102002.7    832.40049 
  963000       962500    -10982.91    908.47301   -11891.383    4147.2814   -16038.665    90.733512     368.3481    1204.4284    819.62071    154.76433   -33.254253    152.64064      46.7237      46.7237      46.7237           90           90           90     102002.7    797.46575 
  964000       963500   -10989.716    886.21951   -11875.935     4158.654   -16034.589     88.51095    959.09685    1382.1063    593.44412    185.17589   -101.09689    3.0523352      46.7237      46.7237      46.7237           90           90           90     102002.7    978.21574 
  965000       964500   -10968.127    907.12926   -11875.257    4160.1695   -16035.426    90.599306    1171.0268    742.55155    1218.2642    21.300757   -117.43697    18.228262      46.7237      46.7237      46.7237           90           90           90     102002.7    1043.9475 
  966000       965500   -10987.087     916.2253   -11903.312    4143.9397   -16047.252    91.507771    735.39746    875.53168     1130.234   -132.56677    8.8383619   -273.17444      46.7237      46.7237      46.7237           90           90           90     102002.7    913.72104 
  967000       966500   -10979.775     917.8875   -11897.663    4143.0556   -16040.718    91.673783    572.90916     878.1713    1301.0957   -7.7835119    126.27353    204.06303      46.7237      46.7237      46.7237           90           90           90     102002.7    917.39204 
  968000       967500    -11003.73    916.48033    -11920.21    4132.5091   -16052.719    91.533242     954.1647    647.10783    820.23226    186.54309     88.46871    133.54271      46.7237      46.7237      46.7237           90           90           90     102002.7    807.16826 
  969000       968500   -10974.205    915.77866   -11889.984    4148.9692   -16038.953    91.463163    943.03622    960.47972    995.80004    192.32162    66.760032   -70.717383      46.7237      46.7237      46.7237           90           90           90     102002.7    966.43866 
  970000       969500   -10965.193    919.43201   -11884.625    4146.7918   -16031.417     91.82804    1099.9594    951.23603    776.64017   -76.968844   -85.065472    2.8859554      46.7237      46.7237      46.7237           90           90           90     102002.7    942.61187 
  971000       970500   -10960.092    923.68548   -11883.777    4151.1496   -16034.927    92.252854    987.36058    905.73718    1121.3887   -72.562465    139.20397   -160.09168      46.7237      46.7237      46.7237           90           90           90     102002.7    1004.8288 
  972000       971500   -10958.262    913.48384   -11871.745    4167.1197   -16038.865    91.233968    906.23766     1435.036    1170.3128   -190.60984      67.7966   -73.340152      46.7237      46.7237      46.7237           90           90           90     102002.7    1170.5288 
  973000       972500   -11006.335    879.74079   -11886.075    4160.9089   -16046.984    87.863889    668.03889    954.46876    980.51582   -28.149875   -99.410111    155.09297      46.7237      46.7237      46.7237           90           90           90     102002.7    867.67449 
  974000       973500   -10992.513    891.90099   -11884.414    4151.1299   -16035.544    89.078386    225.73187    1311.2558    544.74625   -40.055874   -65.605583    107.52025      46.7237      46.7237      46.7237           90           90           90     102002.7    693.91131 
  975000       974500   -10960.427    926.69825   -11887.126    4146.7522   -16033.878    92.553753    1021.2497    808.31444    817.56705     102.7601    40.533238   -214.41088      46.7237      46.7237      46.7237           90           90           90     102002.7    882.37708 
  976000       975500   -10969.145    919.58073   -11888.726    4133.7708   -16022.496    91.842893    1296.0087    1053.2182    999.56154   -79.506914   -144.68828   -124.40406      46.7237      46.7237      46.7237           90           90           90     102002.7    1116.2628 
  977000       976500   -10943.618    924.80601   -11868.424    4183.6622   -16052.086    92.364767    659.83946    961.86556    842.83213   -84.767801     -213.632   -7.3810072      46.7237      46.7237      46.7237           90           90           90     102002.7    821.51238 
  978000       977500   -10994.975     882.2228   -11877.198    4175.1486   -16052.347    88.111779    641.58557    1249.3115     578.9452    55.663874   -178.09792   -124.07931      46.7237      46.7237      46.7237           90           90           90     102002.7    823.28076 
  979000       978500   -10963.535    913.16408   -11876.699    4144.9238   -16021.623    91.202032    617.45336    1117.2343    1112.2693   -108.91305    -74.54359    259.55161      46.7237      46.7237      46.7237           90           90           90     102002.7    948.98567 
  980000       979500   -10967.831    901.13278   -11868.964    4154.2031   -16023.167    90.000409    973.40065    1057.9486    1244.0701   -42.839483    -3.825136    104.70169      46.7237      46.7237      46.7237           90           90           90     102002.7    1091.8064 
  981000       980500   -10964.393    917.80761   -11882.201    4149.0305   -16031.232    91.665803    939.59824    1114.5363     1234.261   -123.84096    276.68582   -108.42878      46.7237      46.7237      46.7237           90           90           90     102002.7    1096.1319 
  982000       981500   -10964.112    897.43742    -11861.55    4167.5565   -16029.106    89.631335     995.2478    823.99408    1184.0475    188.51914   -121.25902   -8.5346939      46.7237      46.7237      46.7237           90           90           90     102002.7    1001.0965 
  983000       982500   -10938.899    933.39703   -11872.296    4146.4535    -16018.75    93.222792    1300.2672    1035.9942     1461.104   -129.02055   -105.26902    -2.365181      46.7237      46.7237      46.7237           90           90           90     102002.7    1265.7885 
  984000       983500   -10964.149      903.301    -11867.45    4154.9764   -16022.426    90.216959    902.14407    834.08749    850.89903     73.09976    136.83747   -24.981691      46.7237      46.7237      46.7237           90           90           90     102002.7    862.37686 
  985000       984500   -10966.708    910.26691   -11876.975    4158.4154    -16035.39    90.912678    1120.9314    996.17961    877.70412    86.985185    21.512883    23.897728      46.7237      46.7237      46.7237           90           90           90     102002.7    998.27172 
  986000       985500   -10958.166    921.43446   -11879.601    4178.6557   -16058.256    92.028034    1203.4035    1098.6414    872.94549    38.712043    102.81282    10.700903      46.7237      46.7237      46.7237           90           90           90     102002.7    1058.3301 
  987000       986500   -10939.097    920.07225   -11859.169     4178.983   -16038.152    91.891983    911.44127    1013.7913     1374.747   -186.86316   -18.689499   -83.439471      46.7237      46.7237      46.7237           90           90           90     102002.7    1099.9932 
  988000       987500   -10944.633    931.18722    -11875.82    4154.0084   -16029.828    93.002089    1251.7867    859.36264    1178.4127   -102.24335    272.35883    112.60541      46.7237      46.7237      46.7237           90           90           90     102002.7    1096.5207 
  989000       988500   -10964.033    916.07092   -11880.104    4165.3336   -16045.438    91.492352    736.07948    911.66992    969.98455    179.78164    133.49027   -172.37063      46.7237      46.7237      46.7237           90           90           90     102002.7    872.57798 
  990000       989500   -10999.184    899.19091   -11898.375    4155.0505   -16053.425    89.806465    850.19369    816.53421    424.66761    147.88222   -102.28345   -65.851166      46.7237      46.7237      46.7237           90           90           90     102002.7    697.13184 
  991000       990500   -10932.657    935.10981   -11867.766    4190.0003   -16057.767    93.393856    819.13125    737.56849    599.80248   -185.67498    68.228439    92.063702      46.7237      46.7237      46.7237           90           90           90     102002.7    718.83407 
  992000       991500    -10965.62    911.25175   -11876.871    4164.4581    -16041.33    91.011039    627.07823    1067.6906    1126.6742   -165.70425    162.59309   -12.258345      46.7237      46.7237      46.7237           90           90           90     102002.7    940.48099 
  993000       992500    -10995.77    879.41832   -11875.189    4159.6742   -16034.863    87.831682    622.75549    410.61477    628.41328   -231.11683   -101.68416    169.66087      46.7237      46.7237      46.7237           90           90           90     102002.7    553.92785 
  994000       993500     -10952.5    920.27615   -11872.776    4160.8651   -16033.641    91.912348    1040.7084    1003.5674    1279.6469     45.17559    72.068716    77.084829      46.7237      46.7237      46.7237           90           90           90     102002.7    1107.9742 
  995000       994500    -10986.78    900.71277   -11887.493    4162.9069     -16050.4     89.95846    690.11239    1248.2063    1109.0716   -98.171081    51.328191    269.63055      46.7237      46.7237      46.7237           90           90           90     102002.7    1015.7968 
  996000       995500   -10955.855    926.38959   -11882.244    4149.9523   -16032.196    92.522927    1162.4083    1192.1725    869.37448   -95.686764    82.654889   -12.693377      46.7237      46.7237      46.7237           90           90           90     102002.7    1074.6518 
  997000       996500   -10972.042    901.63163   -11873.674    4163.1813   -16036.855    90.050232    686.86044    1202.7318    1171.0697   -95.945048    159.69524   -69.432183      46.7237      46.7237      46.7237           90           90           90     102002.7    1020.2206 
  998000       997500   -10970.016    921.89714   -11891.913    4140.6472    -16032.56    92.074244     1153.216    1114.6848    1022.8031    74.147491   -55.971556   -40.609714      46.7237      46.7237      46.7237           90           90           90     102002.7    1096.9013 
  999000       998500   -10957.129    908.81848   -11865.948    4165.5028   -16031.451    90.768016     1136.165    1165.8119    1021.0919   -121.68885    25.500836      152.388      46.7237      46.7237      46.7237           90           90           90     102002.7    1107.6896 
 1000000       999500   -10974.959    919.43244   -11894.391    4151.9169   -16046.308    91.828083    487.60225    927.28767    1093.0829    48.122051    153.99869   -195.16575      46.7237      46.7237      46.7237           90           90           90     102002.7    835.99093 
 1000500      1000000   -11000.314    900.50484   -11900.819    4159.3355   -16060.154    89.937693    1029.1677    890.06983    896.50523   -244.24671    68.826091   -168.26827      46.7237      46.7237      46.7237           90           90           90     102002.7    938.58093 
Loop time of 2394.7 on 16 procs for 500000 steps with 3360 atoms

Performance: 18.040 ns/day, 1.330 hours/ns, 208.794 timesteps/s
99.8% CPU use with 16 MPI tasks x no OpenMP threads

MPI task timing breakdown:
Section |  min time  |  avg time  |  max time  |%varavg| %total
---------------------------------------------------------------
Pair    | 1030.3     | 1572       | 1910.9     | 610.7 | 65.64
Bond    | 108.45     | 184.39     | 232.52     | 247.2 |  7.70
Neigh   | 15.171     | 15.2       | 15.239     |   0.6 |  0.63
Comm    | 217.35     | 590.32     | 1206.5     |1102.1 | 24.65
Output  | 0.13621    | 0.14244    | 0.14313    |   0.4 |  0.01
Modify  | 23.564     | 25.561     | 27.782     |  34.9 |  1.07
Other   |            | 7.104      |            |       |  0.30

Nlocal:    210 ave 241 max 171 min
Histogram: 1 1 1 0 4 2 2 2 0 3
Nghost:    4219.88 ave 4256 max 4187 min
Histogram: 2 1 2 0 3 3 2 1 1 1
Neighs:    11461.5 ave 17549 max 5375 min
Histogram: 2 0 0 5 1 4 2 0 0 2

Total # of neighbors = 183384
Ave neighs/atom = 54.5786
Ave special neighs/atom = 3.42857
Neighbor list builds = 4004
Dangerous builds = 0
Total wall time: 1:12:53
