LAMMPS (30 Mar 2018)
Reading data file ...
  orthogonal box = (0 0 0) to (46.7237 46.7237 46.7237)
  2 by 3 by 4 MPI processor grid
  reading atoms ...
  1745 atoms
  scanning bonds ...
  5 = max bonds/atom
  scanning angles ...
  10 = max angles/atom
  scanning dihedrals ...
  32 = max dihedrals/atom
  scanning impropers ...
  3 = max impropers/atom
  reading bonds ...
  2064 bonds
  reading angles ...
  3696 angles
  reading dihedrals ...
  6240 dihedrals
  reading impropers ...
  1008 impropers
Finding 1-2 1-3 1-4 neighbors ...
  special bond factors lj:   0          0          0         
  special bond factors coul: 0          0          0         
  5 = max # of 1-2 neighbors
  8 = max # of 1-3 neighbors
  20 = max # of 1-4 neighbors
  19 = max # of special neighbors
Finding 1-2 1-3 1-4 neighbors ...
  special bond factors lj:   0          0          1         
  special bond factors coul: 1          1          1         
  5 = max # of 1-2 neighbors
  8 = max # of 1-3 neighbors
  19 = max # of special neighbors
WARNING: Using 'neigh_modify every 1 delay 0 check yes' setting during minimization (../min.cpp:168)
Neighbor list info ...
  update every 1 steps, delay 0 steps, check yes
  max neighbors/atom: 2000, page size: 100000
  master list distance cutoff = 16
  ghost atom cutoff = 16
  binsize = 8, bins = 6 6 6
  3 neighbor lists, perpetual/occasional/extra = 3 0 0
  (1) pair buck6d/coul/gauss/dsf, perpetual, skip from (3)
      attributes: half, newton on
      pair build: skip
      stencil: none
      bin: none
  (2) pair lj/cut, perpetual, skip from (3)
      attributes: half, newton on
      pair build: skip
      stencil: none
      bin: none
  (3) neighbor class addition, perpetual
      attributes: half, newton on
      pair build: half/bin/newton
      stencil: half/bin/3d/newton
      bin: standard
Setting up cg style minimization ...
  Unit style    : real
  Current step  : 0
WARNING: Inconsistent image flags (../domain.cpp:786)
Per MPI rank memory allocation (min/avg/max) = 22.87 | 23.28 | 24.42 Mbytes
Step Temp E_pair E_mol TotEng Press 
       0            0    -11561.97    6482.8914   -5079.0789    6267.1536 
     505            0   -11589.902    3737.2427   -7852.6592   -491.26886 
Loop time of 1.22584 on 24 procs for 505 steps with 1745 atoms

99.9% CPU use with 24 MPI tasks x no OpenMP threads

Minimization stats:
  Stopping criterion = max force evaluations
  Energy initial, next-to-last, final = 
        -5079.07894372     -7852.64545994     -7852.65915714
  Force two-norm initial, final = 2576.92 5.53824
  Force max component initial, final = 152.037 1.1838
  Final line search alpha, max atom move = 0.00745785 0.00882858
  Iterations, force evaluations = 505 1001

MPI task timing breakdown:
Section |  min time  |  avg time  |  max time  |%varavg| %total
---------------------------------------------------------------
Pair    | 0.47933    | 0.60897    | 0.81845    |  11.4 | 49.68
Bond    | 0.12238    | 0.15706    | 0.2039     |   5.2 | 12.81
Neigh   | 0.0074988  | 0.0076539  | 0.0077946  |   0.1 |  0.62
Comm    | 0.20683    | 0.43094    | 0.57613    |  13.8 | 35.15
Output  | 0          | 0          | 0          |   0.0 |  0.00
Modify  | 0          | 0          | 0          |   0.0 |  0.00
Other   |            | 0.02121    |            |       |  1.73

Nlocal:    72.7083 ave 98 max 50 min
Histogram: 1 0 3 3 6 7 2 1 0 1
Nghost:    1981.88 ave 2164 max 1876 min
Histogram: 13 3 0 0 0 0 0 0 2 6
Neighs:    7630.71 ave 10888 max 3866 min
Histogram: 2 0 1 4 4 2 3 6 1 1

Total # of neighbors = 183137
Ave neighs/atom = 104.95
Ave special neighs/atom = 6.60172
Neighbor list builds = 14
Dangerous builds = 0
Neighbor list info ...
  update every 1 steps, delay 10 steps, check yes
  max neighbors/atom: 2000, page size: 100000
  master list distance cutoff = 16
  ghost atom cutoff = 16
  binsize = 8, bins = 6 6 6
  3 neighbor lists, perpetual/occasional/extra = 3 0 0
  (1) pair buck6d/coul/gauss/dsf, perpetual, skip from (3)
      attributes: half, newton on
      pair build: skip
      stencil: none
      bin: none
  (2) pair lj/cut, perpetual, skip from (3)
      attributes: half, newton on
      pair build: skip
      stencil: none
      bin: none
  (3) neighbor class addition, perpetual
      attributes: half, newton on
      pair build: half/bin/newton
      stencil: half/bin/3d/newton
      bin: standard
Setting up Verlet run ...
  Unit style    : real
  Current step  : 505
  Time step     : 1
WARNING: Inconsistent image flags (../domain.cpp:786)
Per MPI rank memory allocation (min/avg/max) = 22.52 | 22.73 | 23.29 Mbytes
Step Temp PotEng TotEng Press Volume Lx Ly Lz 
     505          110   -7852.6592   -7280.8206   -235.00071     102002.7      46.7237      46.7237      46.7237 
    1000    97.207016   -7346.2631   -6840.9293   -789.50376     102002.7      46.7237      46.7237      46.7237 
    2000    105.79109   -7228.3289   -6678.3705   -787.31728     102002.7      46.7237      46.7237      46.7237 
    3000    108.61064   -7266.5514   -6701.9354   -967.05875     102002.7      46.7237      46.7237      46.7237 
    4000    109.08204     -7279.16   -6712.0934   -432.20098     102002.7      46.7237      46.7237      46.7237 
    5000    111.06644   -7255.2447   -6677.8622   -1069.7039     102002.7      46.7237      46.7237      46.7237 
    6000    110.54702   -7273.5144   -6698.8321   -586.28138     102002.7      46.7237      46.7237      46.7237 
    7000    110.22432   -7264.4925   -6691.4878    -636.7331     102002.7      46.7237      46.7237      46.7237 
    8000    106.39118   -7283.1299   -6730.0519   -851.79713     102002.7      46.7237      46.7237      46.7237 
    9000    108.54711   -7259.3522   -6695.0666   -487.55234     102002.7      46.7237      46.7237      46.7237 
   10000    110.99364   -7252.2911    -6675.287   -589.21025     102002.7      46.7237      46.7237      46.7237 
   11000    112.25479   -7251.0062   -6667.4459   -386.26157     102002.7      46.7237      46.7237      46.7237 
   12000    110.88668   -7265.5659   -6689.1179   -852.60169     102002.7      46.7237      46.7237      46.7237 
   13000    105.68121     -7254.09   -6704.7028   -655.16376     102002.7      46.7237      46.7237      46.7237 
   14000    111.68935   -7271.8743   -6691.2535   -781.24659     102002.7      46.7237      46.7237      46.7237 
   15000    107.84684   -7276.4158   -6715.7705   -662.00844     102002.7      46.7237      46.7237      46.7237 
   16000    112.26197   -7264.5601   -6680.9626   -778.46955     102002.7      46.7237      46.7237      46.7237 
   17000    111.94823   -7264.2514   -6682.2849   -712.28304     102002.7      46.7237      46.7237      46.7237 
   18000    111.16001   -7288.0198   -6710.1509   -346.51509     102002.7      46.7237      46.7237      46.7237 
   19000    110.20054   -7263.2775   -6690.3964   -882.11343     102002.7      46.7237      46.7237      46.7237 
   20000    107.63877   -7266.4844   -6706.9208   -645.49887     102002.7      46.7237      46.7237      46.7237 
   21000    108.52686   -7282.3824    -6718.202   -673.46229     102002.7      46.7237      46.7237      46.7237 
   22000    111.11204   -7263.2036    -6685.584   -700.03322     102002.7      46.7237      46.7237      46.7237 
   23000    112.98678   -7269.8694   -6682.5039   -728.60974     102002.7      46.7237      46.7237      46.7237 
   24000    112.71983   -7290.1704   -6704.1927   -431.36494     102002.7      46.7237      46.7237      46.7237 
   25000    108.95463   -7258.3221   -6691.9179   -473.86751     102002.7      46.7237      46.7237      46.7237 
   26000    106.02142   -7272.4783   -6721.3225   -711.99954     102002.7      46.7237      46.7237      46.7237 
   27000    111.02721   -7275.0789   -6697.9003   -405.30536     102002.7      46.7237      46.7237      46.7237 
   28000    108.53912   -7257.1982   -6692.9541   -619.07935     102002.7      46.7237      46.7237      46.7237 
   29000    109.05273   -7274.9395   -6708.0253   -538.66252     102002.7      46.7237      46.7237      46.7237 
   30000    109.04137   -7239.4754   -6672.6202   -707.63088     102002.7      46.7237      46.7237      46.7237 
   31000     106.6849   -7259.4794   -6704.8745   -873.43191     102002.7      46.7237      46.7237      46.7237 
   32000    110.81325   -7298.1903    -6722.124   -654.55416     102002.7      46.7237      46.7237      46.7237 
   33000    112.51186   -7260.1094   -6675.2128   -781.88973     102002.7      46.7237      46.7237      46.7237 
   34000    109.02358   -7282.9402   -6716.1776   -417.78847     102002.7      46.7237      46.7237      46.7237 
   35000    109.89826   -7265.1302   -6693.8205   -527.17291     102002.7      46.7237      46.7237      46.7237 
   36000    113.87635   -7261.0499     -6669.06   -754.88055     102002.7      46.7237      46.7237      46.7237 
   37000     111.1722   -7262.0255   -6684.0932   -903.67724     102002.7      46.7237      46.7237      46.7237 
   38000    106.76833     -7267.06   -6712.0213    -504.2655     102002.7      46.7237      46.7237      46.7237 
   39000    110.32975   -7287.9684   -6714.4155   -647.01547     102002.7      46.7237      46.7237      46.7237 
   40000    108.49781   -7259.6847   -6695.6552   -587.40752     102002.7      46.7237      46.7237      46.7237 
   41000    115.59631   -7248.5314   -6647.6002   -818.09813     102002.7      46.7237      46.7237      46.7237 
   42000    109.73941    -7273.155   -6702.6711    -788.7644     102002.7      46.7237      46.7237      46.7237 
   43000    111.80439   -7266.6362   -6685.4174   -605.39564     102002.7      46.7237      46.7237      46.7237 
   44000     111.0496   -7280.5972   -6703.3023   -704.78547     102002.7      46.7237      46.7237      46.7237 
   45000    109.62865   -7252.2876   -6682.3795   -561.77875     102002.7      46.7237      46.7237      46.7237 
   46000     108.9394   -7281.2061   -6714.8811   -1014.6111     102002.7      46.7237      46.7237      46.7237 
   47000    110.15389    -7265.058   -6692.4195   -945.24994     102002.7      46.7237      46.7237      46.7237 
   48000    108.05264   -7266.6749   -6704.9596   -765.88263     102002.7      46.7237      46.7237      46.7237 
   49000    109.38163   -7268.6328   -6700.0088   -888.04041     102002.7      46.7237      46.7237      46.7237 
   50000    110.39207   -7269.2179   -6695.3411   -760.17976     102002.7      46.7237      46.7237      46.7237 
   51000    107.13378   -7277.6045   -6720.6661   -822.44179     102002.7      46.7237      46.7237      46.7237 
   52000    110.72154   -7263.2645   -6687.6749    -1049.234     102002.7      46.7237      46.7237      46.7237 
   53000    107.23316   -7265.5594   -6708.1043   -814.65075     102002.7      46.7237      46.7237      46.7237 
   54000    111.54999   -7270.6997   -6690.8035   -1163.8486     102002.7      46.7237      46.7237      46.7237 
   55000      106.584   -7282.3308   -6728.2504   -849.60927     102002.7      46.7237      46.7237      46.7237 
   56000    110.80221   -7255.9421   -6679.9332   -778.26334     102002.7      46.7237      46.7237      46.7237 
   57000    109.65756   -7259.7847   -6689.7263   -635.62165     102002.7      46.7237      46.7237      46.7237 
   58000     108.2519   -7278.5369   -6715.7858   -799.45253     102002.7      46.7237      46.7237      46.7237 
   59000    109.99581   -7266.0891   -6694.2723   -732.43734     102002.7      46.7237      46.7237      46.7237 
   60000    107.72071   -7262.1344   -6702.1448   -820.71562     102002.7      46.7237      46.7237      46.7237 
   61000    109.60803    -7284.802   -6715.0011   -714.82232     102002.7      46.7237      46.7237      46.7237 
   62000    110.95425   -7268.2504   -6691.4512   -420.29452     102002.7      46.7237      46.7237      46.7237 
   63000    109.14863   -7279.6147    -6712.202   -460.81924     102002.7      46.7237      46.7237      46.7237 
   64000    106.82193   -7273.1066   -6717.7893   -807.91043     102002.7      46.7237      46.7237      46.7237 
   65000    111.23732   -7268.4794   -6690.2086   -688.76388     102002.7      46.7237      46.7237      46.7237 
   66000    110.47051   -7265.2687   -6690.9842   -930.01449     102002.7      46.7237      46.7237      46.7237 
   67000    107.62335   -7260.0533   -6700.5698   -558.75378     102002.7      46.7237      46.7237      46.7237 
   68000    114.73709   -7275.5087   -6679.0442   -772.58648     102002.7      46.7237      46.7237      46.7237 
   69000    109.79222   -7283.2133   -6712.4549     -755.429     102002.7      46.7237      46.7237      46.7237 
   70000    111.41403   -7274.3074   -6695.1179   -673.83919     102002.7      46.7237      46.7237      46.7237 
   71000    110.78706   -7284.1835   -6708.2533   -586.12465     102002.7      46.7237      46.7237      46.7237 
   72000    107.65932   -7269.6426   -6709.9722   -644.97021     102002.7      46.7237      46.7237      46.7237 
   73000     109.8597   -7255.2125   -6684.1033   -856.67153     102002.7      46.7237      46.7237      46.7237 
   74000    105.73039   -7277.9964   -6728.3535   -561.18391     102002.7      46.7237      46.7237      46.7237 
   75000     111.0001   -7279.6327   -6702.5951   -674.15473     102002.7      46.7237      46.7237      46.7237 
   76000    108.87816   -7256.5652   -6690.5585   -816.82712     102002.7      46.7237      46.7237      46.7237 
   77000    106.31613   -7279.3463   -6726.6584   -679.49444     102002.7      46.7237      46.7237      46.7237 
   78000    107.85391    -7251.377   -6690.6949   -631.09535     102002.7      46.7237      46.7237      46.7237 
   79000    110.56744   -7269.3303   -6694.5419   -354.46026     102002.7      46.7237      46.7237      46.7237 
   80000    108.18111   -7284.0915   -6721.7085   -603.69267     102002.7      46.7237      46.7237      46.7237 
   81000    111.74113   -7260.0147   -6679.1248   -806.48359     102002.7      46.7237      46.7237      46.7237 
   82000    112.20653   -7268.6052   -6685.2959   -833.89937     102002.7      46.7237      46.7237      46.7237 
   83000    112.14962   -7300.7603   -6717.7469   -677.55109     102002.7      46.7237      46.7237      46.7237 
   84000    112.63861   -7269.7843   -6684.2288   -754.95415     102002.7      46.7237      46.7237      46.7237 
   85000    112.47915   -7264.7399   -6680.0134   -770.69539     102002.7      46.7237      46.7237      46.7237 
   86000    109.73198   -7268.2821   -6697.8368    -869.1691     102002.7      46.7237      46.7237      46.7237 
   87000     112.6944    -7262.351   -6676.5055   -621.64829     102002.7      46.7237      46.7237      46.7237 
   88000    108.85918   -7270.8629   -6704.9549   -865.51017     102002.7      46.7237      46.7237      46.7237 
   89000    111.90863   -7265.8314   -6684.0708   -649.85405     102002.7      46.7237      46.7237      46.7237 
   90000    108.25198   -7284.5908   -6721.8393   -301.20681     102002.7      46.7237      46.7237      46.7237 
   91000    109.04818   -7266.6284   -6699.7379   -650.68387     102002.7      46.7237      46.7237      46.7237 
   92000    110.72318   -7255.9618   -6680.3637   -813.83276     102002.7      46.7237      46.7237      46.7237 
   93000    108.43927   -7262.7555   -6699.0304   -741.47247     102002.7      46.7237      46.7237      46.7237 
   94000    111.16815   -7274.1101   -6696.1989   -755.79937     102002.7      46.7237      46.7237      46.7237 
   95000    108.78573   -7263.5615   -6698.0353    -721.9769     102002.7      46.7237      46.7237      46.7237 
   96000    110.99888   -7261.1191   -6684.0878   -907.82862     102002.7      46.7237      46.7237      46.7237 
   97000     107.0201   -7274.7107   -6718.3632   -695.39287     102002.7      46.7237      46.7237      46.7237 
   98000    109.45536   -7265.2006   -6696.1933   -782.63566     102002.7      46.7237      46.7237      46.7237 
   99000     113.8909   -7258.8872   -6666.8216   -714.16457     102002.7      46.7237      46.7237      46.7237 
  100000    108.23223   -7270.1799   -6707.5312   -873.84276     102002.7      46.7237      46.7237      46.7237 
  101000    111.66311   -7251.4655   -6670.9812   -923.28509     102002.7      46.7237      46.7237      46.7237 
  102000    112.23251   -7272.8718   -6689.4274   -662.17798     102002.7      46.7237      46.7237      46.7237 
  103000    112.47298   -7255.3693   -6670.6748   -851.96739     102002.7      46.7237      46.7237      46.7237 
  104000    111.03879   -7265.4778   -6688.2391   -974.59503     102002.7      46.7237      46.7237      46.7237 
  105000    108.16393    -7270.288   -6707.9943   -750.82374     102002.7      46.7237      46.7237      46.7237 
  106000     107.8309   -7262.8029   -6702.2405   -926.86741     102002.7      46.7237      46.7237      46.7237 
  107000    107.95555   -7268.8739   -6707.6634   -977.71047     102002.7      46.7237      46.7237      46.7237 
  108000    111.99904    -7258.267   -6676.0363   -935.33604     102002.7      46.7237      46.7237      46.7237 
  109000    110.09119   -7266.0784   -6693.7658    -803.2754     102002.7      46.7237      46.7237      46.7237 
  110000    106.78041   -7292.5973   -6737.4958   -792.38452     102002.7      46.7237      46.7237      46.7237 
  111000    108.33222   -7264.6785     -6701.51   -657.20942     102002.7      46.7237      46.7237      46.7237 
  112000    109.57793   -7284.5866   -6714.9422   -908.75242     102002.7      46.7237      46.7237      46.7237 
  113000    107.98921   -7256.8626   -6695.4771   -619.30322     102002.7      46.7237      46.7237      46.7237 
  114000    108.55839   -7256.2532   -6691.9088   -928.57103     102002.7      46.7237      46.7237      46.7237 
  115000    108.14073   -7259.2486   -6697.0755   -823.61358     102002.7      46.7237      46.7237      46.7237 
  116000    111.99041    -7257.853   -6675.6672   -580.57562     102002.7      46.7237      46.7237      46.7237 
  117000    109.58757   -7266.8835   -6697.1889   -666.65829     102002.7      46.7237      46.7237      46.7237 
  118000     109.5355   -7271.4485   -6702.0246   -897.73826     102002.7      46.7237      46.7237      46.7237 
  119000     107.9932    -7271.521   -6710.1148   -693.81036     102002.7      46.7237      46.7237      46.7237 
  120000    109.35569   -7262.6935   -6694.2043   -719.25354     102002.7      46.7237      46.7237      46.7237 
  121000    110.64663    -7285.518   -6710.3179   -872.01093     102002.7      46.7237      46.7237      46.7237 
  122000    112.31997   -7260.2704   -6676.3713   -566.08093     102002.7      46.7237      46.7237      46.7237 
  123000    106.46664   -7272.4304   -6718.9601   -808.29182     102002.7      46.7237      46.7237      46.7237 
  124000    109.87404   -7281.6449   -6710.4611   -754.92478     102002.7      46.7237      46.7237      46.7237 
  125000    111.78701   -7253.9362   -6672.8078   -398.62438     102002.7      46.7237      46.7237      46.7237 
  126000    107.35748   -7277.3562   -6719.2548   -797.23015     102002.7      46.7237      46.7237      46.7237 
  127000    112.64782   -7264.9593   -6679.3559   -238.83107     102002.7      46.7237      46.7237      46.7237 
  128000    104.12288   -7278.4603   -6737.1741   -232.00098     102002.7      46.7237      46.7237      46.7237 
  129000    109.54182   -7257.3802   -6687.9234   -462.14289     102002.7      46.7237      46.7237      46.7237 
  130000    109.16738   -7280.0683   -6712.5581   -807.91842     102002.7      46.7237      46.7237      46.7237 
  131000    108.73889   -7264.5035   -6699.2208   -525.71682     102002.7      46.7237      46.7237      46.7237 
  132000    110.69995   -7266.8545   -6691.3772    -891.3939     102002.7      46.7237      46.7237      46.7237 
  133000    106.64087    -7264.403    -6710.027   -852.72942     102002.7      46.7237      46.7237      46.7237 
  134000    111.64578   -7285.9918   -6705.5976   -778.45706     102002.7      46.7237      46.7237      46.7237 
  135000    111.99667    -7248.937   -6666.7186   -707.05835     102002.7      46.7237      46.7237      46.7237 
  136000    109.48775   -7262.4296    -6693.254    -751.2891     102002.7      46.7237      46.7237      46.7237 
  137000     111.3218   -7275.9279   -6697.2178   -706.28492     102002.7      46.7237      46.7237      46.7237 
  138000    107.83131   -7261.6211   -6701.0565   -370.74443     102002.7      46.7237      46.7237      46.7237 
  139000    111.64509   -7269.7561   -6689.3655   -629.28292     102002.7      46.7237      46.7237      46.7237 
  140000    109.34578   -7285.5483   -6717.1107   -470.98488     102002.7      46.7237      46.7237      46.7237 
  141000    109.17345   -7263.4259   -6695.8841   -682.64422     102002.7      46.7237      46.7237      46.7237 
  142000    108.76276   -7258.9274   -6693.5206   -579.34708     102002.7      46.7237      46.7237      46.7237 
  143000    109.91879   -7270.7378   -6699.3214   -233.91079     102002.7      46.7237      46.7237      46.7237 
  144000    108.80993   -7272.1057   -6706.4537   -588.69167     102002.7      46.7237      46.7237      46.7237 
  145000    110.24402   -7239.8754   -6666.7683     -662.996     102002.7      46.7237      46.7237      46.7237 
  146000    110.70492   -7278.3382   -6702.8351    -534.4487     102002.7      46.7237      46.7237      46.7237 
  147000    111.03438   -7260.6403   -6683.4245   -655.86374     102002.7      46.7237      46.7237      46.7237 
  148000    108.82243   -7291.2209   -6725.5039   -691.38691     102002.7      46.7237      46.7237      46.7237 
  149000    109.04426   -7253.6829   -6686.8127   -657.48304     102002.7      46.7237      46.7237      46.7237 
  150000    113.27299   -7276.0347   -6687.1813   -585.67246     102002.7      46.7237      46.7237      46.7237 
  151000    110.53057   -7252.9011   -6678.3043   -870.94124     102002.7      46.7237      46.7237      46.7237 
  152000    107.85419   -7259.5564   -6698.8729   -871.90472     102002.7      46.7237      46.7237      46.7237 
  153000    107.19583   -7267.8692   -6710.6082   -758.35704     102002.7      46.7237      46.7237      46.7237 
  154000    110.02441   -7261.6492   -6689.6838   -772.44407     102002.7      46.7237      46.7237      46.7237 
  155000    103.71788   -7265.1893   -6726.0085   -653.91346     102002.7      46.7237      46.7237      46.7237 
  156000    111.85243   -7274.3005    -6692.832   -399.06134     102002.7      46.7237      46.7237      46.7237 
  157000     106.8927   -7272.4026   -6716.7174   -789.64306     102002.7      46.7237      46.7237      46.7237 
  158000    111.34336   -7274.3213   -6695.4992     -245.905     102002.7      46.7237      46.7237      46.7237 
  159000    110.37261   -7253.0899   -6679.3143   -779.77699     102002.7      46.7237      46.7237      46.7237 
  160000    110.20945   -7266.0872   -6693.1598   -653.49833     102002.7      46.7237      46.7237      46.7237 
  161000    109.81764   -7259.7241   -6688.8335   -392.52865     102002.7      46.7237      46.7237      46.7237 
  162000    111.14038   -7274.0739    -6696.307   -388.63045     102002.7      46.7237      46.7237      46.7237 
  163000    109.28847   -7279.8648   -6711.7251   -665.74067     102002.7      46.7237      46.7237      46.7237 
  164000    112.76524   -7266.7148    -6680.501   -645.64707     102002.7      46.7237      46.7237      46.7237 
  165000    108.90653   -7265.4591   -6699.3049   -709.96937     102002.7      46.7237      46.7237      46.7237 
  166000    106.14189   -7271.4674   -6719.6853   -981.50157     102002.7      46.7237      46.7237      46.7237 
  167000      110.955   -7265.1089   -6688.3057   -815.28981     102002.7      46.7237      46.7237      46.7237 
  168000    108.75549   -7247.5012   -6682.1322   -791.79046     102002.7      46.7237      46.7237      46.7237 
  169000    111.56536   -7273.2281   -6693.2519   -1073.3701     102002.7      46.7237      46.7237      46.7237 
  170000    110.07987   -7267.6294   -6695.3756   -1041.8631     102002.7      46.7237      46.7237      46.7237 
  171000    108.95117   -7264.4455   -6698.0592   -957.14157     102002.7      46.7237      46.7237      46.7237 
  172000    110.07657   -7261.7595   -6689.5229   -754.60243     102002.7      46.7237      46.7237      46.7237 
  173000    108.37008   -7270.2097   -6706.8443    -709.6284     102002.7      46.7237      46.7237      46.7237 
  174000    114.32711   -7274.0199   -6679.6867   -593.73522     102002.7      46.7237      46.7237      46.7237 
  175000    112.90888   -7267.8413   -6680.8808   -777.64977     102002.7      46.7237      46.7237      46.7237 
  176000    109.31897   -7276.3075   -6708.0093   -796.19902     102002.7      46.7237      46.7237      46.7237 
  177000    112.22198   -7247.2026    -6663.813    -652.6954     102002.7      46.7237      46.7237      46.7237 
  178000    111.04324   -7263.8829    -6686.621   -711.26369     102002.7      46.7237      46.7237      46.7237 
  179000    107.24873   -7286.5399   -6729.0039   -1001.8343     102002.7      46.7237      46.7237      46.7237 
  180000    111.38477   -7265.2341   -6686.1967   -686.33279     102002.7      46.7237      46.7237      46.7237 
  181000    110.76934    -7275.844    -6700.006   -593.31265     102002.7      46.7237      46.7237      46.7237 
  182000     106.2194   -7277.2267   -6725.0417   -923.65912     102002.7      46.7237      46.7237      46.7237 
  183000    112.89835   -7272.4445   -6685.5387   -511.27603     102002.7      46.7237      46.7237      46.7237 
  184000    111.50488   -7257.9294   -6678.2676   -573.88801     102002.7      46.7237      46.7237      46.7237 
  185000    112.36268   -7285.0365   -6700.9154   -472.15557     102002.7      46.7237      46.7237      46.7237 
  186000    110.20735   -7284.9386   -6712.0221   -542.45426     102002.7      46.7237      46.7237      46.7237 
  187000    112.64485   -7270.3564   -6684.7685   -694.66506     102002.7      46.7237      46.7237      46.7237 
  188000    107.95866   -7250.9149   -6689.6883   -668.63645     102002.7      46.7237      46.7237      46.7237 
  189000    106.45863   -7259.7701   -6706.3414   -717.73783     102002.7      46.7237      46.7237      46.7237 
  190000    109.25508   -7248.7491    -6680.783    -656.7263     102002.7      46.7237      46.7237      46.7237 
  191000    107.77418   -7259.0616    -6698.794   -575.10151     102002.7      46.7237      46.7237      46.7237 
  192000    110.71836     -7257.88    -6682.307   -597.04646     102002.7      46.7237      46.7237      46.7237 
  193000    109.58523   -7284.1817   -6714.4993   -590.28004     102002.7      46.7237      46.7237      46.7237 
  194000    112.78654   -7271.3923   -6685.0678   -563.27748     102002.7      46.7237      46.7237      46.7237 
  195000    110.44854   -7263.2079   -6689.0375   -712.65611     102002.7      46.7237      46.7237      46.7237 
  196000    110.35441   -7272.6209   -6698.9399   -320.91474     102002.7      46.7237      46.7237      46.7237 
  197000    111.54902   -7267.8514   -6687.9602   -431.37368     102002.7      46.7237      46.7237      46.7237 
  198000    111.00504    -7277.198   -6700.1347   -569.47946     102002.7      46.7237      46.7237      46.7237 
  199000    109.44043   -7282.6491   -6713.7195   -800.08555     102002.7      46.7237      46.7237      46.7237 
  200000    114.86794     -7298.93   -6701.7853   -807.60635     102002.7      46.7237      46.7237      46.7237 
  201000    111.59293   -7271.6397   -6691.5202   -868.88459     102002.7      46.7237      46.7237      46.7237 
  202000    112.72752   -7264.9859   -6678.9681   -764.50519     102002.7      46.7237      46.7237      46.7237 
  203000    109.93855   -7295.2464   -6723.7272   -807.80633     102002.7      46.7237      46.7237      46.7237 
  204000     108.6838   -7258.6167   -6693.6205   -753.06217     102002.7      46.7237      46.7237      46.7237 
  205000    107.69247   -7283.7627   -6723.9198   -514.63045     102002.7      46.7237      46.7237      46.7237 
  206000    108.58003   -7273.2634   -6708.8065   -671.38702     102002.7      46.7237      46.7237      46.7237 
  207000    109.40146   -7257.1218   -6688.3948    -813.6551     102002.7      46.7237      46.7237      46.7237 
  208000    107.37987   -7273.1832   -6714.9654   -579.57323     102002.7      46.7237      46.7237      46.7237 
  209000    108.98127   -7250.0583   -6683.5156   -906.38984     102002.7      46.7237      46.7237      46.7237 
  210000    108.07952   -7266.3725   -6704.5175   -557.38292     102002.7      46.7237      46.7237      46.7237 
  211000    111.75165   -7256.0631   -6675.1185   -511.89697     102002.7      46.7237      46.7237      46.7237 
  212000    111.38885   -7271.3094   -6692.2508   -586.31394     102002.7      46.7237      46.7237      46.7237 
  213000     111.5317   -7297.9828   -6718.1816   -401.12735     102002.7      46.7237      46.7237      46.7237 
  214000    111.59923   -7273.7528   -6693.6005   -485.10097     102002.7      46.7237      46.7237      46.7237 
  215000    110.31537   -7271.9585   -6698.4805   -588.81764     102002.7      46.7237      46.7237      46.7237 
  216000    108.48621   -7251.9353   -6687.9662   -786.18083     102002.7      46.7237      46.7237      46.7237 
  217000    111.24655   -7268.0072   -6689.6884   -567.82196     102002.7      46.7237      46.7237      46.7237 
  218000    108.50727   -7284.9103   -6720.8317    -419.0684     102002.7      46.7237      46.7237      46.7237 
  219000     107.0614   -7245.8131   -6689.2509   -649.80372     102002.7      46.7237      46.7237      46.7237 
  220000    107.62003   -7258.8057   -6699.3395   -478.93099     102002.7      46.7237      46.7237      46.7237 
  221000    110.86203   -7278.4192   -6702.0993   -697.60923     102002.7      46.7237      46.7237      46.7237 
  222000    111.89558   -7257.6409   -6675.9481   -557.53142     102002.7      46.7237      46.7237      46.7237 
  223000     110.1043   -7285.4033   -6713.0225   -608.37863     102002.7      46.7237      46.7237      46.7237 
  224000    108.84482   -7261.8418   -6696.0084    -765.3559     102002.7      46.7237      46.7237      46.7237 
  225000    106.89998   -7275.9415   -6720.2185   -496.27642     102002.7      46.7237      46.7237      46.7237 
  226000    108.84085   -7263.6367    -6697.824    -733.4587     102002.7      46.7237      46.7237      46.7237 
  227000    110.38264   -7262.2184   -6688.3907   -1048.8349     102002.7      46.7237      46.7237      46.7237 
  228000     109.7925   -7285.7462   -6714.9863   -740.55359     102002.7      46.7237      46.7237      46.7237 
  229000    111.33319   -7270.6732   -6691.9039   -659.56685     102002.7      46.7237      46.7237      46.7237 
  230000    107.82733   -7290.6725   -6730.1286   -747.56638     102002.7      46.7237      46.7237      46.7237 
  231000    111.13651   -7264.7264   -6686.9797   -745.31496     102002.7      46.7237      46.7237      46.7237 
  232000    110.35725   -7282.5389   -6708.8431   -638.13216     102002.7      46.7237      46.7237      46.7237 
  233000    110.55918   -7266.7463   -6692.0008   -706.53859     102002.7      46.7237      46.7237      46.7237 
  234000    107.70886   -7259.6609   -6699.7329   -924.85908     102002.7      46.7237      46.7237      46.7237 
  235000    110.79003   -7268.0516    -6692.106   -1031.4525     102002.7      46.7237      46.7237      46.7237 
  236000    104.82472   -7244.2787    -6699.344   -1096.4398     102002.7      46.7237      46.7237      46.7237 
  237000    106.59626   -7281.0245   -6726.8803   -867.12077     102002.7      46.7237      46.7237      46.7237 
  238000    110.95402   -7279.8679   -6703.0698   -832.59488     102002.7      46.7237      46.7237      46.7237 
  239000    112.13268   -7270.6786   -6687.7532   -855.59279     102002.7      46.7237      46.7237      46.7237 
  240000    108.42413   -7256.9149   -6693.2684   -783.04809     102002.7      46.7237      46.7237      46.7237 
  241000    110.60017   -7269.1273   -6694.1687   -751.10046     102002.7      46.7237      46.7237      46.7237 
  242000     112.1998   -7280.4256   -6697.1513     -756.382     102002.7      46.7237      46.7237      46.7237 
  243000    110.82593   -7271.6116   -6695.4793   -721.19255     102002.7      46.7237      46.7237      46.7237 
  244000    113.92706   -7272.9557   -6680.7021   -596.03064     102002.7      46.7237      46.7237      46.7237 
  245000    111.35066   -7278.5697   -6699.7096   -792.90837     102002.7      46.7237      46.7237      46.7237 
  246000    111.49635   -7239.9719   -6660.3545   -607.50665     102002.7      46.7237      46.7237      46.7237 
  247000    111.54371   -7283.1349   -6703.2713   -832.99579     102002.7      46.7237      46.7237      46.7237 
  248000    115.24408   -7298.1105   -6699.0104   -735.09069     102002.7      46.7237      46.7237      46.7237 
  249000    110.09178   -7256.7198    -6684.404   -657.98414     102002.7      46.7237      46.7237      46.7237 
  250000    112.42158   -7261.5855   -6677.1582   -769.41375     102002.7      46.7237      46.7237      46.7237 
  251000    111.07184   -7287.2383   -6709.8277   -832.42771     102002.7      46.7237      46.7237      46.7237 
  252000    107.37255   -7274.6468    -6716.467   -642.02918     102002.7      46.7237      46.7237      46.7237 
  253000    110.41415   -7281.4545   -6707.4629    -711.2183     102002.7      46.7237      46.7237      46.7237 
  254000    110.38571   -7291.7943   -6717.9506   -880.60707     102002.7      46.7237      46.7237      46.7237 
  255000    107.10132   -7247.1602   -6690.3905    -928.2759     102002.7      46.7237      46.7237      46.7237 
  256000    106.29967   -7275.4438   -6722.8415   -821.63013     102002.7      46.7237      46.7237      46.7237 
  257000    109.80923   -7272.6471   -6701.8002   -651.21861     102002.7      46.7237      46.7237      46.7237 
  258000    110.65859   -7257.8299   -6682.5675   -722.36633     102002.7      46.7237      46.7237      46.7237 
  259000    111.56725   -7275.7017   -6695.7156    -763.4734     102002.7      46.7237      46.7237      46.7237 
  260000    110.83746   -7301.5988   -6725.4066   -653.13727     102002.7      46.7237      46.7237      46.7237 
  261000    111.05532   -7269.2054   -6691.8807   -717.25783     102002.7      46.7237      46.7237      46.7237 
  262000    110.03462   -7268.5025   -6696.4839   -777.80507     102002.7      46.7237      46.7237      46.7237 
  263000    104.84792   -7269.1039   -6724.0486    -635.1716     102002.7      46.7237      46.7237      46.7237 
  264000    109.61584   -7260.2439   -6690.4024   -534.59993     102002.7      46.7237      46.7237      46.7237 
  265000    106.23638   -7276.4671   -6724.1938   -760.09523     102002.7      46.7237      46.7237      46.7237 
  266000     112.2066   -7273.1209   -6689.8113   -756.76461     102002.7      46.7237      46.7237      46.7237 
  267000    108.81021   -7264.2314   -6698.5779   -763.23981     102002.7      46.7237      46.7237      46.7237 
  268000    108.22943   -7254.5294   -6691.8952   -823.65074     102002.7      46.7237      46.7237      46.7237 
  269000    107.45482   -7271.8767   -6713.2693   -647.05786     102002.7      46.7237      46.7237      46.7237 
  270000    106.83661   -7260.6931   -6705.2995    -711.2032     102002.7      46.7237      46.7237      46.7237 
  271000    107.86144   -7256.4872    -6695.766   -478.78271     102002.7      46.7237      46.7237      46.7237 
  272000    111.25587   -7262.6107   -6684.2434   -658.49585     102002.7      46.7237      46.7237      46.7237 
  273000    109.69324   -7271.6247   -6701.3808   -748.21077     102002.7      46.7237      46.7237      46.7237 
  274000    110.93941   -7245.2591   -6668.5369    -693.2293     102002.7      46.7237      46.7237      46.7237 
  275000    109.92084   -7280.0854   -6708.6584    -632.6645     102002.7      46.7237      46.7237      46.7237 
  276000    112.08253    -7260.147   -6677.4824   -746.98363     102002.7      46.7237      46.7237      46.7237 
  277000    111.23266   -7282.3473   -6704.1006   -748.33683     102002.7      46.7237      46.7237      46.7237 
  278000    112.13359   -7247.1847   -6664.2545   -638.07326     102002.7      46.7237      46.7237      46.7237 
  279000    108.76054   -7258.2034   -6692.8082   -674.62551     102002.7      46.7237      46.7237      46.7237 
  280000    110.35994   -7262.2176   -6688.5079   -792.27963     102002.7      46.7237      46.7237      46.7237 
  281000    111.75428   -7265.5834   -6684.6251   -647.22059     102002.7      46.7237      46.7237      46.7237 
  282000    107.41612   -7272.4466   -6714.0404   -695.35244     102002.7      46.7237      46.7237      46.7237 
  283000     112.2241   -7249.4668   -6666.0662   -962.50943     102002.7      46.7237      46.7237      46.7237 
  284000    109.23593   -7273.2076    -6705.341   -546.74072     102002.7      46.7237      46.7237      46.7237 
  285000    109.44203   -7261.7227   -6692.7847   -839.97113     102002.7      46.7237      46.7237      46.7237 
  286000     107.5153   -7260.3652   -6701.4434    -562.6357     102002.7      46.7237      46.7237      46.7237 
  287000    106.07423    -7279.161   -6727.7306   -699.19701     102002.7      46.7237      46.7237      46.7237 
  288000    111.39853   -7262.9143   -6683.8054   -599.34044     102002.7      46.7237      46.7237      46.7237 
  289000    108.53494   -7299.2966   -6735.0742   -595.46525     102002.7      46.7237      46.7237      46.7237 
  290000    110.51267   -7261.7097    -6687.206    -646.8508     102002.7      46.7237      46.7237      46.7237 
  291000    112.92279   -7281.0276   -6693.9947   -709.53806     102002.7      46.7237      46.7237      46.7237 
  292000    110.66797   -7290.4844   -6715.1733    -889.1423     102002.7      46.7237      46.7237      46.7237 
  293000    109.72741   -7260.2773   -6689.8557   -825.75759     102002.7      46.7237      46.7237      46.7237 
  294000    113.64818   -7277.5009   -6686.6972    -618.5543     102002.7      46.7237      46.7237      46.7237 
  295000    111.23594   -7281.0152   -6702.7515   -681.35149     102002.7      46.7237      46.7237      46.7237 
  296000    112.22387   -7256.5791   -6673.1797   -929.02697     102002.7      46.7237      46.7237      46.7237 
  297000    110.41517   -7268.2358   -6694.2389   -414.36096     102002.7      46.7237      46.7237      46.7237 
  298000    107.30398   -7259.4537   -6701.6304   -833.39351     102002.7      46.7237      46.7237      46.7237 
  299000    110.73684   -7245.1408   -6669.4718   -537.37103     102002.7      46.7237      46.7237      46.7237 
  300000    107.36893   -7266.3088   -6708.1479   -674.83368     102002.7      46.7237      46.7237      46.7237 
  301000    110.19417   -7268.9469   -6696.0989   -432.92933     102002.7      46.7237      46.7237      46.7237 
  302000    112.49643   -7257.6046   -6672.7882   -849.57587     102002.7      46.7237      46.7237      46.7237 
  303000    106.61453   -7267.2601    -6713.021   -684.28116     102002.7      46.7237      46.7237      46.7237 
  304000    109.12227   -7245.4343   -6678.1586   -256.98088     102002.7      46.7237      46.7237      46.7237 
  305000    109.38758   -7276.8055   -6708.1506   -691.37757     102002.7      46.7237      46.7237      46.7237 
  306000    108.23856   -7286.6119   -6723.9303   -651.83747     102002.7      46.7237      46.7237      46.7237 
  307000    109.18404   -7259.5684   -6691.9716   -618.17206     102002.7      46.7237      46.7237      46.7237 
  308000    105.24055   -7278.3501   -6731.2537   -814.09694     102002.7      46.7237      46.7237      46.7237 
  309000     106.8892   -7259.4923   -6703.8254   -610.99285     102002.7      46.7237      46.7237      46.7237 
  310000    110.05231   -7294.0753   -6721.9647   -852.90679     102002.7      46.7237      46.7237      46.7237 
  311000    109.79947   -7263.5053   -6692.7091   -495.49657     102002.7      46.7237      46.7237      46.7237 
  312000    110.61573   -7275.1664   -6700.1269   -833.42851     102002.7      46.7237      46.7237      46.7237 
  313000    110.13007   -7265.8772   -6693.3624   -808.77369     102002.7      46.7237      46.7237      46.7237 
  314000    109.65399   -7275.2732   -6705.2333   -746.46967     102002.7      46.7237      46.7237      46.7237 
  315000    112.53379   -7261.4893   -6676.4787   -289.30926     102002.7      46.7237      46.7237      46.7237 
  316000    108.56023   -7257.8478   -6693.4939   -910.65473     102002.7      46.7237      46.7237      46.7237 
  317000    108.10136   -7264.2423   -6702.2738   -531.22715     102002.7      46.7237      46.7237      46.7237 
  318000    113.43297   -7277.6702   -6687.9852   -505.42877     102002.7      46.7237      46.7237      46.7237 
  319000    106.14091   -7278.6442   -6726.8672   -569.74602     102002.7      46.7237      46.7237      46.7237 
  320000    111.64055   -7266.8694   -6686.5023   -464.04435     102002.7      46.7237      46.7237      46.7237 
  321000    110.83351   -7274.1892   -6698.0175   -609.05365     102002.7      46.7237      46.7237      46.7237 
  322000    112.57587   -7256.3827   -6671.1533   -813.25518     102002.7      46.7237      46.7237      46.7237 
  323000    112.34208   -7278.4184   -6694.4044   -573.57097     102002.7      46.7237      46.7237      46.7237 
  324000    108.94764   -7290.6681   -6724.3002   -627.43441     102002.7      46.7237      46.7237      46.7237 
  325000    109.21655   -7272.0481   -6704.2823   -792.18097     102002.7      46.7237      46.7237      46.7237 
  326000    108.59913   -7264.2642   -6699.7081   -757.66085     102002.7      46.7237      46.7237      46.7237 
  327000    111.12128   -7251.6554   -6673.9878   -427.03271     102002.7      46.7237      46.7237      46.7237 
  328000    110.42773   -7284.6223   -6710.5601    -770.0807     102002.7      46.7237      46.7237      46.7237 
  329000    108.47829   -7265.2038   -6701.2759   -600.77278     102002.7      46.7237      46.7237      46.7237 
  330000    110.62023   -7258.0203   -6682.9574   -851.03639     102002.7      46.7237      46.7237      46.7237 
  331000    106.24967   -7271.3599   -6719.0175   -490.17158     102002.7      46.7237      46.7237      46.7237 
  332000    110.02202   -7265.4127   -6693.4597   -919.14813     102002.7      46.7237      46.7237      46.7237 
  333000    109.62984   -7265.7608   -6695.8465    -690.9664     102002.7      46.7237      46.7237      46.7237 
  334000    109.50837   -7277.2559    -6707.973   -754.15316     102002.7      46.7237      46.7237      46.7237 
  335000    111.01089   -7265.4268   -6688.3331   -788.55059     102002.7      46.7237      46.7237      46.7237 
  336000    106.36982   -7265.1945   -6712.2275   -742.87591     102002.7      46.7237      46.7237      46.7237 
  337000    106.63663   -7256.2081   -6701.8541    -541.4218     102002.7      46.7237      46.7237      46.7237 
  338000    108.99734    -7276.968   -6710.3418   -574.35566     102002.7      46.7237      46.7237      46.7237 
  339000    108.71794   -7260.2948    -6695.121   -569.82444     102002.7      46.7237      46.7237      46.7237 
  340000    108.46417   -7268.4271   -6704.5726   -801.53696     102002.7      46.7237      46.7237      46.7237 
  341000    109.93177   -7250.1476   -6678.6637   -665.92644     102002.7      46.7237      46.7237      46.7237 
  342000     106.1584   -7278.6396   -6726.7717   -352.42599     102002.7      46.7237      46.7237      46.7237 
  343000    108.33009   -7268.8276   -6705.6701   -822.56967     102002.7      46.7237      46.7237      46.7237 
  344000    112.55973   -7253.4756   -6668.3301   -754.71779     102002.7      46.7237      46.7237      46.7237 
  345000    111.76848   -7271.1156   -6690.0835   -627.69409     102002.7      46.7237      46.7237      46.7237 
  346000    108.70683   -7259.8073   -6694.6913   -1023.7858     102002.7      46.7237      46.7237      46.7237 
  347000    113.07277    -7269.755   -6681.9426    -957.9765     102002.7      46.7237      46.7237      46.7237 
  348000    110.09352   -7259.1174   -6686.7926   -898.01584     102002.7      46.7237      46.7237      46.7237 
  349000    110.16038   -7273.3544   -6700.6821   -891.36801     102002.7      46.7237      46.7237      46.7237 
  350000    110.67797   -7270.0048   -6694.6418   -651.08533     102002.7      46.7237      46.7237      46.7237 
  351000    110.87833   -7251.7426    -6675.338   -852.34836     102002.7      46.7237      46.7237      46.7237 
  352000    109.56399   -7263.1274   -6693.5554   -639.63011     102002.7      46.7237      46.7237      46.7237 
  353000     110.6648   -7275.1358   -6699.8412   -372.18208     102002.7      46.7237      46.7237      46.7237 
  354000    113.05195   -7248.6791   -6660.9748   -799.57688     102002.7      46.7237      46.7237      46.7237 
  355000    113.22086   -7280.3375   -6691.7551   -482.23409     102002.7      46.7237      46.7237      46.7237 
  356000    112.44938   -7241.8356   -6657.2638   -324.99806     102002.7      46.7237      46.7237      46.7237 
  357000    107.98491   -7263.4295   -6702.0664   -750.37207     102002.7      46.7237      46.7237      46.7237 
  358000    111.27452   -7255.5891   -6677.1249   -461.52649     102002.7      46.7237      46.7237      46.7237 
  359000     113.6607   -7282.9066   -6692.0377   -852.47146     102002.7      46.7237      46.7237      46.7237 
  360000    110.15513   -7260.9005   -6688.2554   -802.77406     102002.7      46.7237      46.7237      46.7237 
  361000    112.48735   -7287.0888   -6702.3196   -675.64376     102002.7      46.7237      46.7237      46.7237 
  362000    110.42588    -7267.324   -6693.2714   -807.91663     102002.7      46.7237      46.7237      46.7237 
  363000    107.41696   -7273.3273   -6714.9167   -834.84994     102002.7      46.7237      46.7237      46.7237 
  364000    106.24374   -7261.4528   -6709.1412   -786.70415     102002.7      46.7237      46.7237      46.7237 
  365000    110.35314   -7281.6128   -6707.9384   -840.74003     102002.7      46.7237      46.7237      46.7237 
  366000    111.13255   -7250.8501   -6673.1239   -796.64214     102002.7      46.7237      46.7237      46.7237 
  367000     112.2906   -7277.5284    -6693.782    -855.2197     102002.7      46.7237      46.7237      46.7237 
  368000    109.21584   -7282.5708   -6714.8087   -736.86198     102002.7      46.7237      46.7237      46.7237 
  369000    112.68117   -7260.1862   -6674.4094   -760.55384     102002.7      46.7237      46.7237      46.7237 
  370000    109.50716   -7259.7063   -6690.4297   -543.48334     102002.7      46.7237      46.7237      46.7237 
  371000    109.67394   -7271.0925    -6700.949   -532.99291     102002.7      46.7237      46.7237      46.7237 
  372000    114.10985   -7255.6793   -6662.4755   -708.38319     102002.7      46.7237      46.7237      46.7237 
  373000    108.50018   -7275.1357    -6711.094   -688.45861     102002.7      46.7237      46.7237      46.7237 
  374000     109.1428   -7263.3022   -6695.9198   -594.75686     102002.7      46.7237      46.7237      46.7237 
  375000    111.23139    -7293.656    -6715.416    -720.7001     102002.7      46.7237      46.7237      46.7237 
  376000    113.84597    -7273.014    -6681.182   -674.56715     102002.7      46.7237      46.7237      46.7237 
  377000    110.55185   -7260.8016   -6686.0942    -591.2794     102002.7      46.7237      46.7237      46.7237 
  378000    110.48825   -7280.7209   -6706.3441   -637.64976     102002.7      46.7237      46.7237      46.7237 
  379000    116.37932   -7275.2426   -6670.2409   -853.55391     102002.7      46.7237      46.7237      46.7237 
  380000    109.88073   -7271.7677   -6700.5491   -797.75903     102002.7      46.7237      46.7237      46.7237 
  381000    108.91804   -7255.1025   -6688.8885   -1093.1993     102002.7      46.7237      46.7237      46.7237 
  382000    109.49915   -7253.5137   -6684.2787   -644.67911     102002.7      46.7237      46.7237      46.7237 
  383000    108.10144   -7263.9132   -6701.9443    -821.3866     102002.7      46.7237      46.7237      46.7237 
  384000    112.70902   -7273.4802   -6687.5587   -608.87196     102002.7      46.7237      46.7237      46.7237 
  385000    108.48421   -7277.6588      -6713.7   -390.59249     102002.7      46.7237      46.7237      46.7237 
  386000    111.31681   -7257.4378   -6678.7537   -653.29867     102002.7      46.7237      46.7237      46.7237 
  387000    110.09993   -7278.5686   -6706.2105   -701.12671     102002.7      46.7237      46.7237      46.7237 
  388000    112.65632   -7262.9341   -6677.2866   -615.03316     102002.7      46.7237      46.7237      46.7237 
  389000    110.03609   -7281.1212    -6709.095   -705.59651     102002.7      46.7237      46.7237      46.7237 
  390000    111.76716    -7275.034   -6694.0088   -805.28299     102002.7      46.7237      46.7237      46.7237 
  391000    109.48839   -7255.9095   -6686.7306   -681.30929     102002.7      46.7237      46.7237      46.7237 
  392000     109.7097   -7256.7665   -6686.4371   -527.05084     102002.7      46.7237      46.7237      46.7237 
  393000    108.00371   -7280.1976   -6718.7367     -507.184     102002.7      46.7237      46.7237      46.7237 
  394000    113.34215   -7268.8983   -6679.6854   -668.82592     102002.7      46.7237      46.7237      46.7237 
  395000    112.04837   -7273.4976   -6691.0105   -578.33639     102002.7      46.7237      46.7237      46.7237 
  396000    104.38265   -7271.2788   -6728.6421   -927.97943     102002.7      46.7237      46.7237      46.7237 
  397000    108.87742   -7243.3611   -6677.3582   -649.80929     102002.7      46.7237      46.7237      46.7237 
  398000     109.6215   -7278.4401   -6708.5692   -380.64659     102002.7      46.7237      46.7237      46.7237 
  399000      111.073   -7265.6837   -6688.2671   -651.90127     102002.7      46.7237      46.7237      46.7237 
  400000    108.29055   -7269.9032   -6706.9512   -716.69456     102002.7      46.7237      46.7237      46.7237 
  401000     110.7334   -7249.4098   -6673.7586   -745.65176     102002.7      46.7237      46.7237      46.7237 
  402000    111.39225   -7275.5557   -6696.4794   -605.50975     102002.7      46.7237      46.7237      46.7237 
  403000    112.03906    -7264.198   -6681.7593   -783.44189     102002.7      46.7237      46.7237      46.7237 
  404000    107.38578   -7271.3637   -6713.1152   -738.05226     102002.7      46.7237      46.7237      46.7237 
  405000    112.65985    -7269.245   -6683.5791   -1026.5412     102002.7      46.7237      46.7237      46.7237 
  406000    108.81705   -7264.6011   -6698.9122   -850.59675     102002.7      46.7237      46.7237      46.7237 
  407000    109.92922   -7279.3738   -6707.9032   -886.48518     102002.7      46.7237      46.7237      46.7237 
  408000    109.96166    -7258.829   -6687.1897   -1063.5798     102002.7      46.7237      46.7237      46.7237 
  409000    109.34805   -7264.5045   -6696.0551   -842.52964     102002.7      46.7237      46.7237      46.7237 
  410000    112.12851   -7266.8679   -6683.9642    -685.4507     102002.7      46.7237      46.7237      46.7237 
  411000    106.96783    -7270.823   -6714.7473   -914.51362     102002.7      46.7237      46.7237      46.7237 
  412000    110.20191   -7282.8974   -6710.0092   -606.85526     102002.7      46.7237      46.7237      46.7237 
  413000    114.15247   -7265.1899   -6671.7645   -881.10381     102002.7      46.7237      46.7237      46.7237 
  414000    108.72721   -7262.6593   -6697.4373   -1069.6583     102002.7      46.7237      46.7237      46.7237 
  415000     110.1967     -7275.71   -6702.8489   -860.61059     102002.7      46.7237      46.7237      46.7237 
  416000     109.3881   -7261.3276     -6692.67   -891.71015     102002.7      46.7237      46.7237      46.7237 
  417000     112.9926   -7268.3104   -6680.9146   -532.86849     102002.7      46.7237      46.7237      46.7237 
  418000     112.4454   -7253.4715   -6668.9204   -631.84779     102002.7      46.7237      46.7237      46.7237 
  419000    110.20254   -7274.6642   -6701.7727   -416.23756     102002.7      46.7237      46.7237      46.7237 
  420000    113.54398   -7262.4294   -6672.1673   -662.66928     102002.7      46.7237      46.7237      46.7237 
  421000    107.18979   -7263.5896     -6706.36   -549.19803     102002.7      46.7237      46.7237      46.7237 
  422000    110.94106   -7266.5146   -6689.7838   -626.45547     102002.7      46.7237      46.7237      46.7237 
  423000    108.60911   -7300.0249   -6735.4169   -657.08563     102002.7      46.7237      46.7237      46.7237 
  424000    111.25131   -7270.5739   -6692.2303    -827.0008     102002.7      46.7237      46.7237      46.7237 
  425000    108.10835   -7282.3621   -6720.3573   -802.70728     102002.7      46.7237      46.7237      46.7237 
  426000    109.82001   -7265.1393   -6694.2363   -635.57983     102002.7      46.7237      46.7237      46.7237 
  427000    109.43708   -7269.6926   -6700.7804   -388.01475     102002.7      46.7237      46.7237      46.7237 
  428000    111.31518   -7281.8491   -6703.1735    -605.1604     102002.7      46.7237      46.7237      46.7237 
  429000     111.4121   -7263.5877   -6684.4082   -357.71581     102002.7      46.7237      46.7237      46.7237 
  430000    110.09234   -7274.8681   -6702.5495   -415.66757     102002.7      46.7237      46.7237      46.7237 
  431000    109.37656   -7261.4127   -6692.8151   -539.91726     102002.7      46.7237      46.7237      46.7237 
  432000    112.90302   -7279.4193   -6692.4893   -595.78342     102002.7      46.7237      46.7237      46.7237 
  433000    106.11861   -7281.9423   -6730.2813   -502.22936     102002.7      46.7237      46.7237      46.7237 
  434000    111.35968   -7267.3957   -6688.4888   -554.94422     102002.7      46.7237      46.7237      46.7237 
  435000    111.63815   -7256.3333   -6675.9787   -710.86884     102002.7      46.7237      46.7237      46.7237 
  436000     108.9221   -7261.7451     -6695.51   -591.65788     102002.7      46.7237      46.7237      46.7237 
  437000    109.27938   -7258.9861   -6690.8937   -591.36868     102002.7      46.7237      46.7237      46.7237 
  438000    108.36752   -7248.0093   -6684.6572   -672.58413     102002.7      46.7237      46.7237      46.7237 
  439000    109.30546    -7282.606    -6714.378   -1012.1378     102002.7      46.7237      46.7237      46.7237 
  440000    112.66278    -7269.127   -6683.4459   -667.05142     102002.7      46.7237      46.7237      46.7237 
  441000     109.6754   -7260.1766   -6690.0255   -560.23971     102002.7      46.7237      46.7237      46.7237 
  442000     111.3228   -7266.5923   -6687.8771   -595.56676     102002.7      46.7237      46.7237      46.7237 
  443000    112.84062   -7250.5816   -6663.9759   -742.61153     102002.7      46.7237      46.7237      46.7237 
  444000    109.76704   -7284.8024   -6714.1749   -646.87072     102002.7      46.7237      46.7237      46.7237 
  445000    107.92347   -7260.3166   -6699.2729   -818.58172     102002.7      46.7237      46.7237      46.7237 
  446000    108.93509   -7257.0023   -6690.6997   -715.79582     102002.7      46.7237      46.7237      46.7237 
  447000    109.49941   -7247.7638   -6678.5276   -618.86273     102002.7      46.7237      46.7237      46.7237 
  448000    109.60561   -7264.8354   -6695.0471   -903.10278     102002.7      46.7237      46.7237      46.7237 
  449000    110.50891   -7255.4066   -6680.9225   -691.29074     102002.7      46.7237      46.7237      46.7237 
  450000    111.36499   -7263.3799   -6684.4453   -867.14814     102002.7      46.7237      46.7237      46.7237 
  451000    110.85871    -7249.452   -6673.1493   -874.76434     102002.7      46.7237      46.7237      46.7237 
  452000    112.73353   -7269.0373   -6682.9884   -1045.0366     102002.7      46.7237      46.7237      46.7237 
  453000    106.81053    -7270.818     -6715.56   -867.62462     102002.7      46.7237      46.7237      46.7237 
  454000     112.1377   -7265.3331   -6682.3816   -751.08444     102002.7      46.7237      46.7237      46.7237 
  455000    109.10428   -7271.3648   -6704.1826   -876.14799     102002.7      46.7237      46.7237      46.7237 
  456000    112.63363   -7265.3253   -6679.7957   -691.63405     102002.7      46.7237      46.7237      46.7237 
  457000    113.12203   -7281.2815   -6693.2129   -1061.1163     102002.7      46.7237      46.7237      46.7237 
  458000    108.85894   -7279.8267   -6713.9199   -852.41165     102002.7      46.7237      46.7237      46.7237 
  459000    112.79625   -7273.1499   -6686.7749   -694.35559     102002.7      46.7237      46.7237      46.7237 
  460000    111.05103   -7290.3344   -6713.0319   -709.67426     102002.7      46.7237      46.7237      46.7237 
  461000    108.90006    -7266.832   -6700.7115   -791.22448     102002.7      46.7237      46.7237      46.7237 
  462000    108.77338   -7258.3418   -6692.8798   -1003.9864     102002.7      46.7237      46.7237      46.7237 
  463000    109.10931   -7256.4761   -6689.2678   -685.56123     102002.7      46.7237      46.7237      46.7237 
  464000    110.08103   -7267.4764   -6695.2166   -623.42388     102002.7      46.7237      46.7237      46.7237 
  465000    111.15756   -7254.4511   -6676.5949   -623.12926     102002.7      46.7237      46.7237      46.7237 
  466000    109.02398   -7263.3991   -6696.6343   -820.53653     102002.7      46.7237      46.7237      46.7237 
  467000    109.88364   -7268.4364   -6697.2027   -649.55549     102002.7      46.7237      46.7237      46.7237 
  468000    115.46618   -7261.7564   -6661.5017   -507.80478     102002.7      46.7237      46.7237      46.7237 
  469000    109.15713   -7269.1437   -6701.6868   -898.35407     102002.7      46.7237      46.7237      46.7237 
  470000    109.86615   -7267.7785   -6696.6357   -657.85296     102002.7      46.7237      46.7237      46.7237 
  471000    111.82431   -7269.6659   -6688.3436   -527.30093     102002.7      46.7237      46.7237      46.7237 
  472000    112.57718   -7250.6068   -6665.3706   -668.46837     102002.7      46.7237      46.7237      46.7237 
  473000    108.79755   -7255.8532   -6690.2656   -717.27949     102002.7      46.7237      46.7237      46.7237 
  474000     107.4091   -7254.7121   -6696.3423   -565.45012     102002.7      46.7237      46.7237      46.7237 
  475000    109.73437   -7250.0044   -6679.5467   -590.92086     102002.7      46.7237      46.7237      46.7237 
  476000    108.75554   -7273.3746   -6708.0054   -683.09824     102002.7      46.7237      46.7237      46.7237 
  477000    112.27614   -7251.2059   -6667.5347   -444.25172     102002.7      46.7237      46.7237      46.7237 
  478000    109.88324   -7276.5241   -6705.2925   -538.95942     102002.7      46.7237      46.7237      46.7237 
  479000    112.25764   -7270.8392   -6687.2642   -492.29936     102002.7      46.7237      46.7237      46.7237 
  480000    113.65445   -7271.7839   -6680.9475    -735.4391     102002.7      46.7237      46.7237      46.7237 
  481000    109.63141   -7273.4744   -6703.5519    -740.3502     102002.7      46.7237      46.7237      46.7237 
  482000    108.38847   -7280.0525   -6716.5914   -777.44597     102002.7      46.7237      46.7237      46.7237 
  483000    108.97169   -7271.5418   -6705.0489   -995.27765     102002.7      46.7237      46.7237      46.7237 
  484000    108.84942   -7254.7429   -6688.8856   -679.81097     102002.7      46.7237      46.7237      46.7237 
  485000    109.62954   -7274.7371   -6704.8243   -646.28486     102002.7      46.7237      46.7237      46.7237 
  486000     110.9378   -7275.3873   -6698.6735    -773.1296     102002.7      46.7237      46.7237      46.7237 
  487000    110.13167   -7274.7071    -6702.184   -864.02129     102002.7      46.7237      46.7237      46.7237 
  488000     110.6845   -7286.0637   -6710.6667   -896.37588     102002.7      46.7237      46.7237      46.7237 
  489000     111.5705   -7269.9221   -6689.9192   -862.67107     102002.7      46.7237      46.7237      46.7237 
  490000    107.92047   -7285.2169   -6724.1888   -439.50401     102002.7      46.7237      46.7237      46.7237 
  491000    108.49689   -7284.7783   -6720.7537   -494.19114     102002.7      46.7237      46.7237      46.7237 
  492000    110.22533   -7259.2362   -6686.2262   -612.68302     102002.7      46.7237      46.7237      46.7237 
  493000    112.15055    -7255.128   -6672.1097   -349.04265     102002.7      46.7237      46.7237      46.7237 
  494000     109.9571   -7269.8568   -6698.2412   -352.75584     102002.7      46.7237      46.7237      46.7237 
  495000    109.65675   -7249.8985   -6679.8443   -560.32626     102002.7      46.7237      46.7237      46.7237 
  496000    108.28788   -7263.4113   -6700.4732   -474.66459     102002.7      46.7237      46.7237      46.7237 
  497000    109.88156   -7285.7598   -6714.5369   -445.75813     102002.7      46.7237      46.7237      46.7237 
  498000     111.0017   -7264.8196   -6687.7736   -708.54605     102002.7      46.7237      46.7237      46.7237 
  499000     106.4951   -7255.4772    -6701.859   -526.24296     102002.7      46.7237      46.7237      46.7237 
  500000    110.77349   -7266.1477   -6690.2881   -898.06529     102002.7      46.7237      46.7237      46.7237 
  500505    109.33917   -7275.7403    -6707.337   -832.55191     102002.7      46.7237      46.7237      46.7237 
Loop time of 563.152 on 24 procs for 500000 steps with 1745 atoms

Performance: 76.711 ns/day, 0.313 hours/ns, 887.860 timesteps/s
99.9% CPU use with 24 MPI tasks x no OpenMP threads

MPI task timing breakdown:
Section |  min time  |  avg time  |  max time  |%varavg| %total
---------------------------------------------------------------
Pair    | 174.73     | 274.94     | 363.27     | 305.7 | 48.82
Bond    | 69.656     | 78.153     | 86.143     |  44.3 | 13.88
Neigh   | 1.8268     | 1.8478     | 1.8631     |   1.0 |  0.33
Comm    | 114.46     | 200.92     | 303.38     | 362.3 | 35.68
Output  | 0.34854    | 0.34893    | 0.35382    |   0.2 |  0.06
Modify  | 3.4815     | 3.9587     | 4.2396     |  11.1 |  0.70
Other   |            | 2.985      |            |       |  0.53

Nlocal:    72.7083 ave 91 max 50 min
Histogram: 1 1 2 1 5 4 3 3 2 2
Nghost:    1996.83 ave 2155 max 1903 min
Histogram: 12 4 0 0 0 0 0 0 0 8
Neighs:    7636.33 ave 11755 max 4436 min
Histogram: 3 2 5 2 0 2 6 3 0 1

Total # of neighbors = 183272
Ave neighs/atom = 105.027
Ave special neighs/atom = 6.60172
Neighbor list builds = 3488
Dangerous builds = 0
Neighbor list info ...
  update every 1 steps, delay 10 steps, check yes
  max neighbors/atom: 2000, page size: 100000
  master list distance cutoff = 16
  ghost atom cutoff = 16
  binsize = 8, bins = 6 6 6
  3 neighbor lists, perpetual/occasional/extra = 3 0 0
  (1) pair buck6d/coul/gauss/dsf, perpetual, skip from (3)
      attributes: half, newton on
      pair build: skip
      stencil: none
      bin: none
  (2) pair lj/cut, perpetual, skip from (3)
      attributes: half, newton on
      pair build: skip
      stencil: none
      bin: none
  (3) neighbor class addition, perpetual
      attributes: half, newton on
      pair build: half/bin/newton
      stencil: half/bin/3d/newton
      bin: standard
Setting up Verlet run ...
  Unit style    : real
  Current step  : 500505
  Time step     : 1
WARNING: Inconsistent image flags (../domain.cpp:786)
Per MPI rank memory allocation (min/avg/max) = 24.11 | 24.47 | 24.57 Mbytes
Step Time TotEng KinEng PotEng E_mol E_pair Temp Pxx Pyy Pzz Pxy Pxz Pyz Cella Cellb Cellc CellAlpha CellBeta CellGamma Volume Press 
  500505       500000    -6707.337    568.40323   -7275.7403    4303.2291   -11578.969    109.33917   -1032.7582   -519.40115   -945.49635    159.01802   -329.88847    182.25406      46.7237      46.7237      46.7237           90           90           90     102002.7   -832.55191 
  501000       500495   -6722.4883    559.14781   -7281.6361    4291.8386   -11573.475    107.55877   -978.80336   -472.64237   -700.03329   -204.54225    68.053852    116.94568      46.7237      46.7237      46.7237           90           90           90     102002.7   -717.15967 
  502000       501495   -6697.1603    574.37155   -7271.5318     4308.408    -11579.94    110.48724   -753.18375   -368.92295   -730.72836    -216.3913     50.39265    108.37143      46.7237      46.7237      46.7237           90           90           90     102002.7   -617.61168 
  503000       502495   -6658.2813     585.2922   -7243.5735    4332.8237   -11576.397    112.58796   -1064.3021   -974.46019   -714.47233    12.047645    246.14411   -162.66699      46.7237      46.7237      46.7237           90           90           90     102002.7   -917.74486 
  504000       503495   -6715.0128    565.68491   -7280.6977    4295.6086   -11576.306    108.81626    -868.7538   -530.93309   -800.66755   -186.94643   -177.27336   -216.10038      46.7237      46.7237      46.7237           90           90           90     102002.7   -733.45148 
  505000       504495   -6699.9239    571.62493   -7271.5488    4307.6401   -11579.189     109.9589   -1104.6434   -249.44948   -888.55171   -166.36697    9.0354174   -256.79458      46.7237      46.7237      46.7237           90           90           90     102002.7   -747.54821 
  506000       505495   -6682.6626    555.82794   -7238.4905    4343.3719   -11581.862    106.92016   -343.23212   -813.86794   -575.98356    364.03354   -88.694881    58.067771      46.7237      46.7237      46.7237           90           90           90     102002.7   -577.69454 
  507000       506495   -6699.3711    566.87802   -7266.2491     4315.725   -11581.974    109.04577   -1037.0659   -766.29404   -764.86245    -16.70045    73.815343   -143.30036      46.7237      46.7237      46.7237           90           90           90     102002.7   -856.07413 
  508000       507495   -6733.8432    550.02029   -7283.8635    4280.8526   -11564.716    105.80299   -1235.2913   -481.44678   -1055.6395    4.1117801    6.5459975   -32.239894      46.7237      46.7237      46.7237           90           90           90     102002.7   -924.12583 
  509000       508495   -6697.3874    566.00659    -7263.394    4330.6536   -11594.048    108.87814   -699.75367   -536.19956   -1038.2575    43.904096   -60.991181    32.482884      46.7237      46.7237      46.7237           90           90           90     102002.7   -758.07024 
  510000       509495   -6707.6135    572.50445   -7280.1179    4307.0465   -11587.164    110.12808   -918.45906   -900.40847   -1041.0514   -5.0230151    273.15105   -17.002572      46.7237      46.7237      46.7237           90           90           90     102002.7    -953.3063 
  511000       510495   -6717.7659    556.09524   -7273.8611    4298.8486    -11572.71    106.97158   -612.58141   -666.59758   -661.32243    248.70336    -149.3556   -372.15013      46.7237      46.7237      46.7237           90           90           90     102002.7    -646.8338 
  512000       511495   -6698.2367     574.8256   -7273.0623    4279.1727   -11552.235    110.57459   -341.49695    -406.6247   -727.40467    85.197898   -106.58831    9.7321799      46.7237      46.7237      46.7237           90           90           90     102002.7    -491.8421 
  513000       512495   -6736.5087    555.16536   -7291.6741    4298.3542   -11590.028     106.7927   -655.56155   -700.40055   -822.08484    47.761687   -102.38892   -9.8750759      46.7237      46.7237      46.7237           90           90           90     102002.7   -726.01565 
  514000       513495   -6685.2327    573.75608   -7258.9888    4299.9014    -11558.89    110.36885   -735.81929   -660.61985   -217.52058   -36.755292   -118.13123    129.99558      46.7237      46.7237      46.7237           90           90           90     102002.7   -537.98657 
  515000       514495   -6691.3989    584.45899   -7275.8579    4308.9931   -11584.851    112.42768   -653.87323   -621.13795   -782.94371    -38.56108    147.20874    32.647031      46.7237      46.7237      46.7237           90           90           90     102002.7   -685.98496 
  516000       515495   -6707.6187    570.79483   -7278.4136    4281.3762    -11559.79    109.79922   -497.88712    -499.5645   -815.82868   -5.1395139   -295.98593    164.29778      46.7237      46.7237      46.7237           90           90           90     102002.7   -604.42677 
  517000       516495    -6694.324    565.61366   -7259.9376    4325.8769   -11585.815    108.80256   -463.36428   -792.15814   -529.86733    195.24703    126.12658    -178.9744      46.7237      46.7237      46.7237           90           90           90     102002.7   -595.12992 
  518000       517495   -6671.1663    577.38148   -7248.5478    4316.1889   -11564.737    111.06624   -129.90268   -713.60408   -602.94533    61.290595    31.457398   -113.55675      46.7237      46.7237      46.7237           90           90           90     102002.7    -482.1507 
  519000       518495   -6699.6223    569.47972    -7269.102    4285.3547   -11554.457    109.54624   -664.23224    -691.3812   -751.73525  -0.95677108   -109.56134    114.25901      46.7237      46.7237      46.7237           90           90           90     102002.7   -702.44956 
  520000       519495    -6698.064    565.80674   -7263.8708    4317.5152   -11581.386     108.8397   -549.29661   -205.47857   -237.72832    52.005144    122.48363    130.43517      46.7237      46.7237      46.7237           90           90           90     102002.7    -330.8345 
  521000       520495    -6709.462    565.56866   -7275.0307     4294.861   -11569.892     108.7939   -813.49176    -610.8541   -67.467197   -148.90436    246.97664   -89.314817      46.7237      46.7237      46.7237           90           90           90     102002.7   -497.27102 
  522000       521495   -6681.2218    585.39603   -7266.6178    4301.0774   -11567.695    112.60793   -999.20897   -629.41447   -371.01733   -210.06148    166.46978     83.99009      46.7237      46.7237      46.7237           90           90           90     102002.7   -666.54693 
  523000       522495   -6715.2589     573.4826   -7288.7415     4272.796   -11561.538    110.31624   -74.404798   -120.34763    -412.6712    71.112182    87.639923    66.728521      46.7237      46.7237      46.7237           90           90           90     102002.7   -202.47454 
  524000       523495   -6725.5367    565.24173   -7290.7784    4277.9515    -11568.73    108.73101   -581.90567   -464.12706   -695.82752   -96.240256   -161.91276   -134.00345      46.7237      46.7237      46.7237           90           90           90     102002.7   -580.62009 
  525000       524495   -6687.1942    574.94014   -7262.1343    4330.7851   -11592.919    110.59662   -536.84063   -1119.2264   -820.56823    125.98755   -115.99542   -218.68203      46.7237      46.7237      46.7237           90           90           90     102002.7   -825.54507 
  526000       525495   -6716.5272    559.69828   -7276.2255    4297.1181   -11573.344    107.66466    -350.7625   -319.57287   -628.17086     -28.3452   -75.535973   -162.40864      46.7237      46.7237      46.7237           90           90           90     102002.7   -432.83541 
  527000       526495   -6692.7594    588.96724   -7281.7267    4279.8638    -11561.59     113.2949   -308.20612   -840.08511   -406.09539   -173.53727   -94.457216   -51.475879      46.7237      46.7237      46.7237           90           90           90     102002.7   -518.12887 
  528000       527495   -6732.6935    547.30079   -7279.9943    4306.9202   -11586.914    105.27986   -716.13313   -999.84405   -396.54705    239.32188     60.83481   -137.28392      46.7237      46.7237      46.7237           90           90           90     102002.7   -704.17474 
  529000       528495   -6687.8613    578.48316   -7266.3445    4326.8812   -11593.226    111.27816   -351.91605   -440.31959     -352.917    164.09117   -38.068994    3.2824784      46.7237      46.7237      46.7237           90           90           90     102002.7   -381.71755 
  530000       529495   -6682.1023    577.16018   -7259.2624    4308.0033   -11567.266    111.02367   -797.83801   -297.46993   -1074.1096    126.59607   -37.046565   -146.58674      46.7237      46.7237      46.7237           90           90           90     102002.7   -723.13918 
  531000       530495   -6699.0053    555.01759   -7254.0229    4317.2701   -11571.293    106.76428   -706.77837   -798.79789   -576.60116   -86.610276      145.929   -72.096141      46.7237      46.7237      46.7237           90           90           90     102002.7   -694.05914 
  532000       531495   -6666.5828    581.36881   -7247.9516    4339.7249   -11587.677    111.83325   -875.83055   -845.21436   -1047.8007    106.45001   -95.027129    48.319965      46.7237      46.7237      46.7237           90           90           90     102002.7   -922.94855 
  533000       532495   -6710.1528    567.41416    -7277.567    4308.4307   -11585.998    109.14891   -1035.4474     -736.753   -937.29913    8.1214947     30.68767    -152.9729      46.7237      46.7237      46.7237           90           90           90     102002.7    -903.1665 
  534000       533495    -6691.991    562.89197    -7254.883    4319.7741   -11574.657    108.27901   -814.80823   -816.75828   -954.01242   -87.047872    35.481282    41.013176      46.7237      46.7237      46.7237           90           90           90     102002.7   -861.85965 
  535000       534495   -6721.5188    564.79928   -7286.3181     4299.269   -11585.587     108.6459   -1004.8552   -592.83447   -816.32992     -1.46621   -16.286981    176.16607      46.7237      46.7237      46.7237           90           90           90     102002.7   -804.67319 
  536000       535495   -6687.7355    580.36063   -7268.0961    4311.6979   -11579.794    111.63932   -769.98306   -1330.9768   -1042.4666    276.89346    20.776177   -12.948628      46.7237      46.7237      46.7237           90           90           90     102002.7   -1047.8088 
  537000       536495   -6716.1326    551.10302   -7267.2357    4302.4932   -11569.729    106.01126   -1073.1925    -837.1294   -888.30883    198.58741    98.392615   -92.931494      46.7237      46.7237      46.7237           90           90           90     102002.7    -932.8769 
  538000       537495   -6700.4175    565.27063   -7265.6881    4302.5295   -11568.218    108.73657   -807.07144   -989.63185    -608.7194   -39.363938    66.009376   -24.463187      46.7237      46.7237      46.7237           90           90           90     102002.7   -801.80756 
  539000       538495   -6654.2806    607.02681   -7261.3074    4334.9598   -11596.267    116.76887   -520.16532   -781.41834   -942.67184   -195.54873   -196.91943    -114.0345      46.7237      46.7237      46.7237           90           90           90     102002.7   -748.08517 
  540000       539495   -6697.4507    574.64003   -7272.0907    4295.2813   -11567.372    110.53889   -960.18454   -550.23883   -1231.3815   -52.404035    213.80375   -106.32951      46.7237      46.7237      46.7237           90           90           90     102002.7   -913.93497 
  541000       540495   -6664.3253     590.0408   -7254.3661    4326.2865   -11580.653    113.50141   -930.97644   -935.61478   -682.07695   -11.540954   -3.5365801   -93.338746      46.7237      46.7237      46.7237           90           90           90     102002.7   -849.55605 
  542000       541495   -6701.6001     569.1265   -7270.7266    4313.2242   -11583.951     109.4783   -816.09673   -672.69071   -518.31937   -111.10497   -225.58169    108.21832      46.7237      46.7237      46.7237           90           90           90     102002.7    -669.0356 
  543000       542495    -6720.155    552.11368   -7272.2687    4308.6421   -11580.911    106.20568   -682.91583   -397.29931    -1363.797   -3.6822324   -232.88629    100.78593      46.7237      46.7237      46.7237           90           90           90     102002.7   -814.67073 
  544000       543495   -6664.0065    591.14794   -7255.1545    4320.1497   -11575.304    113.71438   -398.37709   -702.01567   -347.35767   -158.52687    126.90335    52.721419      46.7237      46.7237      46.7237           90           90           90     102002.7   -482.58348 
  545000       544495   -6691.4517    577.97247   -7269.4242    4293.2265   -11562.651    111.17992   -727.36504   -587.89568   -367.58253  -0.77819278    78.760741    1.7147581      46.7237      46.7237      46.7237           90           90           90     102002.7   -560.94775 
  546000       545495   -6668.9265    577.12534   -7246.0518    4333.6252   -11579.677    111.01697   -521.98879   -759.69246   -371.13704   -45.983831   -200.20893   -80.104182      46.7237      46.7237      46.7237           90           90           90     102002.7   -550.93943 
  547000       546495   -6697.8257    572.16163   -7269.9874    4316.6213   -11586.609    110.06214   -208.81854   -597.71172   -824.56531    42.159162    66.257523    427.79168      46.7237      46.7237      46.7237           90           90           90     102002.7   -543.69852 
  548000       547495   -6694.0029    556.48182   -7250.4847    4320.7497   -11571.234    107.04594   -1166.9704   -948.47343   -925.60147    84.205179   -52.693248   -35.951943      46.7237      46.7237      46.7237           90           90           90     102002.7   -1013.6818 
  549000       548495   -6694.8236    573.82865   -7268.6523     4310.546   -11579.198    110.38281   -491.28882    -1018.042   -649.45845   -21.343518    158.50526   -256.40474      46.7237      46.7237      46.7237           90           90           90     102002.7   -719.59643 
  550000       549495   -6705.9824    566.64256    -7272.625    4305.9883   -11578.613    109.00048    -764.9379   -800.48395   -670.29831   -64.196383   -77.693752    178.84334      46.7237      46.7237      46.7237           90           90           90     102002.7   -745.24006 
  551000       550495   -6699.1788    569.69364   -7268.8724    4305.2581   -11574.131    109.58739   -869.88168   -424.77184    -718.3814   -81.167513    97.049787   -64.034386      46.7237      46.7237      46.7237           90           90           90     102002.7   -671.01164 
  552000       551495   -6689.1865    579.35043   -7268.5369    4320.7866   -11589.323    111.44499   -1074.4449   -809.29915   -794.49374    212.93926    58.625519    43.070999      46.7237      46.7237      46.7237           90           90           90     102002.7   -892.74592 
  553000       552495   -6712.5329    558.41432   -7270.9472    4312.0034   -11582.951    107.41768   -1203.3903   -699.73352   -479.16523     17.84562   -89.812566    30.470849      46.7237      46.7237      46.7237           90           90           90     102002.7   -794.09636 
  554000       553495   -6698.8888    576.23736   -7275.1262     4287.408   -11562.534    110.84615   -481.76485   -156.34569   -569.09248    12.576235   -231.85366    88.746393      46.7237      46.7237      46.7237           90           90           90     102002.7   -402.40101 
  555000       554495   -6696.7583    570.11808   -7266.8764    4307.7285   -11574.605    109.66904   -999.11083   -371.84322   -699.57947    6.5114646   -73.174547    19.134886      46.7237      46.7237      46.7237           90           90           90     102002.7   -690.17784 
[...]
  936000       935495   -6700.6151    555.46101   -7256.0761    4335.5917   -11591.668    106.84957   -720.50385   -884.87271   -743.39289    -58.79649    -30.93257    44.273052      46.7237      46.7237      46.7237           90           90           90     102002.7   -782.92315 
  937000       936495   -6677.2411     576.9291   -7254.1702    4324.1914   -11578.362    110.97922   -814.35732   -544.60917   -1032.7832    123.97617   -156.05331    186.83292      46.7237      46.7237      46.7237           90           90           90     102002.7   -797.24989 
  938000       937495   -6717.5255    561.23936   -7278.7649    4302.9163   -11581.681    107.96111   -865.85054    -976.3346   -448.96346    10.906938   -13.872033   -123.05829      46.7237      46.7237      46.7237           90           90           90     102002.7    -763.7162 
  939000       938495   -6695.8197    570.32813   -7266.1479    4306.6598   -11572.808    109.70944   -800.47714   -517.09204   -876.39554    37.399671   -209.03961   -133.54054      46.7237      46.7237      46.7237           90           90           90     102002.7   -731.32157 
  940000       939495   -6672.1283    587.10607   -7259.2343    4320.8299   -11580.064    112.93688   -1121.9673   -762.70844   -478.06092   -106.68384    146.76927     95.46819      46.7237      46.7237      46.7237           90           90           90     102002.7   -787.57888 
  941000       940495   -6699.3527    569.27622   -7268.6289    4306.3913    -11575.02     109.5071   -531.74191   -926.36354    -655.9335     241.9116    396.08051    285.06234      46.7237      46.7237      46.7237           90           90           90     102002.7   -704.67965 
  942000       941495   -6714.8444    556.60348   -7271.4479    4313.1467   -11584.595    107.06934   -831.70271   -983.48041   -847.71922    53.567208   -104.42454    -309.2306      46.7237      46.7237      46.7237           90           90           90     102002.7   -887.63411 
  943000       942495   -6709.6209     570.0569   -7279.6778    4294.7799   -11574.458    109.65727   -715.21604    -727.8791   -937.25012   -128.97212   -93.086037    75.941672      46.7237      46.7237      46.7237           90           90           90     102002.7   -793.44842 
  944000       943495   -6693.6847    569.81635    -7263.501    4299.4814   -11562.982      109.611   -767.28095   -1141.5073   -638.86884   -123.48818    69.013093   -35.550745      46.7237      46.7237      46.7237           90           90           90     102002.7   -849.21902 
  945000       944495    -6725.743    558.03002    -7283.773    4298.8887   -11582.662    107.34375   -771.52576    -345.3064   -929.00447    165.15119   -171.96195   -99.254742      46.7237      46.7237      46.7237           90           90           90     102002.7   -681.94554 
  946000       945495   -6686.6889    579.22864   -7265.9175    4316.2848   -11582.202    111.42156   -715.98527   -556.67687   -760.39564   -4.5795346   -358.29442   -110.74481      46.7237      46.7237      46.7237           90           90           90     102002.7   -677.68592 
  947000       946495    -6680.111    581.46523   -7261.5763    4319.0619   -11580.638     111.8518   -328.16594   -905.33782   -808.80468    114.42683   -44.173167   -76.954982      46.7237      46.7237      46.7237           90           90           90     102002.7   -680.76948 
  948000       947495   -6719.3105    551.44822   -7270.7588    4307.5146   -11578.273    106.07767   -492.89218   -964.36859   -696.61771    89.801765    146.20141   -161.47246      46.7237      46.7237      46.7237           90           90           90     102002.7   -717.95949 
  949000       948495   -6678.4864    567.81792   -7246.3043    4345.3974   -11591.702    109.22657   -1257.2119   -720.40285   -431.30897    16.324683   -153.98936   -43.994591      46.7237      46.7237      46.7237           90           90           90     102002.7   -802.97458 
  950000       949495   -6690.2478    566.98506   -7257.2329     4318.486   -11575.719    109.06636   -684.80594   -689.29512   -531.06054    18.359451   -111.71369   -96.616369      46.7237      46.7237      46.7237           90           90           90     102002.7   -635.05387 
  951000       950495   -6714.5243    558.22089   -7272.7452    4287.7802   -11560.525    107.38047   -1004.7632   -1059.9374   -847.15349   -3.6082306    67.271855    207.23319      46.7237      46.7237      46.7237           90           90           90     102002.7   -970.61805 
  952000       951495   -6692.3515     575.7468   -7268.0983    4303.5715    -11571.67    110.75179   -685.60151   -405.66695   -1001.0541    122.64257   -125.98855    34.286183      46.7237      46.7237      46.7237           90           90           90     102002.7   -697.44086 
  953000       952495   -6697.6283    572.89858   -7270.5269    4313.7818   -11584.309     110.2039    -734.4535   -704.39783   -744.45102   -204.14334   -149.84334   -64.420997      46.7237      46.7237      46.7237           90           90           90     102002.7   -727.76745 
  954000       953495   -6702.4966    565.52209   -7268.0187     4309.901    -11577.92    108.78494   -995.66602   -776.06725   -1011.7589    182.42116   -232.38292    223.62427      46.7237      46.7237      46.7237           90           90           90     102002.7   -927.83072 
  955000       954495    -6671.228    596.19691   -7267.4249    4302.0312   -11569.456    114.68561   -421.66093   -160.61488   -935.88102    65.805463   -57.328292    47.072634      46.7237      46.7237      46.7237           90           90           90     102002.7   -506.05227 
  956000       955495    -6698.398    590.89291   -7289.2909    4277.6231   -11566.914    113.66533   -653.64084   -343.49257   -327.22598   -25.177487   -398.11439   -37.742603      46.7237      46.7237      46.7237           90           90           90     102002.7   -441.45313 
  957000       956495   -6687.9623    581.80718   -7269.7695      4284.61   -11554.379    111.91757   -34.702175    -798.7342   -469.28727    86.174128  -0.19909705   -94.966353      46.7237      46.7237      46.7237           90           90           90     102002.7   -434.24121 
  958000       957495   -6706.5542     577.2477   -7283.8019    4281.1946   -11564.997    111.04051   -852.43875   -823.94303   -226.02179    61.121127   -33.425594    51.620666      46.7237      46.7237      46.7237           90           90           90     102002.7   -634.13452 
  959000       958495   -6684.0319    580.83556   -7264.8675    4320.9946   -11585.862    111.73067   -1003.5916   -387.12094   -686.51396   -189.61502    266.12401   -21.532614      46.7237      46.7237      46.7237           90           90           90     102002.7   -692.40884 
  960000       959495   -6691.9396    571.07999   -7263.0196    4316.4852   -11579.505    109.85407    -774.3241    -871.7659   -658.69212    294.92803   -65.268568   -144.78792      46.7237      46.7237      46.7237           90           90           90     102002.7    -768.2607 
  961000       960495   -6742.8203      549.108   -7291.9283    4282.1426   -11574.071     105.6275   -910.14442   -889.85656   -1200.7338    51.570673    125.24993    57.018312      46.7237      46.7237      46.7237           90           90           90     102002.7   -1000.2449 
  962000       961495   -6699.2709    574.51587   -7273.7868    4314.3849   -11588.172      110.515   -894.60621   -436.75485   -1048.1207   -22.235382    43.349123    211.31806      46.7237      46.7237      46.7237           90           90           90     102002.7    -793.1606 
  963000       962495   -6678.6342    578.94935   -7257.5835    4319.7333   -11577.317    111.36784   -383.01187    -1322.712   -603.26634   -44.111701     226.2422   -116.88101      46.7237      46.7237      46.7237           90           90           90     102002.7    -769.6634 
  964000       963495   -6705.9146    561.65083   -7267.5654    4329.6636   -11597.229    108.04026   -795.69638   -886.04724     -890.468   -79.575954    334.35654    213.61298      46.7237      46.7237      46.7237           90           90           90     102002.7   -857.40387 
  965000       964495   -6684.3424    579.32233   -7263.6647    4320.4541   -11584.119    111.43959   -924.64722   -967.21532   -751.18271    287.45164   -46.933982    20.530618      46.7237      46.7237      46.7237           90           90           90     102002.7   -881.01508 
  966000       965495   -6706.8515    572.92676   -7279.7782    4282.4869   -11562.265    110.20932   -838.28985   -789.22373    -401.1147   -29.045653   -62.987963   -43.734561      46.7237      46.7237      46.7237           90           90           90     102002.7   -676.20943 
  967000       966495   -6678.2495    578.46446   -7256.7139    4317.2869   -11574.001    111.27456   -1089.6113    -690.4579   -588.00637   -188.33095   -333.66759    119.73338      46.7237      46.7237      46.7237           90           90           90     102002.7   -789.35853 
  968000       967495   -6709.0069    567.57588   -7276.5828    4290.8178   -11567.401    109.18002   -687.85154   -937.23103   -1118.0762   -13.158617    9.3481893   -64.263504      46.7237      46.7237      46.7237           90           90           90     102002.7   -914.38625 
  969000       968495   -6687.7315    587.40321   -7275.1347    4306.8888   -11582.024    112.99404   -696.17367   -697.18462   -916.61779    538.00508    146.25737   -350.33079      46.7237      46.7237      46.7237           90           90           90     102002.7   -769.99203 
  970000       969495   -6726.8087    550.08891   -7276.8976    4301.5094   -11578.407    105.81619   -817.49228   -481.24805   -1130.4384   -239.40775   -118.61061    1.9538698      46.7237      46.7237      46.7237           90           90           90     102002.7   -809.72625 
  971000       970495   -6703.9156    579.40901   -7283.3246    4290.5414   -11573.866    111.45626   -533.27394   -674.95207   -1167.3535   -84.987292    192.07513   -243.16378      46.7237      46.7237      46.7237           90           90           90     102002.7   -791.85982 
  972000       971495   -6688.9131    577.11942   -7266.0325    4317.6367   -11583.669    111.01583   -820.80333   -202.07482   -542.57559    94.047505    39.516999   -295.08575      46.7237      46.7237      46.7237           90           90           90     102002.7   -521.81791 
  973000       972495   -6722.2319     550.3798   -7272.6117    4315.5625   -11588.174    105.87214   -1055.0602   -277.95764    -934.3155    158.97438    65.296316   -64.385106      46.7237      46.7237      46.7237           90           90           90     102002.7   -755.77778 
  974000       973495   -6702.7504    567.07594   -7269.8264    4286.3259   -11556.152    109.08385   -614.22838   -1003.7468   -703.17645     11.08899    18.371235     -1.00298      46.7237      46.7237      46.7237           90           90           90     102002.7   -773.71722 
  975000       974495   -6699.5017    574.27515   -7273.7768    4314.2813   -11588.058     110.4687   -408.97297   -441.46247   -663.84973   -54.835408   -151.45272   -122.39738      46.7237      46.7237      46.7237           90           90           90     102002.7   -504.76172 
  976000       975495   -6695.8342      572.032   -7267.8662    4309.0798   -11576.946     110.0372   -895.73531   -498.99815     -471.811    43.704898    64.788502   -31.344075      46.7237      46.7237      46.7237           90           90           90     102002.7   -622.18149 
  977000       976495   -6701.3636    578.13546   -7279.4991    4291.5753   -11571.074    111.21128   -835.74348   -729.33869    -443.8455   -187.81022   -201.96336   -177.37177      46.7237      46.7237      46.7237           90           90           90     102002.7   -669.64255 
  978000       977495   -6726.9006    557.13403   -7284.0346    4303.1428   -11587.177     107.1714   -388.97281   -601.39009   -821.32456    23.735851    55.888591   -48.892545      46.7237      46.7237      46.7237           90           90           90     102002.7   -603.89582 
  979000       978495   -6685.7208    572.79385   -7258.5146    4314.4068   -11572.921    110.18375   -771.02679   -275.47293   -1103.4001    6.0762213     35.11162    214.99505      46.7237      46.7237      46.7237           90           90           90     102002.7   -716.63327 
  980000       979495   -6706.8952     570.8885   -7277.7837    4301.4178   -11579.201    109.81724   -252.11238   -812.22936   -620.14005   -138.40375     202.4627    89.579834      46.7237      46.7237      46.7237           90           90           90     102002.7   -561.49393 
  981000       980495   -6695.7464    570.66403   -7266.4105    4312.4632   -11578.874    109.77406   -403.83887   -405.63845   -739.85032   -80.831855    224.66532   -66.737728      46.7237      46.7237      46.7237           90           90           90     102002.7   -516.44255 
  982000       981495    -6686.969    584.75275   -7271.7218    4301.7826   -11573.504    112.48419    -153.9767   -428.24778   -564.13582   -178.03043   -17.443798   -13.314356      46.7237      46.7237      46.7237           90           90           90     102002.7    -382.1201 
  983000       982495   -6696.6773    570.30594   -7266.9833    4304.4115   -11571.395    109.70517    -608.3818   -338.60745   -640.46491    259.45235    65.287833    45.422123      46.7237      46.7237      46.7237           90           90           90     102002.7   -529.15139 
  984000       983495   -6679.5584    577.15145   -7256.7099    4337.2982   -11594.008    111.02199   -398.04006   -1020.3208   -218.79726    21.243845    158.78334    6.3110513      46.7237      46.7237      46.7237           90           90           90     102002.7   -545.71936 
  985000       984495   -6693.5614    577.88337   -7271.4448    4292.2756    -11563.72    111.16278   -1299.0505   -368.65806   -544.99524   -65.490883   -80.872034   -547.54031      46.7237      46.7237      46.7237           90           90           90     102002.7   -737.56793 
  986000       985495   -6700.1438    576.20351   -7276.3473    4321.0543   -11597.402    110.83964   -920.91995   -121.30061   -752.27769    199.83542   -80.948478    185.85769      46.7237      46.7237      46.7237           90           90           90     102002.7   -598.16608 
  987000       986495   -6691.7139    573.78589   -7265.4998    4296.1584   -11561.658    110.37458   -351.37301   -617.38678   -537.82538    31.610538   -182.38353    82.312063      46.7237      46.7237      46.7237           90           90           90     102002.7   -502.19506 
  988000       987495   -6696.8893    564.21149   -7261.1008    4310.7093    -11571.81    108.53283   -1115.9385   -643.11118   -621.36505   -55.104213   -2.0352501    120.36523      46.7237      46.7237      46.7237           90           90           90     102002.7   -793.47159 
  989000       988495   -6673.6072    582.74929   -7256.3564    4336.5697   -11592.926     112.0988   -941.57036   -472.15678   -397.99251    56.618158   -8.3670034   -73.457035      46.7237      46.7237      46.7237           90           90           90     102002.7   -603.90655 
  990000       989495   -6694.7541    575.09588     -7269.85    4299.3967   -11569.247    110.62658   -251.84906   -603.08256    -705.8977   -161.88561   -253.01974    5.3226473      46.7237      46.7237      46.7237           90           90           90     102002.7   -520.27644 
  991000       990495    -6693.326     567.5812   -7260.9072    4328.2201   -11589.127    109.18104   -821.11436   -755.46916   -409.81193   -330.46731    57.719197    137.89306      46.7237      46.7237      46.7237           90           90           90     102002.7   -662.13181 
  992000       991495    -6722.196    567.38546   -7289.5815    4282.3201   -11571.902    109.14339   -854.37702   -539.93062   -824.49371   -102.32561    208.71032    121.20877      46.7237      46.7237      46.7237           90           90           90     102002.7   -739.60045 
  993000       992495   -6697.2162    553.89868   -7251.1149    4333.4079   -11584.523    106.54904    69.055498   -936.57851   -576.45674   -82.040889   -164.59969    40.918363      46.7237      46.7237      46.7237           90           90           90     102002.7   -481.32658 
  994000       993495   -6713.8889    568.20916   -7282.0981    4293.6766   -11575.775    109.30183   -1106.2825   -300.10763   -865.47294   -156.81336    234.74415   -5.6465668      46.7237      46.7237      46.7237           90           90           90     102002.7   -757.28767 
  995000       994495   -6696.2607    559.36343   -7255.6242    4325.5735   -11581.198    107.60025   -445.62426   -859.34611   -884.61701   -160.96895   -70.904266    241.66773      46.7237      46.7237      46.7237           90           90           90     102002.7   -729.86246 
  996000       995495   -6700.9193    576.60953   -7277.5289    4308.6216    -11586.15    110.91775   -785.98182   -628.19994   -962.03293   -85.813198    9.5417211    16.414507      46.7237      46.7237      46.7237           90           90           90     102002.7   -792.07156 
  997000       996495   -6666.2529    587.31736   -7253.5703    4316.9807   -11570.551    112.97753   -546.39848   -850.88438    -1165.848    146.12113   -167.96176    29.941413      46.7237      46.7237      46.7237           90           90           90     102002.7   -854.37694 
  998000       997495     -6707.52    546.12837   -7253.6484    4317.6419    -11571.29    105.05433   -958.57803   -614.77871    -941.4948    5.2358731   -237.92382    164.14841      46.7237      46.7237      46.7237           90           90           90     102002.7   -838.28385 
  999000       998495   -6694.8888    567.22915    -7262.118    4322.3397   -11584.458    109.11332   -944.79097   -823.18747   -996.72994   -44.274493   -116.27314   -16.254571      46.7237      46.7237      46.7237           90           90           90     102002.7   -921.56946 
 1000000       999495   -6698.8796     569.9691   -7268.8487    4295.4827   -11564.331    109.64038   -577.69108   -873.68412   -933.20921   -162.29785    236.95518   -103.27833      46.7237      46.7237      46.7237           90           90           90     102002.7   -794.86147 
 1000505      1000000   -6722.6169    567.10954   -7289.7265    4290.4001   -11580.127    109.09031   -461.41892   -459.01365   -650.13667    289.07968    55.841243   -133.73602      46.7237      46.7237      46.7237           90           90           90     102002.7   -523.52308 
Loop time of 619.506 on 24 procs for 500000 steps with 1745 atoms

Performance: 69.733 ns/day, 0.344 hours/ns, 807.095 timesteps/s
99.9% CPU use with 24 MPI tasks x no OpenMP threads

MPI task timing breakdown:
Section |  min time  |  avg time  |  max time  |%varavg| %total
---------------------------------------------------------------
Pair    | 189.23     | 303.19     | 406.21     | 338.7 | 48.94
Bond    | 72.107     | 82.221     | 93.858     |  67.8 | 13.27
Neigh   | 1.8133     | 1.8353     | 1.8496     |   1.0 |  0.30
Comm    | 102.84     | 216.87     | 333.83     | 418.3 | 35.01
Output  | 0.36352    | 0.42996    | 0.43306    |   2.1 |  0.07
Modify  | 11.338     | 11.957     | 12.368     |   8.0 |  1.93
Other   |            | 2.997      |            |       |  0.48

Nlocal:    72.7083 ave 96 max 53 min
Histogram: 2 2 4 3 2 4 2 3 0 2
Nghost:    1982.25 ave 2129 max 1886 min
Histogram: 6 8 2 0 0 0 0 0 1 7
Neighs:    7641 ave 11451 max 4326 min
Histogram: 2 4 2 2 5 3 1 1 0 4

Total # of neighbors = 183384
Ave neighs/atom = 105.091
Ave special neighs/atom = 6.60172
Neighbor list builds = 3451
Dangerous builds = 0
Total wall time: 0:19:44
