LAMMPS (30 Mar 2018)
Reading data file ...
  orthogonal box = (0 0 0) to (46.7237 46.7237 46.7237)
  2 by 2 by 4 MPI processor grid
  reading atoms ...
  3130 atoms
  scanning bonds ...
  5 = max bonds/atom
  scanning angles ...
  10 = max angles/atom
  scanning dihedrals ...
  32 = max dihedrals/atom
  scanning impropers ...
  3 = max impropers/atom
  reading bonds ...
  2064 bonds
  reading angles ...
  3696 angles
  reading dihedrals ...
  6240 dihedrals
  reading impropers ...
  1008 impropers
Finding 1-2 1-3 1-4 neighbors ...
  special bond factors lj:   0          0          0         
  special bond factors coul: 0          0          0         
  5 = max # of 1-2 neighbors
  8 = max # of 1-3 neighbors
  20 = max # of 1-4 neighbors
  19 = max # of special neighbors
Finding 1-2 1-3 1-4 neighbors ...
  special bond factors lj:   0          0          1         
  special bond factors coul: 1          1          1         
  5 = max # of 1-2 neighbors
  8 = max # of 1-3 neighbors
  19 = max # of special neighbors
WARNING: Using 'neigh_modify every 1 delay 0 check yes' setting during minimization (../min.cpp:168)
Neighbor list info ...
  update every 1 steps, delay 0 steps, check yes
  max neighbors/atom: 2000, page size: 100000
  master list distance cutoff = 16
  ghost atom cutoff = 16
  binsize = 8, bins = 6 6 6
  3 neighbor lists, perpetual/occasional/extra = 3 0 0
  (1) pair buck6d/coul/gauss/dsf, perpetual, skip from (3)
      attributes: half, newton on
      pair build: skip
      stencil: none
      bin: none
  (2) pair lj/cut, perpetual, skip from (3)
      attributes: half, newton on
      pair build: skip
      stencil: none
      bin: none
  (3) neighbor class addition, perpetual
      attributes: half, newton on
      pair build: half/bin/newton
      stencil: half/bin/3d/newton
      bin: standard
Setting up cg style minimization ...
  Unit style    : real
  Current step  : 0
WARNING: Inconsistent image flags (../domain.cpp:786)
Per MPI rank memory allocation (min/avg/max) = 23.01 | 23.47 | 23.91 Mbytes
Step Temp E_pair E_mol TotEng Press 
       0            0   -15150.315    6482.8914   -8667.4236    6159.9519 
     500            0   -15630.645    3753.2615   -11877.384   -2109.9804 
Loop time of 4.52175 on 16 procs for 500 steps with 3130 atoms

99.9% CPU use with 16 MPI tasks x no OpenMP threads

Minimization stats:
  Stopping criterion = max force evaluations
  Energy initial, next-to-last, final = 
        -8667.42360405     -11877.2924084     -11877.3838918
  Force two-norm initial, final = 2575.55 14.186
  Force max component initial, final = 152.219 2.375
  Final line search alpha, max atom move = 0.00712346 0.0169182
  Iterations, force evaluations = 500 1000

MPI task timing breakdown:
Section |  min time  |  avg time  |  max time  |%varavg| %total
---------------------------------------------------------------
Pair    | 2.4064     | 2.8852     | 3.649      |  20.5 | 63.81
Bond    | 0.28324    | 0.36054    | 0.42238    |   6.9 |  7.97
Neigh   | 0.033334   | 0.033445   | 0.033593   |   0.0 |  0.74
Comm    | 0.39074    | 1.1969     | 1.7144     |  33.4 | 26.47
Output  | 0          | 0          | 0          |   0.0 |  0.00
Modify  | 0          | 0          | 0          |   0.0 |  0.00
Other   |            | 0.04568    |            |       |  1.01

Nlocal:    195.625 ave 219 max 171 min
Histogram: 1 2 1 3 1 1 2 2 0 3
Nghost:    3919.81 ave 3947 max 3889 min
Histogram: 2 0 2 2 1 0 3 2 3 1
Neighs:    11474.8 ave 17100 max 6072 min
Histogram: 1 2 3 0 2 1 4 1 1 1

Total # of neighbors = 183596
Ave neighs/atom = 58.6569
Ave special neighs/atom = 3.68051
Neighbor list builds = 10
Dangerous builds = 0
Neighbor list info ...
  update every 1 steps, delay 10 steps, check yes
  max neighbors/atom: 2000, page size: 100000
  master list distance cutoff = 16
  ghost atom cutoff = 16
  binsize = 8, bins = 6 6 6
  3 neighbor lists, perpetual/occasional/extra = 3 0 0
  (1) pair buck6d/coul/gauss/dsf, perpetual, skip from (3)
      attributes: half, newton on
      pair build: skip
      stencil: none
      bin: none
  (2) pair lj/cut, perpetual, skip from (3)
      attributes: half, newton on
      pair build: skip
      stencil: none
      bin: none
  (3) neighbor class addition, perpetual
      attributes: half, newton on
      pair build: half/bin/newton
      stencil: half/bin/3d/newton
      bin: standard
Setting up Verlet run ...
  Unit style    : real
  Current step  : 500
  Time step     : 1
WARNING: Inconsistent image flags (../domain.cpp:786)
Per MPI rank memory allocation (min/avg/max) = 22.66 | 22.74 | 22.85 Mbytes
Step Temp PotEng TotEng Press Volume Lx Ly Lz 
     500          130   -11877.384    -10664.88   -1566.5994     102002.7      46.7237      46.7237      46.7237 
    1000     111.0112   -10884.898   -9849.5014   -103.80867     102002.7      46.7237      46.7237      46.7237 
    2000    131.42943   -10726.481   -9500.6444   -154.25769     102002.7      46.7237      46.7237      46.7237 
    3000    130.30612   -10713.922   -9498.5631    41.688352     102002.7      46.7237      46.7237      46.7237 
    4000    126.49265   -10735.606   -9555.8152    421.15838     102002.7      46.7237      46.7237      46.7237 
    5000    132.91323   -10729.214   -9489.5385    17.682417     102002.7      46.7237      46.7237      46.7237 
    6000    127.44784   -10742.138   -9553.4374   -195.41251     102002.7      46.7237      46.7237      46.7237 
    7000    128.63455   -10726.625   -9526.8559   -178.29504     102002.7      46.7237      46.7237      46.7237 
    8000    130.59521   -10731.549   -9513.4933   -420.55806     102002.7      46.7237      46.7237      46.7237 
    9000    130.35887   -10710.118   -9494.2669   -165.16214     102002.7      46.7237      46.7237      46.7237 
   10000    130.86635   -10715.824     -9495.24   -216.76252     102002.7      46.7237      46.7237      46.7237 
   11000    133.23607   -10755.654   -9512.9676    -78.74278     102002.7      46.7237      46.7237      46.7237 
   12000    127.67336   -10755.345   -9564.5413   -33.106237     102002.7      46.7237      46.7237      46.7237 
   13000     132.1785   -10731.472   -9498.6494    -78.44796     102002.7      46.7237      46.7237      46.7237 
   14000    131.91562   -10747.325   -9516.9545   -432.41356     102002.7      46.7237      46.7237      46.7237 
   15000    128.19612   -10779.543   -9583.8634   -340.52309     102002.7      46.7237      46.7237      46.7237 
   16000    127.19953   -10738.427   -9552.0424    -306.1486     102002.7      46.7237      46.7237      46.7237 
   17000    131.45023    -10742.87   -9516.8398   -264.74673     102002.7      46.7237      46.7237      46.7237 
   18000    131.32488   -10734.541   -9509.6793   -92.125845     102002.7      46.7237      46.7237      46.7237 
   19000    132.00134   -10734.271   -9503.1002   -50.057595     102002.7      46.7237      46.7237      46.7237 
   20000    130.54793   -10703.453   -9485.8379   -126.02109     102002.7      46.7237      46.7237      46.7237 
   21000    131.05366   -10776.672   -9554.3407   -240.17653     102002.7      46.7237      46.7237      46.7237 
   22000    129.67769   -10739.613   -9530.1147   -22.617962     102002.7      46.7237      46.7237      46.7237 
   23000    127.61957   -10681.877   -9491.5753    92.671363     102002.7      46.7237      46.7237      46.7237 
   24000    128.91236   -10736.486   -9534.1265   -25.500933     102002.7      46.7237      46.7237      46.7237 
   25000    131.51293   -10730.799   -9504.1843    23.168997     102002.7      46.7237      46.7237      46.7237 
   26000    129.98091   -10703.341   -9491.0147   -192.81316     102002.7      46.7237      46.7237      46.7237 
   27000    128.42028   -10736.989   -9539.2188   -215.45623     102002.7      46.7237      46.7237      46.7237 
   28000    131.13755   -10740.661   -9517.5469   -86.004288     102002.7      46.7237      46.7237      46.7237 
   29000     129.4961   -10721.504   -9513.6999   -303.70825     102002.7      46.7237      46.7237      46.7237 
   30000    131.81531   -10755.912   -9526.4762   -473.88404     102002.7      46.7237      46.7237      46.7237 
   31000    132.41237   -10750.479   -9515.4745    -368.8901     102002.7      46.7237      46.7237      46.7237 
   32000    130.79675   -10713.915   -9493.9795   -146.49397     102002.7      46.7237      46.7237      46.7237 
   33000    130.11847   -10747.053   -9533.4443   -409.72252     102002.7      46.7237      46.7237      46.7237 
   34000    126.14453   -10728.296   -9551.7516    129.02224     102002.7      46.7237      46.7237      46.7237 
   35000    131.84208   -10694.828   -9465.1434   -55.173015     102002.7      46.7237      46.7237      46.7237 
   36000    130.19032   -10743.794   -9529.5151   -331.32045     102002.7      46.7237      46.7237      46.7237 
   37000    132.38861   -10709.825   -9475.0423   -268.52864     102002.7      46.7237      46.7237      46.7237 
   38000    127.73422   -10733.259   -9541.8876     17.05844     102002.7      46.7237      46.7237      46.7237 
   39000     131.1293   -10738.438   -9515.4013   -592.30382     102002.7      46.7237      46.7237      46.7237 
   40000    132.61377   -10711.371   -9474.4887   -551.14122     102002.7      46.7237      46.7237      46.7237 
   41000    126.56262   -10725.844   -9545.4004   -444.52599     102002.7      46.7237      46.7237      46.7237 
   42000    132.39687   -10746.424   -9511.5642   -270.54006     102002.7      46.7237      46.7237      46.7237 
   43000    129.80602   -10753.084   -9542.3896   -57.290914     102002.7      46.7237      46.7237      46.7237 
   44000    133.38869   -10721.287   -9477.1771   -319.29489     102002.7      46.7237      46.7237      46.7237 
   45000    130.97751   -10740.772   -9519.1505   -464.89711     102002.7      46.7237      46.7237      46.7237 
   46000    133.05587   -10725.586     -9484.58    -158.2251     102002.7      46.7237      46.7237      46.7237 
   47000    130.60226   -10726.464   -9508.3425    120.14553     102002.7      46.7237      46.7237      46.7237 
   48000    128.55143   -10737.051   -9538.0578   -175.10533     102002.7      46.7237      46.7237      46.7237 
   49000    132.33878   -10736.552   -9502.2346   -205.34315     102002.7      46.7237      46.7237      46.7237 
   50000    128.11733   -10747.273   -9552.3285   -400.21243     102002.7      46.7237      46.7237      46.7237 
   51000    130.62471   -10733.432   -9515.1016   -119.52789     102002.7      46.7237      46.7237      46.7237 
   52000    131.81077   -10740.791   -9511.3984    46.536551     102002.7      46.7237      46.7237      46.7237 
   53000    132.52631   -10752.375   -9516.3084   -240.09033     102002.7      46.7237      46.7237      46.7237 
   54000    126.63363   -10719.413   -9538.3071   -106.46879     102002.7      46.7237      46.7237      46.7237 
   55000    132.15112   -10760.007   -9527.4398   -301.20419     102002.7      46.7237      46.7237      46.7237 
   56000    130.41862   -10741.103   -9524.6947   -448.86393     102002.7      46.7237      46.7237      46.7237 
   57000     130.9813    -10725.71   -9504.0538   -85.947292     102002.7      46.7237      46.7237      46.7237 
   58000     132.6032   -10750.003   -9513.2187   -285.93813     102002.7      46.7237      46.7237      46.7237 
   59000    127.95934   -10746.895   -9553.4239    -364.5673     102002.7      46.7237      46.7237      46.7237 
   60000    128.86499   -10717.812    -9515.894   -42.737845     102002.7      46.7237      46.7237      46.7237 
   61000     126.5324   -10724.768   -9544.6065   -224.11246     102002.7      46.7237      46.7237      46.7237 
   62000    130.29755   -10734.775   -9519.4957   -162.00044     102002.7      46.7237      46.7237      46.7237 
   63000    130.41831   -10755.776   -9539.3702   -123.65799     102002.7      46.7237      46.7237      46.7237 
   64000    131.15626    -10743.44   -9520.1516   -152.94165     102002.7      46.7237      46.7237      46.7237 
   65000    129.92132   -10737.547   -9525.7768   -74.302392     102002.7      46.7237      46.7237      46.7237 
   66000    130.39389   -10705.518   -9489.3402   -116.36921     102002.7      46.7237      46.7237      46.7237 
   67000    133.26537   -10746.363   -9503.4031   -308.22547     102002.7      46.7237      46.7237      46.7237 
   68000    130.79353   -10736.721   -9516.8158   -238.75085     102002.7      46.7237      46.7237      46.7237 
   69000    129.95125   -10747.978   -9535.9284   -121.60106     102002.7      46.7237      46.7237      46.7237 
   70000    129.57043   -10699.464   -9490.9665    37.961865     102002.7      46.7237      46.7237      46.7237 
   71000    130.44113    -10706.98   -9490.3611    58.005338     102002.7      46.7237      46.7237      46.7237 
   72000    127.75014   -10737.207   -9545.6877   -17.986296     102002.7      46.7237      46.7237      46.7237 
   73000     132.6274   -10724.826    -9487.816   -251.73484     102002.7      46.7237      46.7237      46.7237 
   74000    130.71765   -10717.041   -9497.8435   -120.20392     102002.7      46.7237      46.7237      46.7237 
   75000    134.07397   -10736.223   -9485.7212   -183.59883     102002.7      46.7237      46.7237      46.7237 
   76000    127.73767   -10731.443   -9540.0391   -174.56277     102002.7      46.7237      46.7237      46.7237 
   77000    133.12657   -10704.422   -9462.7568    13.491214     102002.7      46.7237      46.7237      46.7237 
   78000    127.68044   -10742.477   -9551.6074   -299.03126     102002.7      46.7237      46.7237      46.7237 
   79000    129.21929   -10773.938   -9568.7159   -156.96818     102002.7      46.7237      46.7237      46.7237 
   80000     131.9744   -10725.527   -9494.6079   -197.25783     102002.7      46.7237      46.7237      46.7237 
   81000    126.22758   -10719.699   -9542.3802   -432.98071     102002.7      46.7237      46.7237      46.7237 
   82000    130.85425    -10762.64   -9542.1682   -286.00941     102002.7      46.7237      46.7237      46.7237 
   83000     128.6967   -10717.573    -9517.225   -321.79891     102002.7      46.7237      46.7237      46.7237 
   84000    132.17151   -10739.721   -9506.9632   -438.26604     102002.7      46.7237      46.7237      46.7237 
   85000    129.00903   -10722.569   -9519.3076   -393.56716     102002.7      46.7237      46.7237      46.7237 
   86000    128.54609   -10740.216   -9541.2724   -437.36591     102002.7      46.7237      46.7237      46.7237 
   87000    129.14715   -10752.119   -9547.5698   -387.93361     102002.7      46.7237      46.7237      46.7237 
   88000    130.25948   -10707.344   -9492.4193   -180.68076     102002.7      46.7237      46.7237      46.7237 
   89000    131.00249   -10721.962   -9500.1075   -215.21769     102002.7      46.7237      46.7237      46.7237 
   90000    125.20464   -10749.571   -9581.7931   -469.48411     102002.7      46.7237      46.7237      46.7237 
   91000    131.00954    -10713.76     -9491.84   -274.88833     102002.7      46.7237      46.7237      46.7237 
   92000    127.48704   -10738.489   -9549.4236   -455.86757     102002.7      46.7237      46.7237      46.7237 
   93000    127.23175   -10715.954    -9529.269   -117.09015     102002.7      46.7237      46.7237      46.7237 
   94000    127.06324   -10728.551   -9543.4375   -321.37784     102002.7      46.7237      46.7237      46.7237 
   95000       128.75   -10717.049    -9516.204   -168.27805     102002.7      46.7237      46.7237      46.7237 
   96000    129.51182   -10747.379   -9539.4281   0.30088979     102002.7      46.7237      46.7237      46.7237 
   97000    135.88478   -10738.546    -9471.155   -139.80539     102002.7      46.7237      46.7237      46.7237 
   98000    132.55702   -10730.397   -9494.0438   -147.98759     102002.7      46.7237      46.7237      46.7237 
   99000    131.24629   -10753.259   -9529.1313   -235.14061     102002.7      46.7237      46.7237      46.7237 
  100000    130.13261    -10709.49   -9495.7486   -458.19743     102002.7      46.7237      46.7237      46.7237 
  101000    132.49606   -10733.273   -9497.4882   -381.11979     102002.7      46.7237      46.7237      46.7237 
  102000    128.10591    -10743.98   -9549.1416   -417.49002     102002.7      46.7237      46.7237      46.7237 
  103000    128.41331   -10734.499   -9536.7934   -358.75736     102002.7      46.7237      46.7237      46.7237 
  104000    130.49941   -10729.848   -9512.6858   -357.26477     102002.7      46.7237      46.7237      46.7237 
  105000    128.05102   -10742.374   -9548.0475   -501.65664     102002.7      46.7237      46.7237      46.7237 
  106000     130.0927   -10750.856    -9537.487   -249.27199     102002.7      46.7237      46.7237      46.7237 
  107000    130.57377   -10699.108   -9481.2524   -388.58082     102002.7      46.7237      46.7237      46.7237 
  108000    130.02263    -10717.35    -9504.635    -146.1445     102002.7      46.7237      46.7237      46.7237 
  109000    128.97819   -10711.412   -9508.4381   -591.52726     102002.7      46.7237      46.7237      46.7237 
  110000    133.60429   -10708.103   -9461.9815   -431.12993     102002.7      46.7237      46.7237      46.7237 
  111000    126.20178   -10728.499   -9551.4207   -403.49646     102002.7      46.7237      46.7237      46.7237 
  112000    132.51916   -10728.669   -9492.6684   -217.95047     102002.7      46.7237      46.7237      46.7237 
  113000    128.32848   -10707.135    -9510.221    17.978424     102002.7      46.7237      46.7237      46.7237 
  114000     129.7225   -10723.178   -9513.2621   -292.63636     102002.7      46.7237      46.7237      46.7237 
  115000    127.61766   -10744.027   -9553.7427    145.16108     102002.7      46.7237      46.7237      46.7237 
  116000    128.90167   -10731.844   -9529.5837   -268.52239     102002.7      46.7237      46.7237      46.7237 
  117000    126.58246   -10734.458   -9553.8287    -85.22377     102002.7      46.7237      46.7237      46.7237 
  118000    132.71443   -10747.137   -9509.3158   -31.470228     102002.7      46.7237      46.7237      46.7237 
  119000    129.47024   -10711.287   -9503.7243   -448.15406     102002.7      46.7237      46.7237      46.7237 
  120000    126.55024   -10749.008     -9568.68   -295.81413     102002.7      46.7237      46.7237      46.7237 
  121000    128.01301   -10739.494   -9545.5227   -265.86723     102002.7      46.7237      46.7237      46.7237 
  122000    128.97277   -10741.775   -9538.8518    20.790309     102002.7      46.7237      46.7237      46.7237 
  123000    127.97406   -10728.582   -9534.9742   -58.273039     102002.7      46.7237      46.7237      46.7237 
  124000    128.50056   -10712.498   -9513.9793   -508.80267     102002.7      46.7237      46.7237      46.7237 
  125000    128.97038   -10722.477   -9519.5762    8.8047576     102002.7      46.7237      46.7237      46.7237 
  126000    128.08368   -10737.193   -9542.5621   -341.53677     102002.7      46.7237      46.7237      46.7237 
  127000    130.37893   -10719.802   -9503.7631   -313.00144     102002.7      46.7237      46.7237      46.7237 
  128000    130.09209   -10721.585    -9508.222   -544.43687     102002.7      46.7237      46.7237      46.7237 
  129000    131.30713   -10767.406   -9542.7105   -380.97369     102002.7      46.7237      46.7237      46.7237 
  130000    132.09412   -10745.686   -9513.6502    -487.2348     102002.7      46.7237      46.7237      46.7237 
  131000    132.27073   -10715.344   -9481.6605    -185.7802     102002.7      46.7237      46.7237      46.7237 
  132000    132.42681   -10757.293   -9522.1546   -154.16247     102002.7      46.7237      46.7237      46.7237 
  133000    131.31669   -10740.169   -9515.3843   -20.800485     102002.7      46.7237      46.7237      46.7237 
  134000    129.25408   -10746.462   -9540.9148   -187.93792     102002.7      46.7237      46.7237      46.7237 
  135000    129.31731    -10718.62   -9512.4836   -159.20108     102002.7      46.7237      46.7237      46.7237 
  136000     130.0642   -10742.668   -9529.5656   -97.600928     102002.7      46.7237      46.7237      46.7237 
  137000    131.18905    -10727.53   -9503.9355    16.753808     102002.7      46.7237      46.7237      46.7237 
  138000    131.69937   -10746.977   -9518.6225     -644.996     102002.7      46.7237      46.7237      46.7237 
  139000    129.08143   -10739.021   -9535.0847   -204.00492     102002.7      46.7237      46.7237      46.7237 
  140000    133.13048    -10729.57   -9487.8681    -254.8386     102002.7      46.7237      46.7237      46.7237 
  141000    130.23533   -10730.761   -9516.0617   -412.20538     102002.7      46.7237      46.7237      46.7237 
  142000    126.62103    -10731.48    -9550.491   -381.82544     102002.7      46.7237      46.7237      46.7237 
  143000    129.49352   -10730.224   -9522.4438   -245.02384     102002.7      46.7237      46.7237      46.7237 
  144000    128.28095   -10731.773   -9535.3028   -427.23752     102002.7      46.7237      46.7237      46.7237 
  145000    126.49589   -10750.843   -9571.0213   -378.66779     102002.7      46.7237      46.7237      46.7237 
  146000    130.80449   -10731.954   -9511.9466    3.4250524     102002.7      46.7237      46.7237      46.7237 
  147000    129.37578    -10716.63   -9509.9477   -349.42189     102002.7      46.7237      46.7237      46.7237 
  148000    128.64777   -10731.118   -9531.2261   -307.34114     102002.7      46.7237      46.7237      46.7237 
  149000    130.77217   -10742.789   -9523.0829   -230.44827     102002.7      46.7237      46.7237      46.7237 
  150000    132.32075   -10735.152   -9501.0023   -479.01945     102002.7      46.7237      46.7237      46.7237 
  151000    132.82855   -10724.516   -9485.6304   -300.01229     102002.7      46.7237      46.7237      46.7237 
  152000    132.64878   -10745.986   -9508.7767   -292.97769     102002.7      46.7237      46.7237      46.7237 
  153000    129.92689   -10728.646   -9516.8234   -158.68244     102002.7      46.7237      46.7237      46.7237 
  154000    132.15183    -10739.65   -9507.0756   -137.30859     102002.7      46.7237      46.7237      46.7237 
  155000    128.40293   -10758.389   -9560.7809    -237.7423     102002.7      46.7237      46.7237      46.7237 
  156000    130.70278   -10740.909     -9521.85    65.201254     102002.7      46.7237      46.7237      46.7237 
  157000    129.08645   -10734.199   -9530.2156   -63.784459     102002.7      46.7237      46.7237      46.7237 
  158000    130.31029   -10727.129   -9511.7313   -389.17951     102002.7      46.7237      46.7237      46.7237 
  159000     129.6918   -10739.992   -9530.3628   -238.56817     102002.7      46.7237      46.7237      46.7237 
  160000    130.06476   -10750.681   -9537.5731   -398.57793     102002.7      46.7237      46.7237      46.7237 
  161000    127.97635   -10743.746   -9550.1166     44.01268     102002.7      46.7237      46.7237      46.7237 
  162000    131.63677   -10739.342   -9511.5721   -357.76721     102002.7      46.7237      46.7237      46.7237 
  163000    132.00032   -10727.608    -9496.447   -65.894024     102002.7      46.7237      46.7237      46.7237 
  164000    129.05034    -10726.65   -9523.0033   -81.023169     102002.7      46.7237      46.7237      46.7237 
  165000    128.59281   -10736.037   -9536.6575   -117.59208     102002.7      46.7237      46.7237      46.7237 
  166000    128.62423   -10759.769    -9560.097   -386.02101     102002.7      46.7237      46.7237      46.7237 
  167000    129.62451   -10743.909   -9534.9069   -381.85875     102002.7      46.7237      46.7237      46.7237 
  168000    128.98593   -10717.781   -9514.7351   -582.01932     102002.7      46.7237      46.7237      46.7237 
  169000    131.07953   -10707.491   -9484.9184   -215.85321     102002.7      46.7237      46.7237      46.7237 
  170000    131.52378    -10720.03   -9493.3134   -906.27923     102002.7      46.7237      46.7237      46.7237 
  171000    130.03352   -10725.326   -9512.5093   -361.49738     102002.7      46.7237      46.7237      46.7237 
  172000    132.64351   -10742.132   -9504.9724   -450.36053     102002.7      46.7237      46.7237      46.7237 
  173000    127.34115    -10746.31   -9558.6053   -283.87763     102002.7      46.7237      46.7237      46.7237 
  174000    132.02251    -10712.77   -9481.4021    6.4576121     102002.7      46.7237      46.7237      46.7237 
  175000    133.32962   -10735.919   -9492.3593    57.627762     102002.7      46.7237      46.7237      46.7237 
  176000    130.25358   -10738.577   -9523.7074   -39.650363     102002.7      46.7237      46.7237      46.7237 
  177000    129.58817   -10733.616   -9524.9535   -259.37646     102002.7      46.7237      46.7237      46.7237 
  178000    130.69125    -10715.78   -9496.8286   -58.250244     102002.7      46.7237      46.7237      46.7237 
  179000      129.798    -10758.98   -9548.3599   -14.942675     102002.7      46.7237      46.7237      46.7237 
  180000    125.66141   -10763.482   -9591.4434   -246.81604     102002.7      46.7237      46.7237      46.7237 
  181000    130.75475   -10758.209   -9538.6658   -83.712537     102002.7      46.7237      46.7237      46.7237 
  182000    126.68996   -10749.092   -9567.4608   -71.027859     102002.7      46.7237      46.7237      46.7237 
  183000    132.28806   -10720.118   -9486.2729    -322.5353     102002.7      46.7237      46.7237      46.7237 
  184000    128.54133   -10746.075   -9547.1761    -308.3948     102002.7      46.7237      46.7237      46.7237 
  185000     130.4581   -10773.081    -9556.304   -110.06284     102002.7      46.7237      46.7237      46.7237 
  186000    130.09112   -10738.207   -9524.8529   -214.99522     102002.7      46.7237      46.7237      46.7237 
  187000    127.13918   -10750.009   -9564.1876   -408.15773     102002.7      46.7237      46.7237      46.7237 
  188000    131.82846   -10732.799   -9503.2405   -354.03695     102002.7      46.7237      46.7237      46.7237 
  189000    132.73095   -10744.464   -9506.4885   -442.50487     102002.7      46.7237      46.7237      46.7237 
  190000    128.52228     -10753.2   -9554.4789   -284.00688     102002.7      46.7237      46.7237      46.7237 
  191000    133.18502   -10757.614   -9515.4036   -180.02894     102002.7      46.7237      46.7237      46.7237 
  192000    127.69806    -10735.33   -9544.2962   -163.27947     102002.7      46.7237      46.7237      46.7237 
  193000    133.09569   -10728.662   -9487.2845    2.6409053     102002.7      46.7237      46.7237      46.7237 
  194000    131.52103   -10725.625   -9498.9338   -205.17764     102002.7      46.7237      46.7237      46.7237 
  195000    131.77694   -10716.254   -9487.1761   -104.23598     102002.7      46.7237      46.7237      46.7237 
  196000    130.34279   -10732.959   -9517.2573   -172.06977     102002.7      46.7237      46.7237      46.7237 
  197000    127.66053   -10738.037   -9547.3534   -219.06719     102002.7      46.7237      46.7237      46.7237 
  198000    133.43493   -10713.258   -9468.7162    -430.9044     102002.7      46.7237      46.7237      46.7237 
  199000    127.47542   -10708.908   -9519.9504   -379.70973     102002.7      46.7237      46.7237      46.7237 
  200000    127.55259    -10740.99   -9551.3132   -249.40369     102002.7      46.7237      46.7237      46.7237 
  201000    130.02113   -10738.559    -9525.858   -116.83457     102002.7      46.7237      46.7237      46.7237 
  202000    128.29402   -10726.513   -9529.9203   -284.80834     102002.7      46.7237      46.7237      46.7237 
  203000    129.56797   -10719.529   -9511.0546   -5.4334881     102002.7      46.7237      46.7237      46.7237 
  204000    130.20806    -10769.55   -9555.1051   -124.79483     102002.7      46.7237      46.7237      46.7237 
  205000    133.13964   -10726.964   -9485.1768   -130.27705     102002.7      46.7237      46.7237      46.7237 
  206000    130.35358   -10734.633   -9518.8307   -338.40154     102002.7      46.7237      46.7237      46.7237 
  207000    126.24986   -10756.525    -9578.998    22.077069     102002.7      46.7237      46.7237      46.7237 
  208000    130.64853   -10719.632   -9501.0796   -206.31455     102002.7      46.7237      46.7237      46.7237 
  209000    129.73183   -10731.134   -9521.1315   -41.562667     102002.7      46.7237      46.7237      46.7237 
  210000    128.01479   -10684.471   -9490.4832   -393.13169     102002.7      46.7237      46.7237      46.7237 
  211000    130.48069   -10745.141   -9528.1536   -294.60611     102002.7      46.7237      46.7237      46.7237 
  212000    129.18849   -10722.697   -9517.7618   -138.58271     102002.7      46.7237      46.7237      46.7237 
  213000    130.87498   -10731.412    -9510.747   -473.17171     102002.7      46.7237      46.7237      46.7237 
  214000    127.73673   -10712.419   -9521.0242   -355.23413     102002.7      46.7237      46.7237      46.7237 
  215000    133.01242   -10726.332   -9485.7317   -320.47065     102002.7      46.7237      46.7237      46.7237 
  216000    128.60652   -10737.184    -9537.677   -220.67271     102002.7      46.7237      46.7237      46.7237 
  217000    130.29701   -10711.555   -9496.2807   -352.51211     102002.7      46.7237      46.7237      46.7237 
  218000    134.15046   -10706.967   -9455.7522   -509.81143     102002.7      46.7237      46.7237      46.7237 
  219000    129.94105   -10739.121    -9527.167   -399.72415     102002.7      46.7237      46.7237      46.7237 
  220000    130.50535   -10744.293    -9527.076   -429.67636     102002.7      46.7237      46.7237      46.7237 
  221000     132.8235   -10742.131   -9503.2926   -369.46615     102002.7      46.7237      46.7237      46.7237 
  222000    128.11578   -10741.409   -9546.4791   -91.001657     102002.7      46.7237      46.7237      46.7237 
  223000    129.60753   -10716.703    -9507.859   -411.76668     102002.7      46.7237      46.7237      46.7237 
  224000    128.22558   -10735.158   -9539.2042   -336.68836     102002.7      46.7237      46.7237      46.7237 
  225000    128.11351   -10727.129     -9532.22   -207.68819     102002.7      46.7237      46.7237      46.7237 
  226000    128.03432   -10722.112   -9527.9421   -367.96729     102002.7      46.7237      46.7237      46.7237 
  227000    131.15209   -10727.199    -9503.949   -243.19282     102002.7      46.7237      46.7237      46.7237 
  228000    129.26998   -10777.752   -9572.0571   -340.42672     102002.7      46.7237      46.7237      46.7237 
  229000    130.55495   -10745.241   -9527.5609     -609.072     102002.7      46.7237      46.7237      46.7237 
  230000    128.45639   -10690.087   -9491.9804   -185.67446     102002.7      46.7237      46.7237      46.7237 
  231000    131.61895   -10740.989   -9513.3846   -201.51893     102002.7      46.7237      46.7237      46.7237 
  232000    130.84004   -10735.501   -9515.1622   -434.24494     102002.7      46.7237      46.7237      46.7237 
  233000    129.43897   -10733.738   -9526.4668   -287.69213     102002.7      46.7237      46.7237      46.7237 
  234000      129.416   -10743.636   -9536.5793   -57.538493     102002.7      46.7237      46.7237      46.7237 
  235000    130.44083   -10751.545   -9534.9288    8.8121869     102002.7      46.7237      46.7237      46.7237 
  236000    131.05694   -10737.754   -9515.3923   -151.25023     102002.7      46.7237      46.7237      46.7237 
  237000    135.08908   -10741.376   -9481.4061   -519.82979     102002.7      46.7237      46.7237      46.7237 
  238000    129.63203   -10713.635   -9504.5633   -407.28353     102002.7      46.7237      46.7237      46.7237 
  239000    129.71138   -10737.622   -9527.8096    -551.2041     102002.7      46.7237      46.7237      46.7237 
  240000    130.56278   -10724.535   -9506.7823   -154.14046     102002.7      46.7237      46.7237      46.7237 
  241000    127.83176   -10725.027   -9532.7462   -383.85585     102002.7      46.7237      46.7237      46.7237 
  242000    128.69322   -10705.781   -9505.4649    -311.6186     102002.7      46.7237      46.7237      46.7237 
  243000    131.27326   -10765.266   -9540.8859   -458.84623     102002.7      46.7237      46.7237      46.7237 
  244000    130.10091   -10737.778   -9524.3324   -388.69689     102002.7      46.7237      46.7237      46.7237 
  245000    132.74248   -10755.607   -9517.5237   -476.82398     102002.7      46.7237      46.7237      46.7237 
  246000    130.96376   -10729.483   -9507.9904   -376.02259     102002.7      46.7237      46.7237      46.7237 
  247000    129.59173   -10745.201   -9536.5052   -203.95437     102002.7      46.7237      46.7237      46.7237 
  248000    128.54565   -10720.408   -9521.4682   -69.863037     102002.7      46.7237      46.7237      46.7237 
  249000    131.72845   -10736.657   -9508.0318    4.8635676     102002.7      46.7237      46.7237      46.7237 
  250000    129.15815   -10748.371   -9543.7188    130.27247     102002.7      46.7237      46.7237      46.7237 
  251000    127.98997   -10734.605   -9540.8484   -3.3364938     102002.7      46.7237      46.7237      46.7237 
  252000    130.70793   -10737.293   -9518.1859   -313.20669     102002.7      46.7237      46.7237      46.7237 
  253000    128.46164   -10754.215   -9556.0594   -201.92701     102002.7      46.7237      46.7237      46.7237 
  254000    131.38728   -10722.059   -9496.6156   -223.54081     102002.7      46.7237      46.7237      46.7237 
  255000    127.74128   -10754.953   -9563.5158   -449.02209     102002.7      46.7237      46.7237      46.7237 
  256000     135.1871   -10745.999   -9485.1145   -292.78818     102002.7      46.7237      46.7237      46.7237 
  257000    127.92897   -10732.956   -9539.7684   -301.49937     102002.7      46.7237      46.7237      46.7237 
  258000    129.87558   -10758.932   -9547.5884   -311.66706     102002.7      46.7237      46.7237      46.7237 
  259000     128.6554   -10708.026   -9508.0631   -284.98679     102002.7      46.7237      46.7237      46.7237 
  260000    132.04804   -10742.232   -9510.6262   -437.61879     102002.7      46.7237      46.7237      46.7237 
  261000    131.34018   -10712.526   -9487.5224   -54.192097     102002.7      46.7237      46.7237      46.7237 
  262000    128.76443   -10719.546   -9518.5662   -263.60824     102002.7      46.7237      46.7237      46.7237 
  263000    125.72807    -10706.43     -9533.77   -286.24275     102002.7      46.7237      46.7237      46.7237 
  264000    129.66007   -10718.785   -9509.4519   -297.40365     102002.7      46.7237      46.7237      46.7237 
  265000     129.9458   -10759.523   -9547.5242   -392.81425     102002.7      46.7237      46.7237      46.7237 
  266000     132.9532   -10754.768   -9514.7191   -309.23062     102002.7      46.7237      46.7237      46.7237 
  267000    129.38727   -10718.127   -9511.3376    -450.7342     102002.7      46.7237      46.7237      46.7237 
  268000    129.64934   -10739.699   -9530.4652   -395.58225     102002.7      46.7237      46.7237      46.7237 
  269000    129.02074   -10733.736   -9530.3651   -10.485552     102002.7      46.7237      46.7237      46.7237 
  270000    128.89806   -10721.683    -9519.457   -100.48781     102002.7      46.7237      46.7237      46.7237 
  271000     129.2151   -10723.931   -9518.7476    22.516631     102002.7      46.7237      46.7237      46.7237 
  272000    128.88848   -10748.724   -9546.5869   -397.90049     102002.7      46.7237      46.7237      46.7237 
  273000     132.2484     -10729.7   -9496.2251   -541.62526     102002.7      46.7237      46.7237      46.7237 
  274000    131.00576   -10712.105   -9490.2206    127.22143     102002.7      46.7237      46.7237      46.7237 
  275000    130.45557   -10756.463   -9539.7094   -393.45831     102002.7      46.7237      46.7237      46.7237 
  276000    131.71877    -10722.82   -9494.2848     129.7653     102002.7      46.7237      46.7237      46.7237 
  277000    129.26571    -10749.36    -9543.705   -252.84785     102002.7      46.7237      46.7237      46.7237 
  278000    130.04004   -10723.235   -9510.3579   -245.75209     102002.7      46.7237      46.7237      46.7237 
  279000     130.8813   -10737.567   -9516.8434   -595.14411     102002.7      46.7237      46.7237      46.7237 
  280000    128.83678   -10760.758   -9559.1031   -387.26525     102002.7      46.7237      46.7237      46.7237 
  281000    129.59069   -10724.788   -9516.1013   -356.54681     102002.7      46.7237      46.7237      46.7237 
  282000    129.97061    -10745.92   -9533.6901   -392.51006     102002.7      46.7237      46.7237      46.7237 
  283000    131.88351   -10732.752   -9502.6803   -215.40167     102002.7      46.7237      46.7237      46.7237 
  284000    129.05083    -10727.58   -9523.9287   -324.29176     102002.7      46.7237      46.7237      46.7237 
  285000    129.97955   -10745.838   -9533.5243   -122.71037     102002.7      46.7237      46.7237      46.7237 
  286000    130.17826   -10736.718    -9522.551   -80.604496     102002.7      46.7237      46.7237      46.7237 
  287000    130.51545   -10740.006   -9522.6943   -437.35764     102002.7      46.7237      46.7237      46.7237 
  288000     128.6445   -10740.139   -9540.2779   -341.08175     102002.7      46.7237      46.7237      46.7237 
  289000     129.1256   -10750.715   -9546.3665   -535.30084     102002.7      46.7237      46.7237      46.7237 
  290000    132.98215   -10727.802   -9487.4835   -361.68896     102002.7      46.7237      46.7237      46.7237 
  291000    132.06672   -10718.557   -9486.7769   -33.890073     102002.7      46.7237      46.7237      46.7237 
  292000    130.17948    -10757.92   -9543.7418   -367.13461     102002.7      46.7237      46.7237      46.7237 
  293000    130.09937   -10752.739   -9539.3077   -520.98853     102002.7      46.7237      46.7237      46.7237 
  294000    133.05143   -10739.143   -9498.1786   -60.435814     102002.7      46.7237      46.7237      46.7237 
  295000    127.61241   -10701.208    -9510.973   -439.87848     102002.7      46.7237      46.7237      46.7237 
  296000    129.14928   -10732.128   -9527.5588    129.11168     102002.7      46.7237      46.7237      46.7237 
  297000    131.57114   -10729.901    -9502.743   -188.79081     102002.7      46.7237      46.7237      46.7237 
  298000    131.39379   -10714.411   -9488.9072   -509.60721     102002.7      46.7237      46.7237      46.7237 
  299000    129.37435   -10700.703   -9494.0341   -274.36641     102002.7      46.7237      46.7237      46.7237 
  300000    131.73721   -10744.388   -9515.6813   -548.54699     102002.7      46.7237      46.7237      46.7237 
  301000    126.73572   -10754.119   -9572.0605   -313.99712     102002.7      46.7237      46.7237      46.7237 
  302000    133.96256   -10740.134   -9490.6717   -325.00859     102002.7      46.7237      46.7237      46.7237 
  303000    127.24223   -10715.624   -9528.8416   -419.06941     102002.7      46.7237      46.7237      46.7237 
  304000     129.4564   -10738.048   -9530.6138   -253.88563     102002.7      46.7237      46.7237      46.7237 
  305000    135.26338   -10729.653   -9468.0579   -205.74804     102002.7      46.7237      46.7237      46.7237 
  306000    131.85973   -10734.813   -9504.9637   -234.70792     102002.7      46.7237      46.7237      46.7237 
  307000    131.13997   -10703.194   -9480.0579    167.03502     102002.7      46.7237      46.7237      46.7237 
  308000     129.0782   -10733.522   -9529.6159   -59.790829     102002.7      46.7237      46.7237      46.7237 
  309000    129.85749    -10740.04   -9528.8649   -307.04664     102002.7      46.7237      46.7237      46.7237 
  310000    133.53596   -10722.882   -9477.3978   -356.19123     102002.7      46.7237      46.7237      46.7237 
  311000    128.50584   -10739.977   -9541.4085   -361.78162     102002.7      46.7237      46.7237      46.7237 
  312000    129.67855   -10694.647   -9485.1405   -351.40757     102002.7      46.7237      46.7237      46.7237 
  313000    131.49047   -10737.604   -9511.1979   -342.47544     102002.7      46.7237      46.7237      46.7237 
  314000    126.74325   -10744.252   -9562.1239   -512.77251     102002.7      46.7237      46.7237      46.7237 
  315000    131.54918   -10726.431   -9499.4782   -235.98765     102002.7      46.7237      46.7237      46.7237 
  316000    129.57123   -10725.362   -9516.8565   -255.15221     102002.7      46.7237      46.7237      46.7237 
  317000    132.36023   -10739.238   -9504.7197   -581.59109     102002.7      46.7237      46.7237      46.7237 
  318000    129.81497   -10703.525   -9492.7469   -343.12754     102002.7      46.7237      46.7237      46.7237 
  319000    130.90728   -10729.204    -9508.238   -308.02108     102002.7      46.7237      46.7237      46.7237 
  320000    128.80203   -10738.114   -9536.7829   -474.71152     102002.7      46.7237      46.7237      46.7237 
  321000    129.49915   -10712.899   -9505.0665   -531.67646     102002.7      46.7237      46.7237      46.7237 
  322000    133.67889   -10702.744   -9455.9266    32.709931     102002.7      46.7237      46.7237      46.7237 
  323000    128.57286   -10729.458   -9530.2647   -229.06791     102002.7      46.7237      46.7237      46.7237 
  324000    128.52805   -10683.941   -9485.1656   -16.642824     102002.7      46.7237      46.7237      46.7237 
  325000    129.36346    -10742.62   -9536.0534   -184.37928     102002.7      46.7237      46.7237      46.7237 
  326000    129.79965   -10732.365   -9521.7295   -257.05293     102002.7      46.7237      46.7237      46.7237 
  327000    129.30636   -10737.885     -9531.85   -114.71196     102002.7      46.7237      46.7237      46.7237 
  328000    129.22594   -10767.281   -9561.9961   -225.82087     102002.7      46.7237      46.7237      46.7237 
  329000    128.70816    -10708.35   -9507.8947   -160.07555     102002.7      46.7237      46.7237      46.7237 
  330000    128.35688   -10720.834   -9523.6555   -453.00559     102002.7      46.7237      46.7237      46.7237 
  331000    130.20359   -10745.015    -9530.612   -317.73529     102002.7      46.7237      46.7237      46.7237 
  332000    130.48172   -10732.953   -9515.9563   -233.17228     102002.7      46.7237      46.7237      46.7237 
  333000     131.4179   -10706.877   -9481.1478   -383.10009     102002.7      46.7237      46.7237      46.7237 
  334000    131.48099   -10724.506   -9498.1888   -224.88169     102002.7      46.7237      46.7237      46.7237 
  335000    128.22611   -10718.402   -9522.4426   -269.01543     102002.7      46.7237      46.7237      46.7237 
  336000    129.69856   -10714.118   -9504.4259    -188.9313     102002.7      46.7237      46.7237      46.7237 
  337000    129.93125   -10707.041   -9495.1785   -272.32046     102002.7      46.7237      46.7237      46.7237 
  338000    127.15628   -10727.923   -9541.9424    142.16253     102002.7      46.7237      46.7237      46.7237 
  339000    131.60237   -10692.224    -9464.775    -314.2372     102002.7      46.7237      46.7237      46.7237 
  340000    130.60162    -10708.87   -9490.7549   -299.47762     102002.7      46.7237      46.7237      46.7237 
  341000    131.18603   -10749.339   -9525.7731   -234.12438     102002.7      46.7237      46.7237      46.7237 
  342000    132.67274   -10720.383   -9482.9504   -383.10263     102002.7      46.7237      46.7237      46.7237 
  343000    127.82195   -10720.068   -9527.8789   -506.69776     102002.7      46.7237      46.7237      46.7237 
  344000    132.95316   -10716.613   -9476.5653   -382.59999     102002.7      46.7237      46.7237      46.7237 
  345000    130.25116   -10722.845   -9507.9983   -316.02947     102002.7      46.7237      46.7237      46.7237 
  346000    130.16231   -10718.104   -9504.0857   -297.29486     102002.7      46.7237      46.7237      46.7237 
  347000    127.44339   -10762.515   -9573.8568   -326.19225     102002.7      46.7237      46.7237      46.7237 
  348000    131.14346   -10701.356   -9478.1871    90.093661     102002.7      46.7237      46.7237      46.7237 
  349000    131.47425   -10716.831   -9490.5762   -199.43124     102002.7      46.7237      46.7237      46.7237 
  350000    130.66595   -10769.209   -9550.4934   -205.12749     102002.7      46.7237      46.7237      46.7237 
  351000    130.96984   -10741.502   -9519.9518   -189.15476     102002.7      46.7237      46.7237      46.7237 
  352000    129.48851   -10704.896   -9497.1622   -102.84818     102002.7      46.7237      46.7237      46.7237 
  353000    132.39174    -10724.29   -9489.4778    63.399441     102002.7      46.7237      46.7237      46.7237 
  354000    133.42922   -10735.228   -9490.7393   -170.78963     102002.7      46.7237      46.7237      46.7237 
  355000    129.87027   -10730.899   -9519.6045    -330.5506     102002.7      46.7237      46.7237      46.7237 
  356000    130.25239    -10732.76   -9517.9017    -615.5555     102002.7      46.7237      46.7237      46.7237 
  357000    128.03196   -10725.774   -9531.6255   -210.03649     102002.7      46.7237      46.7237      46.7237 
  358000    126.57726   -10734.128   -9553.5472     -114.617     102002.7      46.7237      46.7237      46.7237 
  359000    130.29131   -10720.047   -9504.8258    -316.4921     102002.7      46.7237      46.7237      46.7237 
  360000    130.62597   -10743.236   -9524.8938   -444.44255     102002.7      46.7237      46.7237      46.7237 
  361000    127.01237    -10730.66   -9546.0214   -273.93714     102002.7      46.7237      46.7237      46.7237 
  362000    128.31826   -10703.713   -9506.8942   -257.37436     102002.7      46.7237      46.7237      46.7237 
  363000    130.18178   -10738.302   -9524.1022    136.22172     102002.7      46.7237      46.7237      46.7237 
  364000    131.47143   -10736.554    -9510.326   -7.0988985     102002.7      46.7237      46.7237      46.7237 
  365000     129.1108   -10747.687   -9543.4768   -550.00332     102002.7      46.7237      46.7237      46.7237 
  366000    131.61666   -10713.056   -9485.4739   -181.73456     102002.7      46.7237      46.7237      46.7237 
  367000    131.57941   -10708.688   -9481.4531   -25.246028     102002.7      46.7237      46.7237      46.7237 
  368000    131.72525   -10735.004    -9506.409   -698.38954     102002.7      46.7237      46.7237      46.7237 
  369000    132.84656   -10756.755   -9517.7015   -522.69594     102002.7      46.7237      46.7237      46.7237 
  370000    134.40671   -10757.857   -9504.2519   -208.30193     102002.7      46.7237      46.7237      46.7237 
  371000    131.52491   -10732.378   -9505.6509   -104.44566     102002.7      46.7237      46.7237      46.7237 
  372000    125.20647   -10709.514   -9541.7191   -307.16621     102002.7      46.7237      46.7237      46.7237 
  373000    126.19491   -10716.093   -9539.0793   -519.70475     102002.7      46.7237      46.7237      46.7237 
  374000    129.14275   -10712.882   -9508.3737   -651.77386     102002.7      46.7237      46.7237      46.7237 
  375000    129.51799   -10722.017    -9514.009   -573.20322     102002.7      46.7237      46.7237      46.7237 
  376000     127.8494    -10719.34   -9526.8941   -490.34898     102002.7      46.7237      46.7237      46.7237 
  377000    131.10626   -10714.373   -9491.5509   -373.53703     102002.7      46.7237      46.7237      46.7237 
  378000     126.7146   -10731.023   -9549.1612   -247.92178     102002.7      46.7237      46.7237      46.7237 
  379000    131.55871   -10723.309   -9496.2674    43.223201     102002.7      46.7237      46.7237      46.7237 
  380000    130.33222   -10746.102   -9530.4991   -185.17925     102002.7      46.7237      46.7237      46.7237 
  381000    128.43487   -10724.677   -9526.7704   -419.56393     102002.7      46.7237      46.7237      46.7237 
  382000    129.79433   -10742.072   -9531.4858   -329.99649     102002.7      46.7237      46.7237      46.7237 
  383000    132.51812   -10762.544   -9526.5539   -619.04999     102002.7      46.7237      46.7237      46.7237 
  384000    133.53423    -10768.67   -9523.2025   -686.04976     102002.7      46.7237      46.7237      46.7237 
  385000    131.80908   -10712.646   -9483.2686   -379.38042     102002.7      46.7237      46.7237      46.7237 
  386000    127.92672   -10726.646   -9533.4794   -441.59267     102002.7      46.7237      46.7237      46.7237 
  387000    128.90847   -10720.811   -9518.4873   -327.36403     102002.7      46.7237      46.7237      46.7237 
  388000    132.34498   -10741.424   -9507.0482   -144.11961     102002.7      46.7237      46.7237      46.7237 
  389000    130.27326     -10744.3   -9529.2471   -149.74728     102002.7      46.7237      46.7237      46.7237 
  390000    126.31685   -10760.555   -9582.4037   -320.06843     102002.7      46.7237      46.7237      46.7237 
  391000    130.73242   -10735.464   -9516.1291   -253.45039     102002.7      46.7237      46.7237      46.7237 
  392000    128.25716   -10743.889   -9547.6401   -301.80688     102002.7      46.7237      46.7237      46.7237 
  393000    132.73968   -10731.694   -9493.6369   -104.53716     102002.7      46.7237      46.7237      46.7237 
  394000    131.49842   -10700.873   -9474.3933   -68.798242     102002.7      46.7237      46.7237      46.7237 
  395000     130.4224   -10713.364   -9496.9206   -344.58475     102002.7      46.7237      46.7237      46.7237 
  396000    128.54134   -10719.868   -9520.9684   -177.41964     102002.7      46.7237      46.7237      46.7237 
  397000    128.86047   -10703.976   -9502.0998   -331.32681     102002.7      46.7237      46.7237      46.7237 
  398000    129.08137   -10713.102   -9509.1663   -228.34415     102002.7      46.7237      46.7237      46.7237 
  399000    127.18437   -10746.836   -9560.5936   -390.05997     102002.7      46.7237      46.7237      46.7237 
  400000    127.26298   -10715.186   -9528.2101    62.596608     102002.7      46.7237      46.7237      46.7237 
  401000    128.66255   -10724.643   -9524.6134    -376.4908     102002.7      46.7237      46.7237      46.7237 
  402000     127.9925   -10694.584    -9500.804   -221.16314     102002.7      46.7237      46.7237      46.7237 
  403000    128.18094    -10728.23   -9532.6919   -342.14935     102002.7      46.7237      46.7237      46.7237 
  404000     128.3358   -10732.764   -9535.7817    -451.4444     102002.7      46.7237      46.7237      46.7237 
  405000    126.03957   -10732.398   -9556.8327   -471.88628     102002.7      46.7237      46.7237      46.7237 
  406000    128.05788   -10737.857    -9543.467   -216.39515     102002.7      46.7237      46.7237      46.7237 
  407000     129.1293    -10725.44   -9521.0568   -154.21239     102002.7      46.7237      46.7237      46.7237 
  408000    128.12676   -10731.833   -9536.8004   -175.68696     102002.7      46.7237      46.7237      46.7237 
  409000    128.84268   -10731.952   -9530.2425   -136.89472     102002.7      46.7237      46.7237      46.7237 
  410000     128.3576   -10751.413   -9554.2272   -522.16507     102002.7      46.7237      46.7237      46.7237 
  411000    130.77796   -10767.294   -9547.5342   -388.30386     102002.7      46.7237      46.7237      46.7237 
  412000    129.23414   -10727.902   -9522.5414   -623.67154     102002.7      46.7237      46.7237      46.7237 
  413000    126.93674   -10717.189   -9533.2559   -392.59605     102002.7      46.7237      46.7237      46.7237 
  414000    131.42283   -10715.922   -9490.1468   -384.57599     102002.7      46.7237      46.7237      46.7237 
  415000    128.58456   -10720.213   -9520.9107   -469.46251     102002.7      46.7237      46.7237      46.7237 
  416000    131.64708   -10711.316   -9483.4492   -244.27732     102002.7      46.7237      46.7237      46.7237 
  417000    127.69635   -10707.269   -9516.2509   -566.48107     102002.7      46.7237      46.7237      46.7237 
  418000    128.81922   -10721.703   -9520.2117   -265.04028     102002.7      46.7237      46.7237      46.7237 
  419000    131.21548   -10730.961   -9507.1203   -313.90326     102002.7      46.7237      46.7237      46.7237 
  420000    127.55074    -10726.98   -9537.3198   -268.67587     102002.7      46.7237      46.7237      46.7237 
  421000    132.19392   -10730.202   -9497.2351    -265.8298     102002.7      46.7237      46.7237      46.7237 
  422000    130.31883   -10747.943   -9532.4649   -411.69613     102002.7      46.7237      46.7237      46.7237 
  423000    131.28585   -10736.008   -9511.5107   -175.85266     102002.7      46.7237      46.7237      46.7237 
  424000    130.90432   -10733.572    -9512.633   -256.14722     102002.7      46.7237      46.7237      46.7237 
  425000    128.22109   -10740.207   -9544.2945   -411.93811     102002.7      46.7237      46.7237      46.7237 
  426000    124.30054   -10753.368   -9594.0229   -261.51019     102002.7      46.7237      46.7237      46.7237 
  427000    130.61225   -10723.829   -9505.6148   -320.10779     102002.7      46.7237      46.7237      46.7237 
  428000    132.80119   -10731.722   -9493.0915   -360.43899     102002.7      46.7237      46.7237      46.7237 
  429000    128.32573    -10739.63   -9542.7413   -363.41349     102002.7      46.7237      46.7237      46.7237 
  430000    130.54482   -10733.449   -9515.8629   -145.25352     102002.7      46.7237      46.7237      46.7237 
  431000    128.31222   -10698.142   -9501.3797    43.239027     102002.7      46.7237      46.7237      46.7237 
  432000     129.1285   -10729.095   -9524.7194   -334.62327     102002.7      46.7237      46.7237      46.7237 
  433000    129.01135   -10724.589   -9521.3063    144.20311     102002.7      46.7237      46.7237      46.7237 
  434000    132.80701   -10760.533   -9521.8485   -95.502422     102002.7      46.7237      46.7237      46.7237 
  435000    133.11916   -10723.678   -9482.0822     2.844241     102002.7      46.7237      46.7237      46.7237 
  436000    131.34067    -10716.65   -9491.6416   -327.97685     102002.7      46.7237      46.7237      46.7237 
  437000    131.99456    -10756.59    -9525.483     -261.424     102002.7      46.7237      46.7237      46.7237 
  438000    131.39885   -10736.311     -9510.76   -357.11621     102002.7      46.7237      46.7237      46.7237 
  439000    127.38551   -10759.123   -9571.0041   -778.76573     102002.7      46.7237      46.7237      46.7237 
  440000    128.36531   -10756.456   -9559.1989   -93.984301     102002.7      46.7237      46.7237      46.7237 
  441000     127.8472     -10759.6   -9567.1746   -367.17738     102002.7      46.7237      46.7237      46.7237 
  442000    128.98372   -10715.194   -9512.1691   -345.01046     102002.7      46.7237      46.7237      46.7237 
  443000    129.92891   -10746.626   -9534.7847    -186.8132     102002.7      46.7237      46.7237      46.7237 
  444000    127.43883   -10703.644   -9515.0277   -385.91325     102002.7      46.7237      46.7237      46.7237 
  445000    132.34033   -10724.621   -9490.2891   -635.95296     102002.7      46.7237      46.7237      46.7237 
  446000    131.07726   -10732.691   -9510.1395   -326.29013     102002.7      46.7237      46.7237      46.7237 
  447000    130.77407   -10740.138   -9520.4143   -250.56575     102002.7      46.7237      46.7237      46.7237 
  448000     127.5064   -10716.061   -9526.8148   -121.77958     102002.7      46.7237      46.7237      46.7237 
  449000    133.29832   -10725.461   -9482.1938   -299.13334     102002.7      46.7237      46.7237      46.7237 
  450000    128.04414   -10741.145   -9546.8833   -329.26173     102002.7      46.7237      46.7237      46.7237 
  451000    130.69575   -10730.546   -9511.5524   -135.57611     102002.7      46.7237      46.7237      46.7237 
  452000    130.52023   -10728.983   -9511.6271   -127.69762     102002.7      46.7237      46.7237      46.7237 
  453000    128.41955   -10729.297   -9531.5333   -116.85681     102002.7      46.7237      46.7237      46.7237 
  454000    128.37172   -10749.284   -9551.9667   -72.205333     102002.7      46.7237      46.7237      46.7237 
  455000    131.34542   -10734.752   -9509.6996    -322.0992     102002.7      46.7237      46.7237      46.7237 
  456000    131.15504   -10739.217     -9515.94   -234.27251     102002.7      46.7237      46.7237      46.7237 
  457000    130.88621   -10737.418   -9516.6487   -308.29517     102002.7      46.7237      46.7237      46.7237 
  458000    131.46828   -10733.589   -9507.3904   -840.96628     102002.7      46.7237      46.7237      46.7237 
  459000    129.99587   -10740.087   -9527.6215   -592.08357     102002.7      46.7237      46.7237      46.7237 
  460000    131.85223   -10730.873   -9501.0936   -409.79197     102002.7      46.7237      46.7237      46.7237 
  461000    128.77298   -10726.607    -9525.547   -421.52386     102002.7      46.7237      46.7237      46.7237 
  462000    131.70523   -10750.941   -9522.5321   -364.03458     102002.7      46.7237      46.7237      46.7237 
  463000    128.75546   -10715.591   -9514.6946   -367.83011     102002.7      46.7237      46.7237      46.7237 
  464000    128.64058   -10713.149   -9513.3241   -264.92185     102002.7      46.7237      46.7237      46.7237 
  465000    132.67726   -10756.936   -9519.4609   -409.63954     102002.7      46.7237      46.7237      46.7237 
  466000    130.23698   -10739.628   -9524.9141   -504.66137     102002.7      46.7237      46.7237      46.7237 
  467000    130.27791   -10724.156   -9509.0594   -177.12561     102002.7      46.7237      46.7237      46.7237 
  468000    127.25549   -10728.309   -9541.4026   -524.84841     102002.7      46.7237      46.7237      46.7237 
  469000    131.28114    -10734.41   -9509.9568   -139.30504     102002.7      46.7237      46.7237      46.7237 
  470000    129.17781   -10738.418   -9533.5819    -493.7706     102002.7      46.7237      46.7237      46.7237 
  471000    129.88702   -10748.491   -9537.0402   -398.79394     102002.7      46.7237      46.7237      46.7237 
  472000    131.49341   -10721.826   -9495.3934   -161.68099     102002.7      46.7237      46.7237      46.7237 
  473000    130.24028   -10733.675   -9518.9303   -269.67599     102002.7      46.7237      46.7237      46.7237 
  474000    127.69309   -10707.575   -9516.5879   -366.92063     102002.7      46.7237      46.7237      46.7237 
  475000    129.33847   -10756.578   -9550.2439   -471.35232     102002.7      46.7237      46.7237      46.7237 
  476000    130.62098   -10742.596   -9524.2997   -623.44719     102002.7      46.7237      46.7237      46.7237 
  477000    130.85006   -10742.346   -9521.9137   -113.13349     102002.7      46.7237      46.7237      46.7237 
  478000    130.55593   -10725.008   -9507.3184   -483.60256     102002.7      46.7237      46.7237      46.7237 
  479000    129.28062   -10701.555   -9495.7607   -208.38131     102002.7      46.7237      46.7237      46.7237 
  480000    134.30775   -10731.131   -9478.4486   -219.02605     102002.7      46.7237      46.7237      46.7237 
  481000    129.56482   -10705.274   -9496.8289   -539.74366     102002.7      46.7237      46.7237      46.7237 
  482000    130.11326   -10748.032   -9534.4718   -257.27776     102002.7      46.7237      46.7237      46.7237 
  483000    131.54113    -10697.42   -9470.5417   -134.24869     102002.7      46.7237      46.7237      46.7237 
  484000    128.65085   -10713.762    -9513.841   -381.10563     102002.7      46.7237      46.7237      46.7237 
  485000    134.36057   -10763.838    -9510.663   -68.062531     102002.7      46.7237      46.7237      46.7237 
  486000     131.0206    -10739.02    -9516.997   -362.18484     102002.7      46.7237      46.7237      46.7237 
  487000    129.08099   -10717.487   -9513.5548    -437.4036     102002.7      46.7237      46.7237      46.7237 
  488000    130.79329   -10752.365   -9532.4618   -320.65319     102002.7      46.7237      46.7237      46.7237 
  489000     133.3725   -10711.373   -9467.4133   -126.84374     102002.7      46.7237      46.7237      46.7237 
  490000    130.59016   -10743.543    -9525.535   -265.71819     102002.7      46.7237      46.7237      46.7237 
  491000    133.22603   -10709.061   -9466.4682   -297.86636     102002.7      46.7237      46.7237      46.7237 
  492000    128.97057   -10750.057   -9547.1549   -439.30175     102002.7      46.7237      46.7237      46.7237 
  493000    129.05898   -10743.462   -9539.7343   -504.64257     102002.7      46.7237      46.7237      46.7237 
  494000    132.73581    -10708.04   -9470.0193   -286.64749     102002.7      46.7237      46.7237      46.7237 
  495000    133.09718   -10708.654   -9467.2626   -121.12026     102002.7      46.7237      46.7237      46.7237 
  496000    127.44026   -10732.111   -9543.4814   -470.52519     102002.7      46.7237      46.7237      46.7237 
  497000    131.88722   -10733.755   -9503.6492   -379.20107     102002.7      46.7237      46.7237      46.7237 
  498000    124.52534   -10735.087   -9573.6446   -214.48925     102002.7      46.7237      46.7237      46.7237 
  499000    129.48941   -10748.931   -9541.1892   -590.96917     102002.7      46.7237      46.7237      46.7237 
  500000    130.50978   -10727.551   -9510.2923   -396.87705     102002.7      46.7237      46.7237      46.7237 
  500500    130.32072   -10716.155   -9500.6599   -433.67668     102002.7      46.7237      46.7237      46.7237 
Loop time of 1922.02 on 16 procs for 500000 steps with 3130 atoms

Performance: 22.476 ns/day, 1.068 hours/ns, 260.143 timesteps/s
99.8% CPU use with 16 MPI tasks x no OpenMP threads

MPI task timing breakdown:
Section |  min time  |  avg time  |  max time  |%varavg| %total
---------------------------------------------------------------
Pair    | 797.28     | 1138.1     | 1402       | 645.8 | 59.21
Bond    | 142.29     | 174.61     | 210.14     | 171.7 |  9.08
Neigh   | 17.519     | 17.572     | 17.671     |   1.2 |  0.91
Comm    | 297.11     | 574.13     | 946.95     | 994.7 | 29.87
Output  | 0.0219     | 0.022329   | 0.026124   |   0.7 |  0.00
Modify  | 9.4608     | 10.757     | 12.697     |  35.1 |  0.56
Other   |            | 6.807      |            |       |  0.35

Nlocal:    195.625 ave 224 max 162 min
Histogram: 1 2 1 0 4 1 2 0 2 3
Nghost:    3986.81 ave 4019 max 3941 min
Histogram: 1 0 1 2 1 5 0 2 2 2
Neighs:    11473.6 ave 17414 max 4894 min
Histogram: 1 2 4 0 1 0 2 0 3 3

Total # of neighbors = 183578
Ave neighs/atom = 58.6511
Ave special neighs/atom = 3.68051
Neighbor list builds = 5139
Dangerous builds = 0
Neighbor list info ...
  update every 1 steps, delay 10 steps, check yes
  max neighbors/atom: 2000, page size: 100000
  master list distance cutoff = 16
  ghost atom cutoff = 16
  binsize = 8, bins = 6 6 6
  3 neighbor lists, perpetual/occasional/extra = 3 0 0
  (1) pair buck6d/coul/gauss/dsf, perpetual, skip from (3)
      attributes: half, newton on
      pair build: skip
      stencil: none
      bin: none
  (2) pair lj/cut, perpetual, skip from (3)
      attributes: half, newton on
      pair build: skip
      stencil: none
      bin: none
  (3) neighbor class addition, perpetual
      attributes: half, newton on
      pair build: half/bin/newton
      stencil: half/bin/3d/newton
      bin: standard
Setting up Verlet run ...
  Unit style    : real
  Current step  : 500500
  Time step     : 1
WARNING: Inconsistent image flags (../domain.cpp:786)
Per MPI rank memory allocation (min/avg/max) = 22.78 | 23.28 | 23.43 Mbytes
Step Time TotEng KinEng PotEng E_mol E_pair Temp Pxx Pyy Pzz Pxy Pxz Pyz Cella Cellb Cellc CellAlpha CellBeta CellGamma Volume Press 
  500500       500000   -9500.6599    1215.4955   -10716.155    4405.1254   -15121.281    130.32072   -905.37035   -63.880845   -331.77883    95.782619    10.975317    73.327178      46.7237      46.7237      46.7237           90           90           90     102002.7   -433.67668 
  501000       500500    -9579.241    1195.7068   -10774.948    4389.3514   -15164.299    128.19906   -618.89648    -445.5883    -765.0554    63.844941     -129.428     247.8428      46.7237      46.7237      46.7237           90           90           90     102002.7   -609.84673 
  502000       501500   -9508.7912    1223.8319   -10732.623    4411.4128   -15144.036    131.21452   -121.80328   -1157.1286   -837.48727      33.1919    182.58832    118.51889      46.7237      46.7237      46.7237           90           90           90     102002.7   -705.47305 
  503000       502500    -9592.979    1165.1822   -10758.161    4378.8117   -15136.973    124.92633   -446.39427   -316.15011   -362.63257    208.97834   -406.03208   -52.694364      46.7237      46.7237      46.7237           90           90           90     102002.7   -375.05898 
  504000       503500   -9529.2933    1195.2176   -10724.511    4392.3924   -15116.903    128.14661   -304.98962   -108.24389    -37.69594   -153.89728    61.459704   -4.6297368      46.7237      46.7237      46.7237           90           90           90     102002.7   -150.30982 
  505000       504500   -9550.6984    1205.7906   -10756.489    4387.3259   -15143.815     129.2802   -600.83785   -644.50123   -356.10935   -42.532663    281.18584    66.176378      46.7237      46.7237      46.7237           90           90           90     102002.7   -533.81614 
  506000       505500   -9513.4601    1228.0149   -10741.475    4379.8162   -15121.291    131.66301    165.71788   -138.50107   -251.56517    258.32335   -152.43384   -226.06124      46.7237      46.7237      46.7237           90           90           90     102002.7   -74.782786 
  507000       506500   -9506.1209    1218.1712   -10724.292    4360.6615   -15084.954    130.60761   -191.11525   -505.65797   -300.78106    70.168386   -38.342025   -36.568175      46.7237      46.7237      46.7237           90           90           90     102002.7    -332.5181 
  508000       507500   -9567.8305    1203.7887   -10771.619    4389.9232   -15161.542    129.06557   -394.69149    -468.4585   -101.56073     64.96059    293.17116    213.28169      46.7237      46.7237      46.7237           90           90           90     102002.7   -321.57024 
  509000       508500   -9519.4721    1222.2059   -10741.678    4378.5827   -15120.261    131.04019   -8.9288464   -205.32809   -40.940245   -10.614861    415.55618    58.807771      46.7237      46.7237      46.7237           90           90           90     102002.7   -85.065728 
  510000       509500   -9549.2709    1172.0467   -10721.318     4398.533   -15119.851    125.66231   -753.73866   -32.672367   -659.68389   -202.45387   -34.904446      317.626      46.7237      46.7237      46.7237           90           90           90     102002.7   -482.03164 
  511000       510500   -9518.7033    1201.3813   -10720.085    4414.3585   -15134.443    128.80746    201.54696   -8.7130821    19.252418    138.86042   -235.97113   -336.27087      46.7237      46.7237      46.7237           90           90           90     102002.7    70.695434 
  512000       511500   -9550.7055    1185.3931   -10736.099    4393.0307   -15129.129    127.09327    40.278615   -429.44106   -644.10419    240.10321    73.881037   -49.769038      46.7237      46.7237      46.7237           90           90           90     102002.7   -344.42221 
  513000       512500    -9510.871    1210.0996   -10720.971    4389.6052   -15110.576     129.7422   -135.94685   -628.97236   -462.47491    68.864106    120.26189  -0.53602951      46.7237      46.7237      46.7237           90           90           90     102002.7   -409.13137 
  514000       513500    -9487.922    1249.3238   -10737.246    4388.2098   -15125.456    133.94767   -186.49134    99.466466   -240.16628   -37.920333    152.88516   -33.580663      46.7237      46.7237      46.7237           90           90           90     102002.7   -109.06372 
  515000       514500     -9532.26    1209.6803    -10741.94     4362.787   -15104.727    129.69725   -772.75973   -479.99565   -293.87823   -113.54397    -236.0042   -21.410134      46.7237      46.7237      46.7237           90           90           90     102002.7   -515.54453 
  516000       515500   -9500.9262    1208.0433   -10708.969    4403.4407    -15112.41    129.52173    403.12352    204.15806    362.70951    137.75874    -222.1574   -32.863588      46.7237      46.7237      46.7237           90           90           90     102002.7    323.33036 
  517000       516500   -9530.0531    1200.2188   -10730.272    4385.0771   -15115.349    128.68281   -66.268807    54.957875   -842.74649   -11.374787    34.651082    96.957728      46.7237      46.7237      46.7237           90           90           90     102002.7   -284.68581 
  518000       517500   -9520.8644    1198.8454    -10719.71    4408.4192   -15128.129    128.53557    -409.1006   -280.94183   -644.36477    243.95621    156.13375    138.48645      46.7237      46.7237      46.7237           90           90           90     102002.7    -444.8024 
  519000       518500   -9559.7149    1183.7466   -10743.462    4397.1013   -15140.563    126.91674   -421.59755   -493.55478   -169.73568    46.922264   -17.588629   -16.989586      46.7237      46.7237      46.7237           90           90           90     102002.7   -361.62933 
  520000       519500   -9554.1995    1207.7247   -10761.924    4348.5334   -15110.458    129.48757    151.83383   -735.31503   -241.50525    1.5589431   -209.52466   -338.11837      46.7237      46.7237      46.7237           90           90           90     102002.7   -274.99548 
  521000       520500   -9466.7243    1263.9263   -10730.651    4393.8475   -15124.498    135.51328    51.361517   -205.20064   -205.81597   -160.31922    36.895755   -103.15885      46.7237      46.7237      46.7237           90           90           90     102002.7   -119.88503 
  522000       521500   -9513.6015     1188.355   -10701.957    4407.4687   -15109.425    127.41083   -179.29082   -619.73495   -10.689218   -214.28852   -51.761011    340.04129      46.7237      46.7237      46.7237           90           90           90     102002.7     -269.905 
  523000       522500   -9557.5538    1184.2495   -10741.803    4378.5198   -15120.323    126.97065    29.730262   -619.33226   -27.953173    145.38884   -43.765862    103.91814      46.7237      46.7237      46.7237           90           90           90     102002.7   -205.85172 
  524000       523500   -9532.7314    1196.4212   -10729.153    4395.2807   -15124.433    128.27565   -249.54294   -553.27818      189.512    -333.5835    13.383919    159.62715      46.7237      46.7237      46.7237           90           90           90     102002.7   -204.43637 
  525000       524500    -9479.526    1218.6353   -10698.161    4391.7385     -15089.9    130.65737    418.51854   -430.95237   -342.94431   -27.665068    317.91665   -229.73699      46.7237      46.7237      46.7237           90           90           90     102002.7   -118.45938 
  526000       525500   -9549.9437    1177.8799   -10727.824    4377.9152   -15105.739    126.28772   -502.33736    382.92338    167.64751    243.71431    73.571986     5.080553      46.7237      46.7237      46.7237           90           90           90     102002.7     16.07784 
  527000       526500   -9520.2449    1204.8594   -10725.104    4405.2568   -15130.361    129.18036   -87.338915   -719.83422     9.488269   -79.174236    86.490928    20.093365      46.7237      46.7237      46.7237           90           90           90     102002.7   -265.89496 
  528000       527500   -9519.0532     1213.503   -10732.556    4401.7716   -15134.328    130.10709   -344.84802    -276.2975   -275.79724   -345.71048   -29.459711   -129.54303      46.7237      46.7237      46.7237           90           90           90     102002.7   -298.98092 
  529000       528500   -9512.1452    1230.9094   -10743.055    4384.7648   -15127.819    131.97334   -422.33936   -390.99348   -326.53536    -68.01635    -42.21123    284.27594      46.7237      46.7237      46.7237           90           90           90     102002.7   -379.95607 
  530000       529500   -9566.0417    1187.9828   -10754.024    4370.1266   -15124.151    127.37092   -412.71585   -144.83918   -350.00415     240.2639    64.686908    63.058435      46.7237      46.7237      46.7237           90           90           90     102002.7   -302.51973 
  531000       530500   -9527.6503    1206.5298    -10734.18    4401.5817   -15135.762    129.35946    25.625698   -98.478859   -36.616993   -483.55663    317.72423    320.69223      46.7237      46.7237      46.7237           90           90           90     102002.7   -36.490051 
  532000       531500   -9508.8076    1232.4243   -10741.232    4385.5111   -15126.743    132.13577   -426.30089   -325.94766   -595.69561    9.2318739    173.34818     100.5138      46.7237      46.7237      46.7237           90           90           90     102002.7   -449.31472 
  533000       532500   -9515.5602    1209.0025   -10724.563    4414.1054   -15138.668    129.62458   -212.31626   -270.52902   -729.99228     25.41681    215.07534   -14.147771      46.7237      46.7237      46.7237           90           90           90     102002.7   -404.27919 
  534000       533500   -9525.4504    1218.2724   -10743.723    4373.8228   -15117.546    130.61846    -1039.702   -170.61221   -366.52139   -132.09816    119.44005   -270.03117      46.7237      46.7237      46.7237           90           90           90     102002.7   -525.61187 
  535000       534500   -9505.5635    1250.1822   -10755.746    4357.7388   -15113.484     134.0397   -504.65029   -364.97212   -473.03351   -163.99572   -141.18039      276.249      46.7237      46.7237      46.7237           90           90           90     102002.7   -447.55198 
  536000       535500   -9517.0632    1200.9972    -10718.06    4408.4519   -15126.512    128.76628   -239.02801    -490.4092     -51.9564    68.720542    -77.97434    64.016942      46.7237      46.7237      46.7237           90           90           90     102002.7   -260.46454 
  537000       536500   -9546.5515    1193.3945   -10739.946    4384.8504   -15124.796    127.95114    -476.6283    6.3029024   -557.34419   -138.16855   -20.454914     277.4108      46.7237      46.7237      46.7237           90           90           90     102002.7   -342.55653 
  538000       537500   -9525.4667    1195.4485   -10720.915    4403.1096   -15124.025    128.17136   -339.35329   -120.37427   -110.79858    139.01314   -392.25322    38.954654      46.7237      46.7237      46.7237           90           90           90     102002.7   -190.17538 
  539000       538500   -9493.0899    1212.8825   -10705.972    4410.0047   -15115.977    130.04057   -427.97279   -234.71015   -724.90774    91.869448   -57.480948   -40.797912      46.7237      46.7237      46.7237           90           90           90     102002.7   -462.53023 
  540000       539500   -9536.6514    1213.3102   -10749.962     4372.933   -15122.895    130.08643   -390.91491   -188.41561   -182.46199   -2.9253371    -32.35737    37.165249      46.7237      46.7237      46.7237           90           90           90     102002.7   -253.93084 
  541000       540500    -9575.668    1162.8864   -10738.554    4395.8833   -15134.438    124.68018   -627.51233   -207.37648   -294.70551   -79.227233   -268.47697   -41.298202      46.7237      46.7237      46.7237           90           90           90     102002.7   -376.53144 
  542000       541500   -9499.8311    1220.5181   -10720.349    4399.7999   -15120.149    130.85923   -468.57986   -469.91303   -219.14243    47.327542   -160.15127    -128.9241      46.7237      46.7237      46.7237           90           90           90     102002.7   -385.87844 
  543000       542500   -9494.8479    1246.6088   -10741.457    4376.9656   -15118.422    133.65658   -332.65403   -607.49381   -59.137375   -135.70831   -211.78578   -169.83625      46.7237      46.7237      46.7237           90           90           90     102002.7   -333.09507 
  544000       543500   -9530.2376    1210.2617   -10740.499    4396.8911    -15137.39    129.75957   -449.81899   -479.37655   -469.23844   -176.76186    270.15418   -112.08439      46.7237      46.7237      46.7237           90           90           90     102002.7   -466.14466 
  545000       544500   -9506.9844     1217.234   -10724.218    4397.5158   -15121.734    130.50712    436.82492   -615.86802   -619.80369    184.20851     98.90758    90.664623      46.7237      46.7237      46.7237           90           90           90     102002.7   -266.28226 
  546000       545500   -9547.6084    1185.7553   -10733.364     4370.533   -15103.897     127.1321   -82.873979    66.754334   -603.75199    41.265357   -138.83204   -37.617761      46.7237      46.7237      46.7237           90           90           90     102002.7   -206.62388 
  547000       546500   -9509.8574    1197.7472   -10707.605    4395.4004   -15103.005    128.41782    90.126318   -478.62815   -43.844137    109.21672   -217.87234   -327.10803      46.7237      46.7237      46.7237           90           90           90     102002.7   -144.11532 
  548000       547500   -9526.5567    1202.6096   -10729.166    4396.3977   -15125.564    128.93915   -127.70213   -566.47964   -234.73119    3.7558359   -331.42838    8.6853761      46.7237      46.7237      46.7237           90           90           90     102002.7   -309.63765 
  549000       548500   -9490.2971    1242.3079   -10732.605    4378.2454   -15110.851    133.19545   -125.91526   -525.31274   -757.82574    12.259325   -11.525413    114.87103      46.7237      46.7237      46.7237           90           90           90     102002.7   -469.68458 
  550000       549500   -9503.6828    1215.4772    -10719.16    4401.8547   -15121.015    130.31877   -389.20096   -499.30171   -777.35862   -95.837325   -147.82003   0.57981224      46.7237      46.7237      46.7237           90           90           90     102002.7    -555.2871 
  551000       550500   -9567.8099    1192.2191   -10760.029    4364.5944   -15124.623    127.82512   -336.97867    -152.8986   -184.16689    201.28372   -153.90206   -91.326649      46.7237      46.7237      46.7237           90           90           90     102002.7   -224.68139 
  552000       551500   -9494.9784    1223.8188   -10718.797    4390.7828    -15109.58    131.21312   -453.58276    5.1989516    -91.90205   -199.08077    225.43591   -179.64796      46.7237      46.7237      46.7237           90           90           90     102002.7   -180.09529 
  553000       552500   -9485.0173    1246.8369   -10731.854    4382.7943   -15114.649    133.68103   -399.45632   -2.2023337    173.47195    113.37623   -15.622704   -56.672474      46.7237      46.7237      46.7237           90           90           90     102002.7   -76.062235 
  554000       553500   -9506.6289    1220.2487   -10726.878    4401.4673   -15128.345    130.83035   -120.85813   -56.346147    361.69169   -173.02474    70.096574    -130.6171      46.7237      46.7237      46.7237           90           90           90     102002.7    61.495804 
  555000       554500   -9516.5958    1208.3367   -10724.932    4398.4871    -15123.42    129.55319   -316.04691   -201.37176   -21.551283    39.553508   -119.92481    116.49009      46.7237      46.7237      46.7237           90           90           90     102002.7   -179.65665 
[...]
  936000       935500   -9528.8049    1214.8919   -10743.697    4370.8092   -15114.506    130.25601    64.602985   -93.752007   -556.59947    275.07463    173.52928    65.811866      46.7237      46.7237      46.7237           90           90           90     102002.7    -195.2495 
  937000       936500   -9544.2193    1214.1078   -10758.327    4376.9475   -15135.275    130.17195   -374.76599   -598.02523   -243.35576   -225.81005  -0.37891009    74.513252      46.7237      46.7237      46.7237           90           90           90     102002.7   -405.38233 
  938000       937500   -9511.3269    1220.7106   -10732.038    4379.1992   -15111.237    130.87987    301.80665   -871.04237   -309.35296     78.62892    33.521477    111.74927      46.7237      46.7237      46.7237           90           90           90     102002.7    -292.8629 
  939000       938500   -9533.7824    1208.7107   -10742.493    4379.4414   -15121.935    129.59328   -61.280103   -271.45242   -321.63123   -193.98328   -16.905054   -252.24399      46.7237      46.7237      46.7237           90           90           90     102002.7   -218.12125 
  940000       939500   -9560.6482    1206.4539   -10767.102    4357.7853   -15124.887    129.35132   -64.512178   -237.74519   -516.28832   -141.93338    151.58051    50.701007      46.7237      46.7237      46.7237           90           90           90     102002.7   -272.84856 
  941000       940500   -9542.5807    1189.6821   -10732.263    4401.8863   -15134.149    127.55311    143.62229   -363.50841   -685.87726    248.20258    425.84028    58.046472      46.7237      46.7237      46.7237           90           90           90     102002.7   -301.92113 
  942000       941500    -9552.042    1197.9886   -10750.031    4423.7972   -15173.828     128.4437   -445.56412   -604.10962   -831.51456    360.55938    153.34361     -202.928      46.7237      46.7237      46.7237           90           90           90     102002.7   -627.06276 
  943000       942500    -9542.059    1231.0862   -10773.145    4342.7672   -15115.912     131.9923   -437.23978   -429.24943    17.473352    42.266917    -148.6264    28.479773      46.7237      46.7237      46.7237           90           90           90     102002.7   -283.00529 
  944000       943500   -9462.5381    1254.6225   -10717.161    4404.3584   -15121.519    134.51577   -662.49658   -82.405404    -269.8169   -146.60936   -41.086224    -121.3996      46.7237      46.7237      46.7237           90           90           90     102002.7   -338.23963 
  945000       944500   -9495.3576    1226.8274   -10722.185    4397.9985   -15120.184    131.53569   -5.6961685   -436.81086    157.92572   -43.918803   -46.491962    106.44549      46.7237      46.7237      46.7237           90           90           90     102002.7   -94.860435 
  946000       945500   -9511.4606     1211.731   -10723.192    4419.7856   -15142.977    129.91711    -525.8465   -549.40977   -512.90409    -94.87577    33.561486   -59.369189      46.7237      46.7237      46.7237           90           90           90     102002.7   -529.38679 
  947000       946500   -9527.2001    1215.5206   -10742.721    4363.2559   -15105.976    130.32341   -419.09574   -372.06888   -433.01254    95.885022      16.1524    84.494435      46.7237      46.7237      46.7237           90           90           90     102002.7   -408.05906 
  948000       947500   -9468.0118     1249.405   -10717.417    4395.9453   -15113.362    133.95637   -307.66938   -189.77139   -295.69856   -55.063232    270.11288   -96.355911      46.7237      46.7237      46.7237           90           90           90     102002.7   -264.37977 
  949000       948500   -9476.0599    1237.8773   -10713.937     4394.996   -15108.933    132.72041   -456.04979   -172.78735    470.52837    60.791471    206.82373   -74.777588      46.7237      46.7237      46.7237           90           90           90     102002.7   -52.769588 
  950000       949500   -9538.9716     1205.514   -10744.486    4386.1925   -15130.678    129.25055   -119.64804   -588.77884   -124.55045     -180.841   -26.764628    117.05567      46.7237      46.7237      46.7237           90           90           90     102002.7   -277.65911 
  951000       950500   -9495.6072    1220.4895   -10716.097    4384.7367   -15100.833    130.85616   -180.49001   -410.06025    92.779138   -192.67877   -278.89085   -27.696869      46.7237      46.7237      46.7237           90           90           90     102002.7   -165.92371 
  952000       951500   -9519.0281    1227.5467   -10746.575    4378.0271   -15124.602     131.6128     523.4273   -369.47022    -421.5196   -286.45025    31.024351    113.74494      46.7237      46.7237      46.7237           90           90           90     102002.7   -89.187507 
  953000       952500   -9517.2346    1202.6067   -10719.841     4397.956   -15117.797    128.93884   -272.03585   -457.16469   -417.02507    -230.6516    115.28981   -201.60906      46.7237      46.7237      46.7237           90           90           90     102002.7    -382.0752 
  954000       953500   -9495.2342    1240.8059    -10736.04    4382.7648   -15118.805    133.03441   -712.92991    155.54808   -51.401417    3.7951689   -16.849235   -151.34559      46.7237      46.7237      46.7237           90           90           90     102002.7   -202.92775 
  955000       954500   -9522.4345    1216.3425   -10738.777     4382.587   -15121.364    130.41154   -191.15255    -199.2421   -528.97904    324.98133   -21.670645    189.29521      46.7237      46.7237      46.7237           90           90           90     102002.7    -306.4579 
  956000       955500   -9463.0841    1252.3516   -10715.436    4416.9699   -15132.406     134.2723   -4.4699793   -566.07904   -794.56266    69.324117   -74.391933   -230.48433      46.7237      46.7237      46.7237           90           90           90     102002.7   -455.03722 
  957000       956500   -9526.8128    1194.4565   -10721.269    4413.2842   -15134.554    128.06501   -168.41199   -16.351254   -168.33044    -84.97745    174.13078    2.3397817      46.7237      46.7237      46.7237           90           90           90     102002.7   -117.69789 
  958000       957500   -9546.9343    1219.8271   -10766.761    4363.4115   -15130.173    130.78515     40.49895   -951.83672    -121.4305    -83.09123     90.79305    -194.8807      46.7237      46.7237      46.7237           90           90           90     102002.7   -344.25609 
  959000       958500   -9546.6553    1187.8637   -10734.519     4393.838   -15128.357    127.35815   -487.45299     4.687883   -393.57598   -26.926832   -11.810624    38.715487      46.7237      46.7237      46.7237           90           90           90     102002.7   -292.11369 
  960000       959500   -9523.4781    1206.6955   -10730.174    4388.8181   -15118.992    129.37722   -178.86313   -51.997166   -625.18473    254.66722    23.047252   -59.695954      46.7237      46.7237      46.7237           90           90           90     102002.7   -285.34834 
  961000       960500   -9499.4791    1189.6763   -10689.155    4426.5859   -15115.741    127.55249   -581.13125   -732.67107   -13.223061    16.519768    12.623226   -183.79465      46.7237      46.7237      46.7237           90           90           90     102002.7   -442.34179 
  962000       961500   -9480.2387    1219.4793   -10699.718    4441.3502   -15141.068    130.74785    364.64339    -272.9639   -315.30853   -12.228892   -150.44966    174.78035      46.7237      46.7237      46.7237           90           90           90     102002.7   -74.543012 
  963000       962500   -9528.4972    1221.6978   -10750.195    4393.0395   -15143.235    130.98572   -467.51039   -821.46436   -656.40869    60.715208    42.451204    170.61552      46.7237      46.7237      46.7237           90           90           90     102002.7   -648.46115 
  964000       963500   -9542.9433    1181.7094   -10724.653    4389.4427   -15114.096    126.69832    217.96558    -229.9829   -711.67338   -180.51813    167.60695    48.761781      46.7237      46.7237      46.7237           90           90           90     102002.7   -241.23023 
  965000       964500   -9528.8327    1234.7049   -10763.538    4366.1593   -15129.697    132.38029     124.5214   -296.79996   -44.829116    54.329533   -62.134679    -211.1263      46.7237      46.7237      46.7237           90           90           90     102002.7   -72.369224 
  966000       965500   -9543.2585    1220.4162   -10763.675    4377.4032   -15141.078    130.84831     31.45038   -572.65848   -724.48204    23.986978    301.37128    119.09204      46.7237      46.7237      46.7237           90           90           90     102002.7   -421.89671 
  967000       966500   -9504.7597    1209.2196   -10713.979    4384.4711    -15098.45    129.64785    120.86445   -187.62861   -199.15025    111.96016    110.02637    85.254374      46.7237      46.7237      46.7237           90           90           90     102002.7   -88.638139 
  968000       967500   -9503.7955    1233.6569   -10737.452    4373.9539   -15111.406    132.26792   -39.064147   -57.562186   -51.962211    105.03338    25.458334    3.3586574      46.7237      46.7237      46.7237           90           90           90     102002.7   -49.529515 
  969000       968500   -9539.5148    1211.2649    -10750.78    4362.2553   -15113.035    129.86714     196.6087   -200.87963   -225.57842    91.753292   -91.984734   -51.207332      46.7237      46.7237      46.7237           90           90           90     102002.7   -76.616447 
  970000       969500   -9506.1037    1224.8056   -10730.909    4401.2631   -15132.172    131.31892   -405.53927   -346.21589    52.476504   -275.22097   -397.13669   -39.345753      46.7237      46.7237      46.7237           90           90           90     102002.7   -233.09288 
  971000       970500   -9530.1317    1218.5776   -10748.709    4368.6779   -15117.387    130.65118   -277.02931   -497.88075   -704.59167   -260.55915   -161.02945   -64.197841      46.7237      46.7237      46.7237           90           90           90     102002.7   -493.16724 
  972000       971500   -9495.5953    1220.8924   -10716.488    4400.0896   -15116.577    130.89936   -717.86662   -588.79742   -50.326046    228.09573   -21.126248    146.12206      46.7237      46.7237      46.7237           90           90           90     102002.7   -452.33003 
  973000       972500   -9517.3004     1208.834   -10726.134    4383.6067   -15109.741     129.6065    -874.0066   -137.15243   -291.49409    -52.94152    171.66572   -59.207047      46.7237      46.7237      46.7237           90           90           90     102002.7   -434.21771 
  974000       973500   -9521.7418    1206.8303   -10728.572    4376.9688   -15105.541    129.39168    -146.9765   -73.285501   -228.71528   -5.9975239    237.52031    282.32633      46.7237      46.7237      46.7237           90           90           90     102002.7   -149.65909 
  975000       974500   -9540.2472    1172.2873   -10712.534    4391.2716   -15103.806    125.68811   -267.83134   -284.10335   -443.62084    78.086458   -92.847414   -286.02762      46.7237      46.7237      46.7237           90           90           90     102002.7   -331.85185 
  976000       975500    -9490.379    1216.0844   -10706.463    4404.8953   -15111.359    130.38387   -134.42067    29.354836    -344.0293   -217.08385   -179.56366    8.9161073      46.7237      46.7237      46.7237           90           90           90     102002.7   -149.69838 
  977000       976500   -9513.6154    1226.4754   -10740.091    4368.1336   -15108.224    131.49795    59.016385    16.437059   -563.50489   -236.84825    -84.02649    43.926269      46.7237      46.7237      46.7237           90           90           90     102002.7   -162.68381 
  978000       977500   -9517.3256    1213.2928   -10730.618    4373.2747   -15103.893    130.08456   -246.60021    -273.8992   -153.42937    151.78433   -25.276866    153.72196      46.7237      46.7237      46.7237           90           90           90     102002.7   -224.64293 
  979000       978500   -9523.6524    1203.2241   -10726.876    4399.3369   -15126.213    129.00503    420.40006   -632.33092   -604.62925    190.73317    105.96334    57.966943      46.7237      46.7237      46.7237           90           90           90     102002.7    -272.1867 
  980000       979500   -9536.2857    1199.9638   -10736.249      4373.09   -15109.339    128.65548    32.730412    54.111629   -456.88793   -16.425299    124.85463    -58.93146      46.7237      46.7237      46.7237           90           90           90     102002.7   -123.34863 
  981000       980500   -9539.3271    1210.4486   -10749.776    4388.3896   -15138.165    129.77962   -330.21903   -69.689995   -109.24012    17.085998    108.16615   -180.41498      46.7237      46.7237      46.7237           90           90           90     102002.7   -169.71638 
  982000       981500   -9520.9403    1217.7393    -10738.68    4367.4441   -15106.124     130.5613    -74.35297   -344.01955    180.47566   -137.24636   -55.471348   -122.17939      46.7237      46.7237      46.7237           90           90           90     102002.7   -79.298953 
  983000       982500   -9504.4686    1236.8951   -10741.364    4390.4016   -15131.765    132.61511    332.81886   -231.53245   -521.27675     112.1478      60.6461   -204.57794      46.7237      46.7237      46.7237           90           90           90     102002.7   -139.99678 
  984000       983500   -9483.2552    1258.8898   -10742.145    4381.9964   -15124.141    134.97329    153.83648   -355.14938    -222.0531   -40.636484    22.484397   -273.69965      46.7237      46.7237      46.7237           90           90           90     102002.7     -141.122 
  985000       984500   -9543.3483    1206.6185   -10749.967    4397.3809   -15147.348    129.36897   -216.27633   -74.463619   -687.50535   -43.723443   -182.27014    293.27081      46.7237      46.7237      46.7237           90           90           90     102002.7   -326.08177 
  986000       985500   -9541.8091    1205.9479   -10747.757    4391.9789   -15139.736    129.29706   -423.92633   -476.59618    28.100057   -118.11607    -100.4888    45.378768      46.7237      46.7237      46.7237           90           90           90     102002.7   -290.80748 
  987000       986500   -9507.8251    1217.1619   -10724.987    4398.5254   -15123.512     130.4994   -231.72817   -194.56852   -314.68789   -61.479664    203.76178    351.80842      46.7237      46.7237      46.7237           90           90           90     102002.7   -246.99486 
  988000       987500    -9547.513    1177.3998   -10724.913    4400.1501   -15125.063    126.23625   -326.86009   -835.54803   -449.54257    140.91228     19.81917    404.62901      46.7237      46.7237      46.7237           90           90           90     102002.7   -537.31689 
  989000       988500   -9529.9976    1186.2871   -10716.285    4400.7166   -15117.001    127.18911    141.69115    -837.0379    45.488976    114.80094    141.23606    143.34279      46.7237      46.7237      46.7237           90           90           90     102002.7   -216.61926 
  990000       989500   -9496.4507    1230.9569   -10727.408    4377.8512   -15105.259    131.97844   -75.922079   -136.88518    186.23791   -145.28275    62.219882    148.94445      46.7237      46.7237      46.7237           90           90           90     102002.7   -8.8564508 
  991000       990500   -9527.2928     1180.949   -10708.242    4410.6752   -15118.917    126.61679   -68.224741   -808.80901   -518.07611    44.404664   -176.10305   -75.871107      46.7237      46.7237      46.7237           90           90           90     102002.7   -465.03662 
  992000       991500   -9493.6426    1238.5591   -10732.202    4395.7769   -15127.979    132.79351   -186.56642   -406.43996   -463.35727    11.230909   -208.47126   -53.439762      46.7237      46.7237      46.7237           90           90           90     102002.7   -352.12122 
  993000       992500   -9565.9778    1172.0633   -10738.041    4386.2572   -15124.298    125.66409   -608.33198   -276.51534   -123.55554    195.29088   -70.140837   -173.72069      46.7237      46.7237      46.7237           90           90           90     102002.7   -336.13429 
  994000       993500   -9525.6741    1220.6797   -10746.354    4395.3978   -15141.752    130.87655   -480.86719   -455.55955   -654.48561    42.841698   -349.28214     -4.53236      46.7237      46.7237      46.7237           90           90           90     102002.7   -530.30411 
  995000       994500   -9452.6247    1253.5466   -10706.171    4392.4902   -15098.661    134.40042    -80.22477   -521.50989   -226.76007     77.34434    190.45259   -53.605184      46.7237      46.7237      46.7237           90           90           90     102002.7   -276.16491 
  996000       995500   -9530.8056    1211.3874   -10742.193    4377.7809   -15119.974    129.88027   -481.55433   -566.59389   -311.25869   -79.271707    110.25999    60.525128      46.7237      46.7237      46.7237           90           90           90     102002.7   -453.13563 
  997000       996500   -9524.8332    1214.0627   -10738.896    4379.0445    -15117.94     130.1671   -193.97096     -307.294   -129.34595    156.23625   -169.37455    21.994439      46.7237      46.7237      46.7237           90           90           90     102002.7   -210.20364 
  998000       997500   -9490.6885    1245.6556   -10736.344    4391.0423   -15127.386    133.55438   -582.84724    343.32877   -327.44829    147.11189   -180.32182    7.8281992      46.7237      46.7237      46.7237           90           90           90     102002.7   -188.98892 
  999000       998500   -9545.0069    1197.8955   -10742.902    4386.0442   -15128.947    128.43372   -218.22215   -284.62991   -226.74793    81.613811    119.47593     327.7969      46.7237      46.7237      46.7237           90           90           90     102002.7       -243.2 
 1000000       999500     -9517.29     1227.839   -10745.129    4397.7045   -15142.833    131.64414   -630.09379   -181.78689   -115.57441   -223.70081   -55.543138    56.993865      46.7237      46.7237      46.7237           90           90           90     102002.7    -309.1517 
 1000500      1000000   -9526.6527    1210.3615   -10737.014      4409.14   -15146.154    129.77027   -961.76707     -182.775   -568.94353   -58.251299   -260.13203   -206.94498      46.7237      46.7237      46.7237           90           90           90     102002.7   -571.16187 
Loop time of 2384.39 on 16 procs for 500000 steps with 3130 atoms

Performance: 18.118 ns/day, 1.325 hours/ns, 209.697 timesteps/s
99.8% CPU use with 16 MPI tasks x no OpenMP threads

MPI task timing breakdown:
Section |  min time  |  avg time  |  max time  |%varavg| %total
---------------------------------------------------------------
Pair    | 952.55     | 1425.1     | 1903.1     | 992.0 | 59.77
Bond    | 114.99     | 183.32     | 253.47     | 428.9 |  7.69
Neigh   | 17.628     | 17.687     | 17.81      |   1.5 |  0.74
Comm    | 178.19     | 724.59     | 1248       |1595.5 | 30.39
Output  | 0.13175    | 0.1385     | 0.13914    |   0.5 |  0.01
Modify  | 24.4       | 26.646     | 28.967     |  33.8 |  1.12
Other   |            | 6.895      |            |       |  0.29

Nlocal:    195.625 ave 231 max 165 min
Histogram: 6 2 0 0 0 0 1 1 3 3
Nghost:    4003.88 ave 4046 max 3957 min
Histogram: 2 1 3 1 1 0 1 3 2 2
Neighs:    11434.3 ave 17981 max 5979 min
Histogram: 8 0 0 0 0 0 1 2 1 4

Total # of neighbors = 182949
Ave neighs/atom = 58.4502
Ave special neighs/atom = 3.68051
Neighbor list builds = 5121
Dangerous builds = 0
Total wall time: 1:11:51
