LAMMPS (30 Mar 2018)
Reading data file ...
  orthogonal box = (0 0 0) to (46.7237 46.7237 46.7237)
  2 by 2 by 4 MPI processor grid
  reading atoms ...
  3019 atoms
  scanning bonds ...
  5 = max bonds/atom
  scanning angles ...
  10 = max angles/atom
  scanning dihedrals ...
  32 = max dihedrals/atom
  scanning impropers ...
  3 = max impropers/atom
  reading bonds ...
  2064 bonds
  reading angles ...
  3696 angles
  reading dihedrals ...
  6240 dihedrals
  reading impropers ...
  1008 impropers
Finding 1-2 1-3 1-4 neighbors ...
  special bond factors lj:   0          0          0         
  special bond factors coul: 0          0          0         
  5 = max # of 1-2 neighbors
  8 = max # of 1-3 neighbors
  20 = max # of 1-4 neighbors
  19 = max # of special neighbors
Finding 1-2 1-3 1-4 neighbors ...
  special bond factors lj:   0          0          1         
  special bond factors coul: 1          1          1         
  5 = max # of 1-2 neighbors
  8 = max # of 1-3 neighbors
  19 = max # of special neighbors
WARNING: Using 'neigh_modify every 1 delay 0 check yes' setting during minimization (../min.cpp:168)
Neighbor list info ...
  update every 1 steps, delay 0 steps, check yes
  max neighbors/atom: 2000, page size: 100000
  master list distance cutoff = 16
  ghost atom cutoff = 16
  binsize = 8, bins = 6 6 6
  3 neighbor lists, perpetual/occasional/extra = 3 0 0
  (1) pair buck6d/coul/gauss/dsf, perpetual, skip from (3)
      attributes: half, newton on
      pair build: skip
      stencil: none
      bin: none
  (2) pair lj/cut, perpetual, skip from (3)
      attributes: half, newton on
      pair build: skip
      stencil: none
      bin: none
  (3) neighbor class addition, perpetual
      attributes: half, newton on
      pair build: half/bin/newton
      stencil: half/bin/3d/newton
      bin: standard
Setting up cg style minimization ...
  Unit style    : real
  Current step  : 0
WARNING: Inconsistent image flags (../domain.cpp:786)
Per MPI rank memory allocation (min/avg/max) = 23 | 23.46 | 23.9 Mbytes
Step Temp E_pair E_mol TotEng Press 
       0            0   -14747.227    6482.8914   -8264.3354    5850.7924 
     500            0   -15213.014    3731.0408   -11481.973   -1902.4603 
Loop time of 4.39614 on 16 procs for 500 steps with 3019 atoms

99.9% CPU use with 16 MPI tasks x no OpenMP threads

Minimization stats:
  Stopping criterion = max force evaluations
  Energy initial, next-to-last, final = 
        -8264.33536898     -11481.7773541     -11481.9734189
  Force two-norm initial, final = 2575.3 21.2204
  Force max component initial, final = 152.086 4.67727
  Final line search alpha, max atom move = 0.00461314 0.0215769
  Iterations, force evaluations = 500 1000

MPI task timing breakdown:
Section |  min time  |  avg time  |  max time  |%varavg| %total
---------------------------------------------------------------
Pair    | 2.1891     | 2.7621     | 3.5517     |  21.3 | 62.83
Bond    | 0.29851    | 0.36209    | 0.4284     |   6.6 |  8.24
Neigh   | 0.041436   | 0.041589   | 0.041916   |   0.1 |  0.95
Comm    | 0.33219    | 1.1863     | 1.7792     |  33.8 | 26.99
Output  | 0          | 0          | 0          |   0.0 |  0.00
Modify  | 0          | 0          | 0          |   0.0 |  0.00
Other   |            | 0.04403    |            |       |  1.00

Nlocal:    188.688 ave 234 max 153 min
Histogram: 1 3 2 2 1 3 1 1 1 1
Nghost:    3770.5 ave 3805 max 3729 min
Histogram: 1 2 0 1 4 2 0 2 3 1
Neighs:    11477.3 ave 19986 max 6237 min
Histogram: 2 2 2 4 2 1 1 1 0 1

Total # of neighbors = 183637
Ave neighs/atom = 60.8271
Ave special neighs/atom = 3.81583
Neighbor list builds = 13
Dangerous builds = 0
Neighbor list info ...
  update every 1 steps, delay 10 steps, check yes
  max neighbors/atom: 2000, page size: 100000
  master list distance cutoff = 16
  ghost atom cutoff = 16
  binsize = 8, bins = 6 6 6
  3 neighbor lists, perpetual/occasional/extra = 3 0 0
  (1) pair buck6d/coul/gauss/dsf, perpetual, skip from (3)
      attributes: half, newton on
      pair build: skip
      stencil: none
      bin: none
  (2) pair lj/cut, perpetual, skip from (3)
      attributes: half, newton on
      pair build: skip
      stencil: none
      bin: none
  (3) neighbor class addition, perpetual
      attributes: half, newton on
      pair build: half/bin/newton
      stencil: half/bin/3d/newton
      bin: standard
Setting up Verlet run ...
  Unit style    : real
  Current step  : 500
  Time step     : 1
WARNING: Inconsistent image flags (../domain.cpp:786)
Per MPI rank memory allocation (min/avg/max) = 22.65 | 22.75 | 22.96 Mbytes
Step Temp PotEng TotEng Press Volume Lx Ly Lz 
     500          130   -11481.973   -10312.482   -1378.3556     102002.7      46.7237      46.7237      46.7237 
    1000     112.3649   -10533.157   -9522.3124    -363.6162     102002.7      46.7237      46.7237      46.7237 
    2000    131.28152   -10370.937   -9189.9172   -617.39847     102002.7      46.7237      46.7237      46.7237 
    3000    131.10081   -10366.944   -9187.5497   -357.89841     102002.7      46.7237      46.7237      46.7237 
    4000    125.73987   -10342.324   -9211.1576   -575.83463     102002.7      46.7237      46.7237      46.7237 
    5000    129.45116   -10363.333   -9198.7793   -625.55408     102002.7      46.7237      46.7237      46.7237 
    6000    127.04724   -10367.879   -9224.9512   -635.75979     102002.7      46.7237      46.7237      46.7237 
    7000    129.03308   -10360.782   -9199.9896   -418.78514     102002.7      46.7237      46.7237      46.7237 
    8000    132.89368    -10338.25   -9142.7276    -688.1073     102002.7      46.7237      46.7237      46.7237 
    9000    127.67558   -10349.611   -9201.0307   -340.75187     102002.7      46.7237      46.7237      46.7237 
   10000    131.45749    -10317.59   -9134.9877    -552.9989     102002.7      46.7237      46.7237      46.7237 
   11000    130.95566   -10378.093   -9200.0049   -980.98021     102002.7      46.7237      46.7237      46.7237 
   12000    131.61597   -10365.343   -9181.3142   -522.41629     102002.7      46.7237      46.7237      46.7237 
   13000    129.57404   -10365.092   -9199.4325   -677.21229     102002.7      46.7237      46.7237      46.7237 
   14000    130.27391   -10334.617   -9162.6621   -627.49958     102002.7      46.7237      46.7237      46.7237 
   15000    127.20164   -10365.305   -9220.9878   -281.60082     102002.7      46.7237      46.7237      46.7237 
   16000     128.7887   -10358.985   -9200.3909   -762.20944     102002.7      46.7237      46.7237      46.7237 
   17000    125.39803   -10340.516   -9212.4251   -716.09207     102002.7      46.7237      46.7237      46.7237 
   18000    129.85091    -10355.78   -9187.6301   -449.61836     102002.7      46.7237      46.7237      46.7237 
   19000    127.62822   -10366.609   -9218.4551   -858.99197     102002.7      46.7237      46.7237      46.7237 
   20000    129.51619   -10380.152   -9215.0132   -421.56022     102002.7      46.7237      46.7237      46.7237 
   21000    130.86269   -10367.024   -9189.7724   -561.96699     102002.7      46.7237      46.7237      46.7237 
   22000     131.4573   -10349.567   -9166.9662   -635.29115     102002.7      46.7237      46.7237      46.7237 
   23000    128.81208   -10372.365   -9213.5607    -639.0012     102002.7      46.7237      46.7237      46.7237 
   24000     131.6429   -10337.243   -9152.9719   -600.94381     102002.7      46.7237      46.7237      46.7237 
   25000    130.88373   -10355.401   -9177.9603   -804.38198     102002.7      46.7237      46.7237      46.7237 
   26000    129.58671   -10353.901   -9188.1275   -407.49305     102002.7      46.7237      46.7237      46.7237 
   27000    133.90515   -10344.404   -9139.7819   -782.32563     102002.7      46.7237      46.7237      46.7237 
   28000    130.22021   -10365.626   -9194.1543   -547.85272     102002.7      46.7237      46.7237      46.7237 
   29000    128.58022     -10380.6   -9223.8814   -654.92826     102002.7      46.7237      46.7237      46.7237 
   30000    132.09285   -10362.364   -9174.0454   -801.17003     102002.7      46.7237      46.7237      46.7237 
   31000    129.01778    -10360.43   -9199.7753   -488.96349     102002.7      46.7237      46.7237      46.7237 
   32000    127.66804   -10372.583   -9224.0703   -343.94377     102002.7      46.7237      46.7237      46.7237 
   33000    130.49724   -10338.414     -9164.45   -581.73459     102002.7      46.7237      46.7237      46.7237 
   34000    127.76044   -10362.854     -9213.51    -403.6349     102002.7      46.7237      46.7237      46.7237 
   35000    129.00779   -10371.528   -9210.9627   -998.69375     102002.7      46.7237      46.7237      46.7237 
   36000    130.12396   -10351.946     -9181.34     -641.171     102002.7      46.7237      46.7237      46.7237 
   37000    130.13267   -10371.453   -9200.7689   -563.48989     102002.7      46.7237      46.7237      46.7237 
   38000    128.51053   -10392.275   -9236.1836   -450.39066     102002.7      46.7237      46.7237      46.7237 
   39000    130.43767   -10348.933   -9175.5051   -463.68075     102002.7      46.7237      46.7237      46.7237 
   40000    127.06034     -10351.7   -9208.6548   -842.86904     102002.7      46.7237      46.7237      46.7237 
   41000    128.33467   -10328.509   -9173.9991   -715.70901     102002.7      46.7237      46.7237      46.7237 
   42000    130.29379   -10358.684   -9186.5495   -560.01458     102002.7      46.7237      46.7237      46.7237 
   43000    126.68719   -10362.067   -9222.3782   -640.70892     102002.7      46.7237      46.7237      46.7237 
   44000    129.89007   -10406.993   -9238.4911   -409.50573     102002.7      46.7237      46.7237      46.7237 
   45000     130.3319   -10355.694   -9183.2173   -653.88965     102002.7      46.7237      46.7237      46.7237 
   46000    134.11627   -10324.443   -9117.9219   -748.99253     102002.7      46.7237      46.7237      46.7237 
   47000    126.96107   -10359.504   -9217.3513   -574.34653     102002.7      46.7237      46.7237      46.7237 
   48000    130.26231   -10387.444   -9215.5936   -581.36061     102002.7      46.7237      46.7237      46.7237 
   49000    127.20198   -10391.277   -9246.9569   -671.67216     102002.7      46.7237      46.7237      46.7237 
   50000    130.01618    -10360.95   -9191.3131   -264.35664     102002.7      46.7237      46.7237      46.7237 
   51000    128.40187   -10350.089   -9194.9753   -720.00684     102002.7      46.7237      46.7237      46.7237 
   52000    128.76893    -10394.09    -9235.674   -528.41243     102002.7      46.7237      46.7237      46.7237 
   53000    130.31338   -10383.278    -9210.968   -556.67201     102002.7      46.7237      46.7237      46.7237 
   54000    129.49835   -10348.805   -9183.8264   -445.12239     102002.7      46.7237      46.7237      46.7237 
   55000    130.28434   -10371.549      -9199.5   -314.95194     102002.7      46.7237      46.7237      46.7237 
   56000    132.82577   -10365.712   -9170.8001   -717.10919     102002.7      46.7237      46.7237      46.7237 
   57000    132.60472   -10373.238   -9180.3143   -415.36278     102002.7      46.7237      46.7237      46.7237 
   58000    130.88683   -10355.281   -9177.8125   -265.11848     102002.7      46.7237      46.7237      46.7237 
   59000    129.97052   -10358.901   -9189.6748    -914.6081     102002.7      46.7237      46.7237      46.7237 
   60000    132.42037   -10343.784    -9152.519   -579.03794     102002.7      46.7237      46.7237      46.7237 
   61000    128.96266    -10335.74   -9175.5808   -725.42598     102002.7      46.7237      46.7237      46.7237 
   62000    127.48565   -10372.702   -9225.8307   -838.54158     102002.7      46.7237      46.7237      46.7237 
   63000    128.07426   -10325.594    -9173.427   -750.36555     102002.7      46.7237      46.7237      46.7237 
   64000    129.39494   -10354.684   -9190.6357   -515.80597     102002.7      46.7237      46.7237      46.7237 
   65000     128.4368   -10341.874   -9186.4457    -501.4247     102002.7      46.7237      46.7237      46.7237 
   66000    129.20317   -10334.925   -9172.6021   -566.64078     102002.7      46.7237      46.7237      46.7237 
   67000     131.8529   -10362.238    -9176.078   -765.87736     102002.7      46.7237      46.7237      46.7237 
   68000    130.61598    -10368.26    -9193.228    -623.5595     102002.7      46.7237      46.7237      46.7237 
   69000    133.95799   -10349.262   -9144.1651   -237.53597     102002.7      46.7237      46.7237      46.7237 
   70000    126.67907   -10351.049   -9211.4329   -995.53533     102002.7      46.7237      46.7237      46.7237 
   71000     128.7187   -10378.437   -9220.4722   -827.26666     102002.7      46.7237      46.7237      46.7237 
   72000    131.30676   -10339.278   -9158.0314   -796.80473     102002.7      46.7237      46.7237      46.7237 
   73000    130.87768   -10362.032   -9184.6455   -625.02919     102002.7      46.7237      46.7237      46.7237 
   74000    130.80817   -10340.108   -9163.3465   -379.01532     102002.7      46.7237      46.7237      46.7237 
   75000    127.77619   -10369.202   -9219.7168    -980.1351     102002.7      46.7237      46.7237      46.7237 
   76000    131.54352   -10370.937   -9187.5607   -760.25601     102002.7      46.7237      46.7237      46.7237 
   77000    132.48345   -10366.336    -9174.504   -636.23582     102002.7      46.7237      46.7237      46.7237 
   78000    132.27336   -10356.636   -9166.6939   -884.06491     102002.7      46.7237      46.7237      46.7237 
   79000    130.00763   -10390.777   -9221.2177   -425.14298     102002.7      46.7237      46.7237      46.7237 
   80000    128.14902   -10368.437   -9215.5979   -559.81946     102002.7      46.7237      46.7237      46.7237 
   81000    127.26028   -10358.216   -9213.3718   -390.46913     102002.7      46.7237      46.7237      46.7237 
   82000    130.73503   -10309.863   -9133.7593   -467.72051     102002.7      46.7237      46.7237      46.7237 
   83000    132.15092   -10356.072   -9167.2307   -559.21465     102002.7      46.7237      46.7237      46.7237 
   84000    129.83554   -10354.619   -9186.6076   -529.50842     102002.7      46.7237      46.7237      46.7237 
   85000    131.73641   -10348.737   -9163.6255    -688.1386     102002.7      46.7237      46.7237      46.7237 
   86000    131.97284   -10360.996   -9173.7572   -425.60327     102002.7      46.7237      46.7237      46.7237 
   87000    129.38586     -10368.3    -9204.334   -596.77843     102002.7      46.7237      46.7237      46.7237 
   88000    131.32602   -10360.646   -9179.2259   -552.14222     102002.7      46.7237      46.7237      46.7237 
   89000    130.64886   -10346.409   -9171.0805    -500.0856     102002.7      46.7237      46.7237      46.7237 
   90000    129.14213   -10371.341   -9209.5674   -314.91165     102002.7      46.7237      46.7237      46.7237 
   91000    128.59616   -10349.552     -9192.69   -375.28982     102002.7      46.7237      46.7237      46.7237 
   92000    128.79918   -10354.088   -9195.3999   -622.54183     102002.7      46.7237      46.7237      46.7237 
   93000    127.30893   -10368.379   -9223.0976   -739.01638     102002.7      46.7237      46.7237      46.7237 
   94000    129.06664   -10324.942   -9163.8473   -562.56601     102002.7      46.7237      46.7237      46.7237 
   95000    126.75885   -10382.449   -9242.1157   -522.71014     102002.7      46.7237      46.7237      46.7237 
   96000    127.91054   -10345.962   -9195.2677   -502.89141     102002.7      46.7237      46.7237      46.7237 
   97000    131.14595   -10347.661   -9167.8614   -582.15609     102002.7      46.7237      46.7237      46.7237 
   98000    132.69872   -10333.783   -9140.0138   -512.24503     102002.7      46.7237      46.7237      46.7237 
   99000    129.86001   -10370.586   -9202.3546   -648.50172     102002.7      46.7237      46.7237      46.7237 
  100000    126.85878   -10379.393    -9238.161   -704.97257     102002.7      46.7237      46.7237      46.7237 
  101000    126.77144   -10334.302   -9193.8551   -507.68606     102002.7      46.7237      46.7237      46.7237 
  102000    130.58721   -10320.749   -9145.9755   -531.54817     102002.7      46.7237      46.7237      46.7237 
  103000    129.75543   -10356.542   -9189.2514   -818.15437     102002.7      46.7237      46.7237      46.7237 
  104000    131.25182   -10356.977   -9176.2246    -635.7746     102002.7      46.7237      46.7237      46.7237 
  105000    128.25408     -10369.3   -9215.5152   -523.79858     102002.7      46.7237      46.7237      46.7237 
  106000    129.39449     -10352.6   -9188.5561   -576.64525     102002.7      46.7237      46.7237      46.7237 
  107000    131.20851   -10366.175   -9185.8126   -720.04484     102002.7      46.7237      46.7237      46.7237 
  108000    128.88225   -10385.345   -9225.9096   -379.19487     102002.7      46.7237      46.7237      46.7237 
  109000    127.61895   -10366.709   -9218.6382   -330.12526     102002.7      46.7237      46.7237      46.7237 
  110000    127.92541   -10351.548   -9200.7207   -696.47452     102002.7      46.7237      46.7237      46.7237 
  111000    129.54347   -10360.047   -9194.6633   -410.15469     102002.7      46.7237      46.7237      46.7237 
  112000    131.12674   -10374.586   -9194.9583   -399.32123     102002.7      46.7237      46.7237      46.7237 
  113000    129.61156   -10366.134    -9200.137    -434.1213     102002.7      46.7237      46.7237      46.7237 
  114000    130.57159    -10363.28   -9188.6468    -659.0306     102002.7      46.7237      46.7237      46.7237 
  115000    130.83401   -10368.323   -9191.3293   -479.81241     102002.7      46.7237      46.7237      46.7237 
  116000    130.86327   -10352.143   -9174.8864   -606.76256     102002.7      46.7237      46.7237      46.7237 
  117000    130.84379   -10385.172     -9208.09   -1076.2999     102002.7      46.7237      46.7237      46.7237 
  118000    132.00685   -10369.904   -9182.3591    -774.2791     102002.7      46.7237      46.7237      46.7237 
  119000    126.92003    -10364.62   -9222.8363   -868.19745     102002.7      46.7237      46.7237      46.7237 
  120000    132.20845   -10362.629    -9173.271   -812.20314     102002.7      46.7237      46.7237      46.7237 
  121000    128.74425   -10373.614     -9215.42   -824.06103     102002.7      46.7237      46.7237      46.7237 
  122000    132.57021   -10350.229   -9157.6163    -580.1351     102002.7      46.7237      46.7237      46.7237 
  123000    129.11454   -10334.178    -9172.653    -427.7634     102002.7      46.7237      46.7237      46.7237 
  124000    127.72598   -10348.601   -9199.5672   -997.61831     102002.7      46.7237      46.7237      46.7237 
  125000    128.08769   -10332.664   -9180.3766   -452.08543     102002.7      46.7237      46.7237      46.7237 
  126000    128.84515   -10359.738   -9200.6364   -332.51569     102002.7      46.7237      46.7237      46.7237 
  127000    134.23551   -10359.964   -9152.3698   -825.08594     102002.7      46.7237      46.7237      46.7237 
  128000    127.87894     -10330.3     -9179.89   -707.99969     102002.7      46.7237      46.7237      46.7237 
  129000    131.57345   -10342.217   -9158.5711   -615.56755     102002.7      46.7237      46.7237      46.7237 
  130000    127.90556   -10374.364   -9223.7152   -615.17771     102002.7      46.7237      46.7237      46.7237 
  131000    129.61708   -10364.497   -9198.4504   -665.58989     102002.7      46.7237      46.7237      46.7237 
  132000    131.97169   -10360.138   -9172.9092   -515.08936     102002.7      46.7237      46.7237      46.7237 
  133000    132.87425   -10343.524   -9148.1758   -896.23132     102002.7      46.7237      46.7237      46.7237 
  134000    129.30262   -10350.917   -9187.7001   -649.02505     102002.7      46.7237      46.7237      46.7237 
  135000      127.704   -10368.809    -9219.973   -494.31737     102002.7      46.7237      46.7237      46.7237 
  136000    132.01439   -10373.094   -9185.4815   -676.24286     102002.7      46.7237      46.7237      46.7237 
  137000    128.86979   -10362.461   -9203.1375   -774.78152     102002.7      46.7237      46.7237      46.7237 
  138000    128.82505   -10348.781   -9189.8601   -791.88613     102002.7      46.7237      46.7237      46.7237 
  139000    131.03051   -10364.357   -9185.5958   -984.28812     102002.7      46.7237      46.7237      46.7237 
  140000    129.25993   -10370.081   -9207.2475     -510.794     102002.7      46.7237      46.7237      46.7237 
  141000    128.89398   -10362.642   -9203.1008   -647.98896     102002.7      46.7237      46.7237      46.7237 
  142000    132.74806   -10360.893   -9166.6806   -935.07064     102002.7      46.7237      46.7237      46.7237 
  143000    126.69956   -10307.415   -9167.6147   -705.33368     102002.7      46.7237      46.7237      46.7237 
  144000    127.51233   -10363.995   -9216.8836   -768.84298     102002.7      46.7237      46.7237      46.7237 
  145000    128.88965   -10383.365   -9223.8626   -696.31262     102002.7      46.7237      46.7237      46.7237 
  146000    128.69678   -10360.232    -9202.465   -519.01031     102002.7      46.7237      46.7237      46.7237 
  147000    131.51904   -10350.462   -9167.3052   -718.59144     102002.7      46.7237      46.7237      46.7237 
  148000    131.46018   -10352.925   -9170.2982    -596.2271     102002.7      46.7237      46.7237      46.7237 
  149000    134.57135    -10381.82   -9171.2044   -600.35246     102002.7      46.7237      46.7237      46.7237 
  150000    130.24427   -10372.118   -9200.4291    -606.3728     102002.7      46.7237      46.7237      46.7237 
  151000    127.83286   -10348.292   -9198.2963   -569.98902     102002.7      46.7237      46.7237      46.7237 
  152000    130.47728   -10361.464   -9187.6795   -689.43162     102002.7      46.7237      46.7237      46.7237 
  153000    128.24982    -10353.32   -9199.5736    -931.8839     102002.7      46.7237      46.7237      46.7237 
  154000    132.05965   -10358.456   -9170.4359   -813.27491     102002.7      46.7237      46.7237      46.7237 
  155000    131.89719   -10370.389   -9183.8308   -748.29061     102002.7      46.7237      46.7237      46.7237 
  156000    128.10743   -10350.134   -9197.6692   -501.72493     102002.7      46.7237      46.7237      46.7237 
  157000    131.04891   -10308.898   -9129.9712   -714.64253     102002.7      46.7237      46.7237      46.7237 
  158000    129.77456   -10360.518   -9193.0551    -772.7943     102002.7      46.7237      46.7237      46.7237 
  159000    127.84374   -10364.284   -9214.1909   -386.93931     102002.7      46.7237      46.7237      46.7237 
  160000    132.92254   -10338.494   -9142.7113    -717.3353     102002.7      46.7237      46.7237      46.7237 
  161000    129.56066   -10365.501   -9199.9625   -502.90323     102002.7      46.7237      46.7237      46.7237 
  162000    131.44125   -10345.408   -9162.9511   -195.97822     102002.7      46.7237      46.7237      46.7237 
  163000    132.76719   -10357.302   -9162.9173   -666.42111     102002.7      46.7237      46.7237      46.7237 
  164000    129.56821   -10356.426   -9190.8196   -664.47745     102002.7      46.7237      46.7237      46.7237 
  165000    132.42776   -10347.884   -9156.5527   -720.31909     102002.7      46.7237      46.7237      46.7237 
  166000    129.58926   -10327.476   -9161.6803   -717.30043     102002.7      46.7237      46.7237      46.7237 
  167000    133.83408   -10392.246   -9188.2633   -536.64897     102002.7      46.7237      46.7237      46.7237 
  168000    129.49229   -10333.004   -9168.0803   -552.21393     102002.7      46.7237      46.7237      46.7237 
  169000    129.49891   -10368.978   -9203.9953   -781.61697     102002.7      46.7237      46.7237      46.7237 
  170000    130.86343   -10327.954   -9150.6956   -755.77838     102002.7      46.7237      46.7237      46.7237 
  171000    129.43872   -10355.899   -9191.4572   -794.25988     102002.7      46.7237      46.7237      46.7237 
  172000    131.69003   -10349.301   -9164.6063   -511.92608     102002.7      46.7237      46.7237      46.7237 
  173000    126.74013   -10348.677   -9208.5119   -602.06086     102002.7      46.7237      46.7237      46.7237 
  174000     128.7394   -10361.158   -9203.0074   -695.19091     102002.7      46.7237      46.7237      46.7237 
  175000    130.71986   -10344.658   -9168.6912   -894.66694     102002.7      46.7237      46.7237      46.7237 
  176000    129.61373    -10335.98   -9169.9636   -667.45959     102002.7      46.7237      46.7237      46.7237 
  177000    126.87544   -10381.572   -9240.1902   -892.13591     102002.7      46.7237      46.7237      46.7237 
  178000    130.51579   -10343.301   -9169.1704   -664.81811     102002.7      46.7237      46.7237      46.7237 
  179000    128.19953   -10365.241   -9211.9471   -664.22713     102002.7      46.7237      46.7237      46.7237 
  180000    130.79949   -10376.741   -9200.0578   -435.98089     102002.7      46.7237      46.7237      46.7237 
  181000    130.61765   -10346.976   -9171.9285   -628.13094     102002.7      46.7237      46.7237      46.7237 
  182000     127.4453   -10383.991   -9237.4822   -740.27653     102002.7      46.7237      46.7237      46.7237 
  183000    128.84048   -10362.581   -9203.5212   -798.15566     102002.7      46.7237      46.7237      46.7237 
  184000    133.14263   -10345.366   -9147.6037   -687.13621     102002.7      46.7237      46.7237      46.7237 
  185000    127.41829   -10388.597   -9242.3307   -647.49436     102002.7      46.7237      46.7237      46.7237 
  186000    128.76206   -10400.987    -9242.633   -968.54969     102002.7      46.7237      46.7237      46.7237 
  187000    129.81905   -10373.081    -9205.218   -738.14026     102002.7      46.7237      46.7237      46.7237 
  188000    129.11277   -10337.854   -9176.3449   -814.89063     102002.7      46.7237      46.7237      46.7237 
  189000    131.52081   -10338.433   -9155.2603   -712.79817     102002.7      46.7237      46.7237      46.7237 
  190000    128.17423   -10346.544   -9193.4777   -407.99153     102002.7      46.7237      46.7237      46.7237 
  191000    130.67922   -10354.061   -9178.4593   -573.19686     102002.7      46.7237      46.7237      46.7237 
  192000    130.78995   -10376.868   -9200.2703   -695.51956     102002.7      46.7237      46.7237      46.7237 
  193000     130.2877    -10356.56   -9184.4809   -484.20112     102002.7      46.7237      46.7237      46.7237 
  194000     132.4953   -10337.907   -9145.9681   -863.08309     102002.7      46.7237      46.7237      46.7237 
  195000    126.02845   -10372.264   -9238.5016   -1030.7827     102002.7      46.7237      46.7237      46.7237 
  196000    130.13991   -10359.975   -9189.2256    -998.7098     102002.7      46.7237      46.7237      46.7237 
  197000    129.99568   -10381.731   -9212.2785   -1027.5845     102002.7      46.7237      46.7237      46.7237 
  198000    131.82009   -10369.345   -9183.4803   -677.79846     102002.7      46.7237      46.7237      46.7237 
  199000     130.0576    -10373.43   -9203.4213   -502.39969     102002.7      46.7237      46.7237      46.7237 
  200000    129.95514   -10385.012   -9215.9244   -802.36831     102002.7      46.7237      46.7237      46.7237 
  201000    129.06155   -10357.067   -9196.0185     -785.786     102002.7      46.7237      46.7237      46.7237 
  202000    134.78075   -10324.828   -9112.3294   -811.48091     102002.7      46.7237      46.7237      46.7237 
  203000    129.18591   -10345.521   -9183.3538   -588.55853     102002.7      46.7237      46.7237      46.7237 
  204000    132.52147   -10368.014   -9175.8399   -634.11782     102002.7      46.7237      46.7237      46.7237 
  205000     132.0988    -10393.45   -9205.0781   -1032.6791     102002.7      46.7237      46.7237      46.7237 
  206000    127.23153   -10342.677   -9198.0911   -972.13729     102002.7      46.7237      46.7237      46.7237 
  207000    129.87114   -10395.024   -9226.6925   -730.11181     102002.7      46.7237      46.7237      46.7237 
  208000    125.74883   -10370.675   -9239.4277   -559.61576     102002.7      46.7237      46.7237      46.7237 
  209000    131.92228   -10351.595   -9164.8111   -482.92881     102002.7      46.7237      46.7237      46.7237 
  210000    131.36457   -10355.464   -9173.6976   -495.58136     102002.7      46.7237      46.7237      46.7237 
  211000    132.24087   -10338.642   -9148.9917    -644.2498     102002.7      46.7237      46.7237      46.7237 
  212000    127.92684   -10342.435   -9191.5942   -530.88254     102002.7      46.7237      46.7237      46.7237 
  213000    128.95903   -10363.324   -9203.1973    -618.2223     102002.7      46.7237      46.7237      46.7237 
  214000    130.82823    -10364.92   -9187.9784   -538.18707     102002.7      46.7237      46.7237      46.7237 
  215000    130.79924   -10392.961   -9216.2802   -406.76752     102002.7      46.7237      46.7237      46.7237 
  216000    130.02236   -10330.718   -9161.0254   -779.88666     102002.7      46.7237      46.7237      46.7237 
  217000    128.09064   -10355.623    -9203.309   -563.31391     102002.7      46.7237      46.7237      46.7237 
  218000    132.69951   -10350.367   -9156.5907   -637.66837     102002.7      46.7237      46.7237      46.7237 
  219000    128.21214   -10360.774    -9207.367   -922.42349     102002.7      46.7237      46.7237      46.7237 
  220000    130.77642   -10369.605   -9193.1294   -846.75348     102002.7      46.7237      46.7237      46.7237 
  221000    132.03048    -10366.98   -9179.2222   -823.86281     102002.7      46.7237      46.7237      46.7237 
  222000    131.46053   -10323.222   -9140.5915   -835.66931     102002.7      46.7237      46.7237      46.7237 
  223000    130.31534    -10361.52   -9189.1924   -657.81355     102002.7      46.7237      46.7237      46.7237 
  224000    127.92098   -10353.662   -9202.8741   -827.84021     102002.7      46.7237      46.7237      46.7237 
  225000    128.79306   -10318.085   -9159.4521   -631.50651     102002.7      46.7237      46.7237      46.7237 
  226000    131.60136   -10339.447   -9155.5499   -803.99271     102002.7      46.7237      46.7237      46.7237 
  227000     129.2282   -10338.098   -9175.5506   -480.40731     102002.7      46.7237      46.7237      46.7237 
  228000    130.73052   -10350.502   -9174.4393   -566.52013     102002.7      46.7237      46.7237      46.7237 
  229000    129.30145   -10336.918   -9173.7109   -716.79105     102002.7      46.7237      46.7237      46.7237 
  230000    129.15185   -10356.895   -9195.0345   -837.27231     102002.7      46.7237      46.7237      46.7237 
  231000    130.74574   -10334.969   -9158.7697   -949.61809     102002.7      46.7237      46.7237      46.7237 
  232000    130.06305   -10356.275   -9186.2167   -819.62318     102002.7      46.7237      46.7237      46.7237 
  233000    130.04892    -10371.05   -9201.1191   -787.14002     102002.7      46.7237      46.7237      46.7237 
  234000    128.65335   -10372.661   -9215.2845   -851.00656     102002.7      46.7237      46.7237      46.7237 
  235000    129.26395    -10370.85   -9207.9803   -718.85866     102002.7      46.7237      46.7237      46.7237 
  236000    132.19371   -10343.226   -9154.0004   -429.14102     102002.7      46.7237      46.7237      46.7237 
  237000    131.70057   -10373.338   -9188.5482   -474.19699     102002.7      46.7237      46.7237      46.7237 
  238000    131.74071   -10367.678   -9182.5273   -808.52791     102002.7      46.7237      46.7237      46.7237 
  239000    127.67315   -10344.877   -9196.3186   -724.98418     102002.7      46.7237      46.7237      46.7237 
  240000    127.97914   -10365.162   -9213.8509   -486.48369     102002.7      46.7237      46.7237      46.7237 
  241000    129.23907   -10350.042   -9187.3963   -522.58213     102002.7      46.7237      46.7237      46.7237 
  242000     130.4053   -10377.385   -9204.2478   -409.17806     102002.7      46.7237      46.7237      46.7237 
  243000    128.31928   -10356.091   -9201.7195   -952.49212     102002.7      46.7237      46.7237      46.7237 
  244000    129.49156   -10350.509   -9185.5916   -818.91082     102002.7      46.7237      46.7237      46.7237 
  245000    128.72382    -10347.25   -9189.2392   -706.81215     102002.7      46.7237      46.7237      46.7237 
  246000    131.97171   -10316.463   -9129.2343   -909.39661     102002.7      46.7237      46.7237      46.7237 
  247000    127.44182   -10351.675   -9205.1977   -252.59129     102002.7      46.7237      46.7237      46.7237 
  248000    128.23218   -10365.289   -9211.7011   -477.51254     102002.7      46.7237      46.7237      46.7237 
  249000    128.35382   -10363.959    -9209.277   -693.33526     102002.7      46.7237      46.7237      46.7237 
  250000    134.16094   -10360.245   -9153.3219   -566.64753     102002.7      46.7237      46.7237      46.7237 
  251000    130.21665   -10352.465   -9181.0248   -418.25094     102002.7      46.7237      46.7237      46.7237 
  252000    129.60179   -10358.271   -9192.3626   -230.93312     102002.7      46.7237      46.7237      46.7237 
  253000    129.34533   -10339.848   -9176.2464    -397.5439     102002.7      46.7237      46.7237      46.7237 
  254000    130.27094    -10334.49   -9162.5615    -309.6079     102002.7      46.7237      46.7237      46.7237 
  255000    130.05055   -10347.793   -9177.8476   -667.23785     102002.7      46.7237      46.7237      46.7237 
  256000    129.09128   -10364.229   -9202.9124   -578.30957     102002.7      46.7237      46.7237      46.7237 
  257000    132.40348   -10361.893   -9170.7799   -592.06013     102002.7      46.7237      46.7237      46.7237 
  258000    129.40146   -10327.679   -9163.5721   -622.57522     102002.7      46.7237      46.7237      46.7237 
  259000     129.9959   -10331.466   -9162.0119   -355.24445     102002.7      46.7237      46.7237      46.7237 
  260000    131.23758   -10374.849   -9194.2243   -567.59651     102002.7      46.7237      46.7237      46.7237 
  261000    134.29062   -10363.675   -9155.5855   -811.09854     102002.7      46.7237      46.7237      46.7237 
  262000    128.61273   -10366.765   -9209.7536   -542.25045     102002.7      46.7237      46.7237      46.7237 
  263000    127.92814   -10347.808   -9196.9561     -794.354     102002.7      46.7237      46.7237      46.7237 
  264000    130.54621   -10360.879   -9186.4738   -622.60631     102002.7      46.7237      46.7237      46.7237 
  265000    129.10342   -10372.422   -9210.9962   -848.49176     102002.7      46.7237      46.7237      46.7237 
  266000    133.40398   -10365.307   -9165.1936   -880.66758     102002.7      46.7237      46.7237      46.7237 
  267000    128.36188   -10332.348   -9177.5941   -634.86942     102002.7      46.7237      46.7237      46.7237 
  268000    132.58452   -10356.425   -9163.6832   -566.10408     102002.7      46.7237      46.7237      46.7237 
  269000    131.33547   -10389.175   -9207.6697   -1025.0268     102002.7      46.7237      46.7237      46.7237 
  270000     130.6916   -10350.001   -9174.2886   -634.52557     102002.7      46.7237      46.7237      46.7237 
  271000    129.90927   -10366.614   -9197.9387   -747.61062     102002.7      46.7237      46.7237      46.7237 
  272000    127.68277   -10330.906    -9182.261   -780.50488     102002.7      46.7237      46.7237      46.7237 
  273000    130.16422   -10359.003   -9188.0351   -948.10437     102002.7      46.7237      46.7237      46.7237 
  274000    131.18571   -10376.629   -9196.4717   -806.75259     102002.7      46.7237      46.7237      46.7237 
  275000    130.78435   -10348.718   -9172.1708   -627.25324     102002.7      46.7237      46.7237      46.7237 
  276000    128.16677   -10388.979   -9235.9796   -879.93659     102002.7      46.7237      46.7237      46.7237 
  277000    134.12919    -10349.49   -9142.8527   -679.12553     102002.7      46.7237      46.7237      46.7237 
  278000    130.86996   -10346.114   -9168.7967    -967.3037     102002.7      46.7237      46.7237      46.7237 
  279000    128.21859   -10348.355   -9194.8896     -847.964     102002.7      46.7237      46.7237      46.7237 
  280000    130.13864   -10336.771   -9166.0332   -668.22254     102002.7      46.7237      46.7237      46.7237 
  281000    130.28579   -10375.079   -9203.0172   -615.52164     102002.7      46.7237      46.7237      46.7237 
  282000    130.14366   -10318.178   -9147.3943   -849.71533     102002.7      46.7237      46.7237      46.7237 
  283000    129.43556     -10353.2   -9188.7863   -687.71798     102002.7      46.7237      46.7237      46.7237 
  284000    129.91558   -10365.467   -9196.7357   -657.71583     102002.7      46.7237      46.7237      46.7237 
  285000    130.01254   -10356.707   -9187.1028   -892.85416     102002.7      46.7237      46.7237      46.7237 
  286000    131.81559    -10354.49    -9168.666   -772.88727     102002.7      46.7237      46.7237      46.7237 
  287000    128.66158   -10358.048   -9200.5978   -706.13759     102002.7      46.7237      46.7237      46.7237 
  288000     131.5774   -10348.834   -9165.1522    -747.4315     102002.7      46.7237      46.7237      46.7237 
  289000    127.49371    -10337.75   -9190.8062   -777.95958     102002.7      46.7237      46.7237      46.7237 
  290000    127.02434   -10373.502   -9230.7798   -762.78861     102002.7      46.7237      46.7237      46.7237 
  291000    132.49092   -10377.173   -9185.2736   -796.84415     102002.7      46.7237      46.7237      46.7237 
  292000    130.78219   -10381.136   -9204.6085   -715.40983     102002.7      46.7237      46.7237      46.7237 
  293000    126.51925   -10344.333    -9206.155   -792.82253     102002.7      46.7237      46.7237      46.7237 
  294000    130.16993   -10361.189   -9190.1689   -318.28832     102002.7      46.7237      46.7237      46.7237 
  295000    134.17772   -10350.981   -9143.9073   -348.59988     102002.7      46.7237      46.7237      46.7237 
  296000    128.94677    -10368.54   -9208.5244   -851.39534     102002.7      46.7237      46.7237      46.7237 
  297000    126.88104   -10342.689   -9201.2562   -450.49114     102002.7      46.7237      46.7237      46.7237 
  298000    131.16215   -10353.292   -9173.3467   -793.55532     102002.7      46.7237      46.7237      46.7237 
  299000    132.63628   -10332.895   -9139.6879   -612.92542     102002.7      46.7237      46.7237      46.7237 
  300000    128.89389   -10365.308   -9205.7676   -681.38515     102002.7      46.7237      46.7237      46.7237 
  301000    126.29155   -10346.455   -9210.3254   -893.02419     102002.7      46.7237      46.7237      46.7237 
  302000    131.78246   -10360.418   -9174.8918    -689.9617     102002.7      46.7237      46.7237      46.7237 
  303000    129.20095   -10325.526   -9163.2234   -708.88662     102002.7      46.7237      46.7237      46.7237 
  304000    127.44428    -10346.43   -9199.9302   -466.80011     102002.7      46.7237      46.7237      46.7237 
  305000    131.89712   -10339.983   -9153.4255   -587.97751     102002.7      46.7237      46.7237      46.7237 
  306000    131.46489     -10366.9   -9184.2306   -676.37261     102002.7      46.7237      46.7237      46.7237 
  307000    130.23678   -10354.373   -9182.7521   -528.52051     102002.7      46.7237      46.7237      46.7237 
  308000    128.91417   -10348.779   -9189.0567   -544.85747     102002.7      46.7237      46.7237      46.7237 
  309000    128.55902   -10352.679   -9196.1507   -600.10335     102002.7      46.7237      46.7237      46.7237 
  310000    130.51644    -10348.58   -9174.4434   -408.16359     102002.7      46.7237      46.7237      46.7237 
  311000     131.8066   -10360.521   -9174.7773   -539.04303     102002.7      46.7237      46.7237      46.7237 
  312000    128.15935   -10356.854   -9203.9219   -740.75889     102002.7      46.7237      46.7237      46.7237 
  313000    131.04886   -10359.538   -9180.6116   -748.12556     102002.7      46.7237      46.7237      46.7237 
  314000    129.40269   -10360.391   -9196.2729   -726.50038     102002.7      46.7237      46.7237      46.7237 
  315000    132.74952   -10343.677   -9149.4508   -720.87563     102002.7      46.7237      46.7237      46.7237 
  316000    127.65323   -10328.828   -9180.4483   -748.13022     102002.7      46.7237      46.7237      46.7237 
  317000    133.01379   -10363.817   -9167.2136   -520.98001     102002.7      46.7237      46.7237      46.7237 
  318000    129.16748   -10356.265    -9194.263   -692.69087     102002.7      46.7237      46.7237      46.7237 
  319000    129.28232   -10367.739   -9204.7042   -619.41682     102002.7      46.7237      46.7237      46.7237 
  320000    130.83992   -10376.361   -9199.3142   -523.06083     102002.7      46.7237      46.7237      46.7237 
  321000    127.66918   -10347.683   -9199.1606   -256.33426     102002.7      46.7237      46.7237      46.7237 
  322000    130.94323   -10356.458   -9178.4813   -332.49786     102002.7      46.7237      46.7237      46.7237 
  323000    130.03581   -10358.811   -9188.9978   -726.29404     102002.7      46.7237      46.7237      46.7237 
  324000    132.06716   -10358.045    -9169.958    -643.6503     102002.7      46.7237      46.7237      46.7237 
  325000    131.14416   -10372.312   -9192.5284   -978.58283     102002.7      46.7237      46.7237      46.7237 
  326000    129.48149   -10338.717   -9173.8901   -628.25049     102002.7      46.7237      46.7237      46.7237 
  327000    131.80021   -10375.744    -9190.058   -428.10956     102002.7      46.7237      46.7237      46.7237 
  328000    131.46337   -10350.773   -9168.1173   -746.44105     102002.7      46.7237      46.7237      46.7237 
  329000    128.80197   -10357.486   -9198.7729   -944.26544     102002.7      46.7237      46.7237      46.7237 
  330000    130.84242   -10369.867   -9192.7974   -635.73849     102002.7      46.7237      46.7237      46.7237 
  331000    132.50734    -10361.13   -9169.0825   -967.85911     102002.7      46.7237      46.7237      46.7237 
  332000    128.92481   -10355.292    -9195.473   -666.00101     102002.7      46.7237      46.7237      46.7237 
  333000      131.856   -10363.657   -9177.4688   -371.84584     102002.7      46.7237      46.7237      46.7237 
  334000    132.00488   -10353.771   -9166.2439   -1007.9569     102002.7      46.7237      46.7237      46.7237 
  335000    130.07321   -10345.852   -9175.7026   -472.97448     102002.7      46.7237      46.7237      46.7237 
  336000    129.89538   -10372.487   -9203.9367   -641.66364     102002.7      46.7237      46.7237      46.7237 
  337000    131.13026   -10354.565    -9174.906   -710.75596     102002.7      46.7237      46.7237      46.7237 
  338000    128.67249   -10347.377   -9189.8287   -346.88201     102002.7      46.7237      46.7237      46.7237 
  339000    129.39071   -10365.337   -9201.3271   -937.31482     102002.7      46.7237      46.7237      46.7237 
  340000    130.25594   -10335.515   -9163.7215   -350.52141     102002.7      46.7237      46.7237      46.7237 
  341000    131.07854   -10387.127   -9207.9335   -668.57086     102002.7      46.7237      46.7237      46.7237 
  342000    128.99867   -10375.378   -9214.8951   -561.79765     102002.7      46.7237      46.7237      46.7237 
  343000    129.11823   -10343.186   -9181.6272   -616.11906     102002.7      46.7237      46.7237      46.7237 
  344000     130.1551   -10379.482   -9208.5957   -727.57093     102002.7      46.7237      46.7237      46.7237 
  345000    129.44679   -10373.537   -9209.0225   -747.27228     102002.7      46.7237      46.7237      46.7237 
  346000    131.48459   -10356.548   -9173.7011   -347.51729     102002.7      46.7237      46.7237      46.7237 
  347000    129.81319   -10360.646   -9192.8351   -685.55181     102002.7      46.7237      46.7237      46.7237 
  348000     131.1467   -10353.891   -9174.0846   -574.63099     102002.7      46.7237      46.7237      46.7237 
  349000     129.7617   -10353.982   -9186.6351   -706.61199     102002.7      46.7237      46.7237      46.7237 
  350000    133.54813   -10361.668   -9160.2572   -549.68107     102002.7      46.7237      46.7237      46.7237 
  351000    128.38041   -10355.912   -9200.9907   -660.73893     102002.7      46.7237      46.7237      46.7237 
  352000     131.5181   -10352.632   -9169.4838   -653.66129     102002.7      46.7237      46.7237      46.7237 
  353000    127.83541   -10323.772   -9173.7535   -571.43997     102002.7      46.7237      46.7237      46.7237 
  354000    128.19589   -10341.228   -9187.9666   -600.86917     102002.7      46.7237      46.7237      46.7237 
  355000    129.31554   -10373.826   -9210.4925   -689.95177     102002.7      46.7237      46.7237      46.7237 
  356000    131.24823   -10367.212   -9186.4917   -596.97297     102002.7      46.7237      46.7237      46.7237 
  357000    131.88377   -10394.176   -9207.7385   -422.02975     102002.7      46.7237      46.7237      46.7237 
  358000    130.79898   -10321.047    -9144.368    -433.2117     102002.7      46.7237      46.7237      46.7237 
  359000    129.41657   -10320.328   -9156.0857    -353.4652     102002.7      46.7237      46.7237      46.7237 
  360000    129.16868   -10330.473   -9168.4605    -185.7911     102002.7      46.7237      46.7237      46.7237 
  361000    128.34381   -10368.582   -9213.9901   -470.40119     102002.7      46.7237      46.7237      46.7237 
  362000    129.67253   -10362.707   -9196.1621   -538.81847     102002.7      46.7237      46.7237      46.7237 
  363000     132.8773   -10370.469   -9175.0937   -302.92237     102002.7      46.7237      46.7237      46.7237 
  364000    128.01827   -10338.076   -9186.4133   -940.35193     102002.7      46.7237      46.7237      46.7237 
  365000    129.86091   -10372.431   -9204.1915   -522.14496     102002.7      46.7237      46.7237      46.7237 
  366000    129.95054   -10364.883   -9195.8365   -788.41624     102002.7      46.7237      46.7237      46.7237 
  367000    130.07892   -10361.812   -9191.6111    -493.2898     102002.7      46.7237      46.7237      46.7237 
  368000    127.71867       -10343   -9194.0315   -407.96217     102002.7      46.7237      46.7237      46.7237 
  369000    130.26458   -10350.453   -9178.5823   -509.87612     102002.7      46.7237      46.7237      46.7237 
  370000    130.56707   -10371.853   -9197.2605   -943.67814     102002.7      46.7237      46.7237      46.7237 
  371000    130.01279   -10359.323   -9189.7164   -584.36954     102002.7      46.7237      46.7237      46.7237 
  372000    130.82077   -10332.061   -9155.1859   -689.42347     102002.7      46.7237      46.7237      46.7237 
  373000    130.98553   -10352.766   -9174.4089   -495.48561     102002.7      46.7237      46.7237      46.7237 
  374000    127.65389   -10367.286   -9218.9003   -823.57191     102002.7      46.7237      46.7237      46.7237 
  375000    132.38217   -10383.911   -9192.9901   -665.58206     102002.7      46.7237      46.7237      46.7237 
  376000    127.95833   -10377.111   -9225.9875   -538.43053     102002.7      46.7237      46.7237      46.7237 
  377000    131.35846   -10385.199   -9203.4867   -512.39108     102002.7      46.7237      46.7237      46.7237 
  378000    131.15719   -10362.991   -9183.0902   -851.08563     102002.7      46.7237      46.7237      46.7237 
  379000    129.19184   -10357.024   -9194.8036   -1101.8768     102002.7      46.7237      46.7237      46.7237 
  380000    129.26375   -10367.127   -9204.2594   -682.44774     102002.7      46.7237      46.7237      46.7237 
  381000    130.81325   -10347.704   -9170.8973   -549.42207     102002.7      46.7237      46.7237      46.7237 
  382000    130.74063   -10356.259   -9180.1057   -672.90317     102002.7      46.7237      46.7237      46.7237 
  383000    131.44094   -10360.546   -9178.0917   -595.69285     102002.7      46.7237      46.7237      46.7237 
  384000    128.86207   -10370.606   -9211.3516   -893.78271     102002.7      46.7237      46.7237      46.7237 
  385000    130.27817   -10343.195   -9171.2015   -537.64138     102002.7      46.7237      46.7237      46.7237 
  386000    129.77493   -10369.354   -9201.8875   -678.12465     102002.7      46.7237      46.7237      46.7237 
  387000    131.01648   -10324.918   -9146.2831   -437.87378     102002.7      46.7237      46.7237      46.7237 
  388000    127.58481   -10344.268    -9196.504   -570.45642     102002.7      46.7237      46.7237      46.7237 
  389000    130.59468   -10364.616   -9189.7755   -874.64285     102002.7      46.7237      46.7237      46.7237 
  390000    132.69111   -10343.637   -9149.9366   -474.16307     102002.7      46.7237      46.7237      46.7237 
  391000    132.72369   -10383.393   -9189.3998   -730.11592     102002.7      46.7237      46.7237      46.7237 
  392000    133.89097    -10358.29   -9153.7951    -697.8824     102002.7      46.7237      46.7237      46.7237 
  393000     128.7659   -10380.441   -9222.0525   -1138.4243     102002.7      46.7237      46.7237      46.7237 
  394000    131.48127   -10368.517   -9185.7003   -607.58833     102002.7      46.7237      46.7237      46.7237 
  395000    132.14622   -10341.109   -9152.3103   -339.57682     102002.7      46.7237      46.7237      46.7237 
  396000    133.29774   -10383.605   -9184.4468   -702.89095     102002.7      46.7237      46.7237      46.7237 
  397000    132.23608   -10335.506   -9145.8986   -361.87487     102002.7      46.7237      46.7237      46.7237 
  398000    127.04458   -10371.899   -9228.9951   -530.70718     102002.7      46.7237      46.7237      46.7237 
  399000    130.40386   -10349.592   -9176.4683   -892.27852     102002.7      46.7237      46.7237      46.7237 
  400000    130.89383   -10358.151   -9180.6186   -609.54426     102002.7      46.7237      46.7237      46.7237 
  401000    128.21175   -10321.674   -9168.2707   -577.40627     102002.7      46.7237      46.7237      46.7237 
  402000    129.66582   -10388.421   -9221.9361   -720.41822     102002.7      46.7237      46.7237      46.7237 
  403000      129.613   -10366.575   -9200.5658   -324.02598     102002.7      46.7237      46.7237      46.7237 
  404000     129.7569    -10335.45   -9168.1461   -424.40023     102002.7      46.7237      46.7237      46.7237 
  405000    130.77802   -10354.332   -9177.8416   -727.97937     102002.7      46.7237      46.7237      46.7237 
  406000    132.35191   -10357.391   -9166.7417    -331.3171     102002.7      46.7237      46.7237      46.7237 
  407000    133.57694   -10345.229   -9143.5592   -527.86889     102002.7      46.7237      46.7237      46.7237 
  408000    129.50268   -10342.048   -9177.0305   -739.09238     102002.7      46.7237      46.7237      46.7237 
  409000    131.53307   -10348.099   -9164.8161   -880.54385     102002.7      46.7237      46.7237      46.7237 
  410000    128.74928    -10333.77   -9175.5301   -590.01835     102002.7      46.7237      46.7237      46.7237 
  411000    131.86741    -10361.75   -9175.4592   -564.83813     102002.7      46.7237      46.7237      46.7237 
  412000     132.0484   -10352.949   -9165.0304   -861.23949     102002.7      46.7237      46.7237      46.7237 
  413000    127.15296   -10334.947   -9191.0682   -637.58255     102002.7      46.7237      46.7237      46.7237 
  414000    133.70817   -10341.292   -9138.4423   -316.03562     102002.7      46.7237      46.7237      46.7237 
  415000    130.23305   -10349.297    -9177.709   -929.62904     102002.7      46.7237      46.7237      46.7237 
  416000    131.40087   -10367.564   -9185.4705   -716.05139     102002.7      46.7237      46.7237      46.7237 
  417000    132.12806   -10336.321   -9147.6861   -621.45951     102002.7      46.7237      46.7237      46.7237 
  418000    129.12576   -10373.297   -9211.6705   -612.73243     102002.7      46.7237      46.7237      46.7237 
  419000    129.91464   -10343.554   -9174.8305   -463.47053     102002.7      46.7237      46.7237      46.7237 
  420000    131.43125   -10366.031   -9183.6638   -942.56551     102002.7      46.7237      46.7237      46.7237 
  421000     130.6452   -10341.297    -9166.002   -323.00552     102002.7      46.7237      46.7237      46.7237 
  422000    129.27929   -10376.856   -9213.8489   -708.00817     102002.7      46.7237      46.7237      46.7237 
  423000    127.80587   -10350.851   -9201.0991   -525.78946     102002.7      46.7237      46.7237      46.7237 
  424000    125.81036   -10370.755   -9238.9547    -801.8904     102002.7      46.7237      46.7237      46.7237 
  425000    127.83146   -10372.076   -9222.0933   -716.09866     102002.7      46.7237      46.7237      46.7237 
  426000    130.67035   -10363.836   -9188.3149    -643.6415     102002.7      46.7237      46.7237      46.7237 
  427000    129.67071   -10379.636   -9213.1077   -827.15261     102002.7      46.7237      46.7237      46.7237 
  428000    127.55128    -10318.73   -9171.2676   -631.18168     102002.7      46.7237      46.7237      46.7237 
  429000    128.87312   -10344.669   -9185.3152   -615.86267     102002.7      46.7237      46.7237      46.7237 
  430000    129.91672   -10377.085   -9208.3427   -596.54479     102002.7      46.7237      46.7237      46.7237 
  431000    128.13399   -10326.047   -9173.3431   -463.65422     102002.7      46.7237      46.7237      46.7237 
  432000    126.82692   -10411.662   -9270.7166   -731.83062     102002.7      46.7237      46.7237      46.7237 
  433000    128.26476   -10357.572    -9203.691   -693.62782     102002.7      46.7237      46.7237      46.7237 
  434000    129.90474    -10381.16    -9212.526   -741.50736     102002.7      46.7237      46.7237      46.7237 
  435000    127.42179   -10338.926   -9192.6284   -695.52689     102002.7      46.7237      46.7237      46.7237 
  436000    129.51702   -10356.021   -9190.8749   -975.32424     102002.7      46.7237      46.7237      46.7237 
  437000    130.73435    -10360.12   -9184.0232   -520.80158     102002.7      46.7237      46.7237      46.7237 
  438000    131.28241   -10359.614   -9178.5859   -755.68798     102002.7      46.7237      46.7237      46.7237 
  439000    130.67914   -10355.969   -9180.3681   -781.51293     102002.7      46.7237      46.7237      46.7237 
  440000    126.84821   -10364.819   -9223.6817   -946.40895     102002.7      46.7237      46.7237      46.7237 
  441000    130.52086   -10346.323   -9172.1465   -738.08625     102002.7      46.7237      46.7237      46.7237 
  442000     126.1306    -10383.78    -9249.098   -833.42237     102002.7      46.7237      46.7237      46.7237 
  443000     132.4377   -10351.184   -9159.7636   -248.26096     102002.7      46.7237      46.7237      46.7237 
  444000    130.64767    -10353.09    -9177.772   -914.77725     102002.7      46.7237      46.7237      46.7237 
  445000    127.78767   -10404.412   -9254.8236   -818.34477     102002.7      46.7237      46.7237      46.7237 
  446000    133.19122   -10374.187   -9175.9876   -602.76706     102002.7      46.7237      46.7237      46.7237 
  447000    127.91954   -10372.825   -9222.0497   -516.68895     102002.7      46.7237      46.7237      46.7237 
  448000    131.76828   -10387.162   -9201.7635   -458.25159     102002.7      46.7237      46.7237      46.7237 
  449000    132.32554   -10373.562   -9183.1504   -1018.2918     102002.7      46.7237      46.7237      46.7237 
  450000    126.67349   -10313.519   -9173.9536   -743.44331     102002.7      46.7237      46.7237      46.7237 
  451000    130.54011   -10381.324   -9206.9745   -842.86199     102002.7      46.7237      46.7237      46.7237 
  452000    130.33654   -10378.144   -9205.6256   -598.11288     102002.7      46.7237      46.7237      46.7237 
  453000    127.94672   -10390.757   -9239.7375   -451.46285     102002.7      46.7237      46.7237      46.7237 
  454000    130.11857   -10378.188   -9207.6298   -396.74533     102002.7      46.7237      46.7237      46.7237 
  455000    131.04667    -10339.19   -9160.2826    -609.3806     102002.7      46.7237      46.7237      46.7237 
  456000    128.63092   -10339.723   -9182.5488   -663.34522     102002.7      46.7237      46.7237      46.7237 
  457000    127.93981   -10350.889   -9199.9318   -597.07884     102002.7      46.7237      46.7237      46.7237 
  458000    131.21213    -10368.48   -9188.0842    -648.1625     102002.7      46.7237      46.7237      46.7237 
  459000    129.47361   -10360.458   -9195.7027   -726.16945     102002.7      46.7237      46.7237      46.7237 
  460000    127.43312   -10335.092   -9188.6925   -692.43825     102002.7      46.7237      46.7237      46.7237 
  461000     131.6596   -10388.326   -9203.9055   -819.82797     102002.7      46.7237      46.7237      46.7237 
  462000    129.28827   -10328.026   -9164.9376   -571.13485     102002.7      46.7237      46.7237      46.7237 
  463000    130.48011   -10347.755   -9173.9443   -508.81907     102002.7      46.7237      46.7237      46.7237 
  464000     128.5363   -10334.458   -9178.1348   -560.65223     102002.7      46.7237      46.7237      46.7237 
  465000    129.00411   -10360.582   -9200.0504   -706.79645     102002.7      46.7237      46.7237      46.7237 
  466000    130.69192   -10350.985   -9175.2694   -678.04044     102002.7      46.7237      46.7237      46.7237 
  467000    131.18091   -10348.689   -9168.5746   -571.04808     102002.7      46.7237      46.7237      46.7237 
  468000    129.82641   -10370.744   -9202.8142   -362.18225     102002.7      46.7237      46.7237      46.7237 
  469000     132.2796   -10335.884   -9145.8855   -440.95314     102002.7      46.7237      46.7237      46.7237 
  470000    130.05554   -10372.907   -9202.9167   -580.76541     102002.7      46.7237      46.7237      46.7237 
  471000    126.87093   -10339.821   -9198.4794   -727.80142     102002.7      46.7237      46.7237      46.7237 
  472000    127.17667   -10382.521    -9238.429   -814.31138     102002.7      46.7237      46.7237      46.7237 
  473000    130.72279    -10364.27   -9188.2772   -766.79107     102002.7      46.7237      46.7237      46.7237 
  474000    128.21357   -10394.363   -9240.9432   -795.57826     102002.7      46.7237      46.7237      46.7237 
  475000    131.62222   -10367.407   -9183.3227    -1081.601     102002.7      46.7237      46.7237      46.7237 
  476000    132.91792   -10358.658   -9162.9167   -837.06575     102002.7      46.7237      46.7237      46.7237 
  477000     132.5283   -10334.081   -9141.8451   -609.77811     102002.7      46.7237      46.7237      46.7237 
  478000    131.14244   -10351.739   -9171.9705   -601.93244     102002.7      46.7237      46.7237      46.7237 
  479000    130.84512   -10403.995   -9226.9015   -653.87979     102002.7      46.7237      46.7237      46.7237 
  480000    130.26853   -10351.382   -9179.4755   -704.35236     102002.7      46.7237      46.7237      46.7237 
  481000    128.71839   -10381.776    -9223.814   -511.89755     102002.7      46.7237      46.7237      46.7237 
  482000    126.53768   -10373.708   -9235.3638   -556.26103     102002.7      46.7237      46.7237      46.7237 
  483000    127.52708   -10359.785   -9212.5402    -553.3978     102002.7      46.7237      46.7237      46.7237 
  484000    128.77404   -10356.497   -9198.0347    -742.2899     102002.7      46.7237      46.7237      46.7237 
  485000    125.89236   -10348.629   -9216.0909   -593.41672     102002.7      46.7237      46.7237      46.7237 
  486000    127.33668   -10357.097   -9211.5656    -337.0017     102002.7      46.7237      46.7237      46.7237 
  487000     130.0489   -10360.409   -9190.4783   -358.51819     102002.7      46.7237      46.7237      46.7237 
  488000     133.3444     -10353.9   -9154.3224   -398.76066     102002.7      46.7237      46.7237      46.7237 
  489000    129.97112   -10319.171   -9149.9396   -729.57926     102002.7      46.7237      46.7237      46.7237 
  490000     131.7697   -10381.805   -9196.3933   -720.93412     102002.7      46.7237      46.7237      46.7237 
  491000    129.41122   -10335.604   -9171.4098   -964.79787     102002.7      46.7237      46.7237      46.7237 
  492000    129.67422    -10358.49   -9191.9293     -744.525     102002.7      46.7237      46.7237      46.7237 
  493000    128.59105   -10374.659   -9217.8434   -412.57376     102002.7      46.7237      46.7237      46.7237 
  494000    132.54743    -10361.41   -9169.0019   -782.14455     102002.7      46.7237      46.7237      46.7237 
  495000    131.19087   -10320.099   -9139.8947   -602.00677     102002.7      46.7237      46.7237      46.7237 
  496000     128.7112    -10354.99    -9197.093   -819.87549     102002.7      46.7237      46.7237      46.7237 
  497000    129.38064   -10345.115   -9181.1957   -935.69394     102002.7      46.7237      46.7237      46.7237 
  498000    129.04015   -10352.328   -9191.4717   -581.70144     102002.7      46.7237      46.7237      46.7237 
  499000     129.1524   -10355.637   -9193.7711   -1164.5359     102002.7      46.7237      46.7237      46.7237 
  500000    132.92245   -10358.124   -9162.3423   -531.13605     102002.7      46.7237      46.7237      46.7237 
  500500    130.89877   -10366.422   -9188.8451   -835.35931     102002.7      46.7237      46.7237      46.7237 
Loop time of 1694.88 on 16 procs for 500000 steps with 3019 atoms

Performance: 25.489 ns/day, 0.942 hours/ns, 295.006 timesteps/s
99.8% CPU use with 16 MPI tasks x no OpenMP threads

MPI task timing breakdown:
Section |  min time  |  avg time  |  max time  |%varavg| %total
---------------------------------------------------------------
Pair    | 974.6      | 1090.1     | 1226.8     | 227.2 | 64.32
Bond    | 129.09     | 174.67     | 218.62     | 283.8 | 10.31
Neigh   | 16.387     | 16.472     | 16.572     |   1.6 |  0.97
Comm    | 223.22     | 396.53     | 548.02     | 474.2 | 23.40
Output  | 0.022262   | 0.022837   | 0.026132   |   0.6 |  0.00
Modify  | 9.0131     | 10.373     | 12.146     |  34.2 |  0.61
Other   |            | 6.732      |            |       |  0.40

Nlocal:    188.688 ave 225 max 154 min
Histogram: 3 3 1 0 1 0 1 3 2 2
Nghost:    3847.5 ave 3875 max 3810 min
Histogram: 1 1 2 0 3 2 1 0 3 3
Neighs:    11467.9 ave 14925 max 9281 min
Histogram: 3 3 1 1 3 1 2 1 0 1

Total # of neighbors = 183487
Ave neighs/atom = 60.7774
Ave special neighs/atom = 3.81583
Neighbor list builds = 5187
Dangerous builds = 0
Neighbor list info ...
  update every 1 steps, delay 10 steps, check yes
  max neighbors/atom: 2000, page size: 100000
  master list distance cutoff = 16
  ghost atom cutoff = 16
  binsize = 8, bins = 6 6 6
  3 neighbor lists, perpetual/occasional/extra = 3 0 0
  (1) pair buck6d/coul/gauss/dsf, perpetual, skip from (3)
      attributes: half, newton on
      pair build: skip
      stencil: none
      bin: none
  (2) pair lj/cut, perpetual, skip from (3)
      attributes: half, newton on
      pair build: skip
      stencil: none
      bin: none
  (3) neighbor class addition, perpetual
      attributes: half, newton on
      pair build: half/bin/newton
      stencil: half/bin/3d/newton
      bin: standard
Setting up Verlet run ...
  Unit style    : real
  Current step  : 500500
  Time step     : 1
WARNING: Inconsistent image flags (../domain.cpp:786)
Per MPI rank memory allocation (min/avg/max) = 22.77 | 23.18 | 23.42 Mbytes
Step Time TotEng KinEng PotEng E_mol E_pair Temp Pxx Pyy Pzz Pxy Pxz Pyz Cella Cellb Cellc CellAlpha CellBeta CellGamma Volume Press 
  500500       500000   -9188.8451    1177.5764   -10366.422    4340.8682    -14707.29    130.89877   -675.73568   -887.24645   -943.09581   -117.82942   0.33910484   -350.22489      46.7237      46.7237      46.7237           90           90           90     102002.7   -835.35931 
  501000       500500   -9237.7964    1124.6912   -10362.488    4351.8613   -14714.349    125.02007   -356.23852   -947.19704   -818.78991   -6.6006853    194.55687    238.50658      46.7237      46.7237      46.7237           90           90           90     102002.7   -707.40849 
  502000       501500   -9195.8807    1143.4153   -10339.296    4379.4465   -14718.742    127.10144   -330.57953   -469.90933   -897.83056    116.29881    139.04412   -170.88874      46.7237      46.7237      46.7237           90           90           90     102002.7   -566.10647 
  503000       502500   -9174.4386    1177.5839   -10352.022    4370.0498   -14722.072     130.8996   -676.13027   -1028.1604   -538.30411   -45.168255   -43.674744   -87.955543      46.7237      46.7237      46.7237           90           90           90     102002.7   -747.53158 
  504000       503500   -9161.8897    1201.2231   -10363.113    4370.1201   -14733.233    133.52733   -1105.1034   -894.83211   -937.89037    326.29926    -381.3113   -39.825017      46.7237      46.7237      46.7237           90           90           90     102002.7    -979.2753 
  505000       504500   -9195.8645    1178.7438   -10374.608    4370.0282   -14744.636    131.02853   -760.21914   -823.95685   -783.73929   -130.18232    37.284611    120.97014      46.7237      46.7237      46.7237           90           90           90     102002.7    -789.3051 
  506000       505500   -9230.6649    1157.0731   -10387.738    4351.5733   -14739.311    128.61963   -933.76146   -799.74502   -289.34886   -16.998885    81.608656    298.73827      46.7237      46.7237      46.7237           90           90           90     102002.7   -674.28511 
  507000       506500   -9191.9547    1164.4616   -10356.416    4339.7621   -14696.178    129.44093   -1186.5071   -788.96511   -997.19442     105.4392   -86.870433   -106.78055      46.7237      46.7237      46.7237           90           90           90     102002.7   -990.88886 
  508000       507500   -9214.2101    1169.7219   -10383.932    4346.7971   -14730.729    130.02567   -1148.9575    -688.7426   -545.56974    20.527266    149.75101   -3.9259162      46.7237      46.7237      46.7237           90           90           90     102002.7   -794.42329 
  509000       508500   -9184.4492    1171.5882   -10356.037    4374.5039   -14730.541    130.23312    -909.8867   -937.02583   -885.04075    94.991656   -98.089888    172.05659      46.7237      46.7237      46.7237           90           90           90     102002.7   -910.65109 
  510000       509500   -9171.5028    1195.4012   -10366.904    4355.7293   -14722.633    132.88017   -744.78325   -679.14444   -463.18359    253.27245    110.16153    23.785633      46.7237      46.7237      46.7237           90           90           90     102002.7    -629.0371 
  511000       510500   -9176.5393    1160.3952   -10336.935    4368.5121   -14705.447    128.98891   -478.10995   -450.27652   -257.20922    369.35111    34.032693   -223.09935      46.7237      46.7237      46.7237           90           90           90     102002.7   -395.19856 
  512000       511500   -9219.2644    1165.0826   -10384.347      4371.44   -14755.787    129.50997   -306.04823      -786.49   -900.80005    239.19024   -352.40563    247.93832      46.7237      46.7237      46.7237           90           90           90     102002.7   -664.44609 
  513000       512500   -9212.7768     1162.028   -10374.805    4370.8329   -14745.638    129.17042   -240.63444   -503.60119   -450.75911     85.48325    -87.61874   -7.8391568      46.7237      46.7237      46.7237           90           90           90     102002.7   -398.33158 
  514000       513500   -9166.9894    1183.1769   -10350.166    4347.1311   -14697.297    131.52131   -458.72207   -703.34899   -326.56954    181.65847   -100.77634    188.70875      46.7237      46.7237      46.7237           90           90           90     102002.7   -496.21353 
  515000       514500   -9215.5323    1176.9241   -10392.456    4372.5701   -14765.026    130.82625   -806.54334   -971.17182   -734.46346    368.36702   -86.657147   -113.41911      46.7237      46.7237      46.7237           90           90           90     102002.7   -837.39287 
  516000       515500   -9200.9716    1154.7998   -10355.771    4349.1446   -14704.916    128.36693   -361.82177   -115.86761   -873.02896   -38.512734   -163.31522    160.91956      46.7237      46.7237      46.7237           90           90           90     102002.7   -450.23945 
  517000       516500   -9182.9103    1151.3677   -10334.278    4387.7354   -14722.013    127.98542   -159.43373   -392.41422   -675.69518    94.793513   -66.842273   -89.600537      46.7237      46.7237      46.7237           90           90           90     102002.7   -409.18105 
  518000       517500   -9161.4207    1181.4581   -10342.879    4380.5245   -14723.403    131.33026   -356.14313    -662.4044   -478.83107     148.9351    15.808034   -321.74926      46.7237      46.7237      46.7237           90           90           90     102002.7    -499.1262 
  519000       518500   -9213.9471    1166.5702   -10380.517     4362.961   -14743.478    129.67532   -330.92313   -201.43002    -697.2603    169.77917   -148.86067      48.8188      46.7237      46.7237      46.7237           90           90           90     102002.7   -409.87115 
  520000       519500   -9198.0134    1171.8402   -10369.854    4359.1959    -14729.05    130.26114   -148.82366   -1136.9531   -1126.3315    -112.1646    36.554678   -162.18524      46.7237      46.7237      46.7237           90           90           90     102002.7   -804.03611 
  521000       520500   -9173.9178    1167.8814   -10341.799    4374.3428   -14716.142    129.82107   -659.91964   -327.67979   -565.98413   -91.269128    143.04464    19.327048      46.7237      46.7237      46.7237           90           90           90     102002.7   -517.86119 
  522000       521500   -9144.2433    1177.2512   -10321.495    4384.1563   -14705.651    130.86262   -830.65341    -460.8719   -527.13437    18.594008    431.29339   -131.54362      46.7237      46.7237      46.7237           90           90           90     102002.7    -606.2199 
  523000       522500   -9178.1267    1178.4658   -10356.592    4366.9386   -14723.531    130.99763    -468.5368   -480.72381   -359.73024    289.36443     -25.1131   -121.90373      46.7237      46.7237      46.7237           90           90           90     102002.7   -436.33028 
  524000       523500   -9203.9728    1148.4987   -10352.471     4376.925   -14729.397    127.66651   -364.70926   -640.38383   -896.89262    91.850693    352.31114   -166.86025      46.7237      46.7237      46.7237           90           90           90     102002.7   -633.99524 
  525000       524500   -9196.0038    1167.4238   -10363.428    4364.4266   -14727.854    129.77021   -922.38815   -754.84002   -1015.2645   -70.978846   -3.4861213    165.40781      46.7237      46.7237      46.7237           90           90           90     102002.7   -897.49755 
  526000       525500   -9184.5378    1173.8285   -10358.366     4383.142   -14741.508    130.48215   -618.11617   -663.67138   -594.15643   -226.84541    103.92058    68.231576      46.7237      46.7237      46.7237           90           90           90     102002.7   -625.31466 
  527000       526500    -9194.459    1167.0826   -10361.542    4370.9302   -14732.472    129.73229   -801.32316    35.670622   -1008.6149    186.29984    256.87745   -1.8813534      46.7237      46.7237      46.7237           90           90           90     102002.7   -591.42248 
  528000       527500   -9203.8771    1156.4447   -10360.322    4368.4157   -14728.738    128.54978    -743.8207   -494.35259   -897.46388   -87.763341    65.352555    -154.1907      46.7237      46.7237      46.7237           90           90           90     102002.7   -711.87906 
  529000       528500   -9198.7001    1189.1293   -10387.829    4317.0714   -14704.901    132.18298   -325.42293   -88.308672   -192.31802    430.73207   -185.43635    2.3602129      46.7237      46.7237      46.7237           90           90           90     102002.7   -202.01654 
  530000       529500   -9238.9627    1140.4957   -10379.458    4347.5166   -14726.975     126.7769   -745.57443    -818.0907   -1019.9275    161.55573   -169.40533    92.583184      46.7237      46.7237      46.7237           90           90           90     102002.7   -861.19756 
  531000       530500   -9197.4602    1170.2746   -10367.735    4370.2648       -14738     130.0871   -925.37145   -821.96285   -422.32915   -62.278621   -16.052207   -47.353251      46.7237      46.7237      46.7237           90           90           90     102002.7   -723.22115 
  532000       531500   -9184.1733    1166.2358   -10350.409    4369.8838   -14720.293    129.63815   -531.17914   -498.42759   -1025.4603   -244.99065    54.272367   -82.272595      46.7237      46.7237      46.7237           90           90           90     102002.7   -685.02234 
  533000       532500    -9201.423    1162.0738   -10363.497    4348.5829    -14712.08    129.17551   -613.89842   -708.27116   -479.80137   -38.588688   -126.44582    -122.1229      46.7237      46.7237      46.7237           90           90           90     102002.7   -600.65698 
  534000       533500   -9185.5047    1165.7498   -10351.255    4370.7365   -14721.991    129.58413   -596.31531   -336.20876   -654.34699    42.841476    8.4863205    372.44839      46.7237      46.7237      46.7237           90           90           90     102002.7   -528.95702 
  535000       534500   -9176.9659    1178.1794   -10355.145    4371.2713   -14726.417     130.9658   -328.38356   -673.74165    -587.2637  0.059314793    47.838036   -234.69719      46.7237      46.7237      46.7237           90           90           90     102002.7    -529.7963 
  536000       535500   -9141.8643     1197.234   -10339.098    4385.2805   -14724.379    133.08389   -1080.8222    -663.2176   -804.64101   -176.00113   -5.0718614    107.97745      46.7237      46.7237      46.7237           90           90           90     102002.7   -849.56026 
  537000       536500   -9161.9331    1195.7007   -10357.634    4345.7647   -14703.399    132.91346   -44.934834   -476.63114   -422.92106    25.695173   -98.989034    120.74045      46.7237      46.7237      46.7237           90           90           90     102002.7   -314.82901 
  538000       537500   -9173.6103    1174.3059   -10347.916    4385.7512   -14733.667    130.53522   -360.17678   -474.22947   -671.86614   -2.2890896    150.56074    4.6264613      46.7237      46.7237      46.7237           90           90           90     102002.7    -502.0908 
  539000       538500   -9165.6445    1186.4968   -10352.141    4359.7268   -14711.868    131.89035   -19.081172   -493.53867   -343.08414   -504.28405   -57.999089    252.65964      46.7237      46.7237      46.7237           90           90           90     102002.7   -285.23466 
  540000       539500   -9233.7933    1133.1519   -10366.945    4378.9809   -14745.926    125.96056    183.85048   -500.85075   -172.66019   -74.396834   -121.60172   -156.04533      46.7237      46.7237      46.7237           90           90           90     102002.7   -163.22015 
  541000       540500   -9175.0266    1171.6068   -10346.633    4349.9561   -14696.589    130.23519   -605.92157   -441.64848   -373.58498    147.31652   -103.64949   -86.774064      46.7237      46.7237      46.7237           90           90           90     102002.7   -473.71835 
  542000       541500   -9197.9559    1150.7094   -10348.665    4374.1936   -14722.859    127.91224   -632.67091   -467.91525   -869.47901    112.61323    -300.0404    312.86089      46.7237      46.7237      46.7237           90           90           90     102002.7   -656.68839 
  543000       542500   -9171.7182    1171.4075   -10343.126    4388.2485   -14731.374    130.21303    -1183.709   -1117.9169   -547.48635   -38.829777    82.212097    141.29002      46.7237      46.7237      46.7237           90           90           90     102002.7   -949.70411 
  544000       543500   -9228.0588    1158.7083   -10386.767     4327.311   -14714.078    128.80139   -694.49044   -1076.7852   -569.98486    68.298147    128.20632    72.204437      46.7237      46.7237      46.7237           90           90           90     102002.7   -780.42016 
  545000       544500   -9168.3913    1190.5409   -10358.932    4361.3868   -14720.319    132.33989    -538.8606   -294.66367    -862.3208   -206.99869    -301.1705    3.1873507      46.7237      46.7237      46.7237           90           90           90     102002.7   -565.28169 
  546000       545500    -9190.527    1158.3645   -10348.892    4359.3316   -14708.223    128.76318   -458.44612   -692.34795   -663.41919   -226.03521   -142.27579     317.1681      46.7237      46.7237      46.7237           90           90           90     102002.7   -604.73775 
  547000       546500   -9210.5063     1148.722   -10359.228    4354.0826   -14713.311    127.69133   -933.28656   -523.93612   -748.90293   -72.677146    54.807429    73.012947      46.7237      46.7237      46.7237           90           90           90     102002.7    -735.3752 
  548000       547500   -9156.2914    1179.5001   -10335.792    4377.2366   -14713.028    131.11261   -889.85583   -418.89518   -655.91444    97.536446    174.11101    63.000762      46.7237      46.7237      46.7237           90           90           90     102002.7   -654.88848 
  549000       548500   -9230.9553    1166.5342   -10397.489    4335.8568   -14733.346    129.67132   -259.96929   -592.10859   -457.84637    25.148687    18.367948     79.58918      46.7237      46.7237      46.7237           90           90           90     102002.7   -436.64142 
  550000       549500   -9170.8923    1191.3102   -10362.202    4358.1054   -14720.308    132.42541    -329.1612   -363.12664   -525.77022    337.95276   -451.12687   -107.66919      46.7237      46.7237      46.7237           90           90           90     102002.7   -406.01935 
  551000       550500   -9205.0681     1152.927   -10357.995    4369.7998   -14727.795    128.15875   -640.07179   -426.76561   -303.08092   -136.51922    78.593532    27.648961      46.7237      46.7237      46.7237           90           90           90     102002.7   -456.63944 
  552000       551500   -9196.2661    1159.0947   -10355.361    4380.4692    -14735.83    128.84435   -712.66467   -588.31557   -785.81598    66.099551    21.588811    129.86037      46.7237      46.7237      46.7237           90           90           90     102002.7   -695.59874 
  553000       552500   -9203.2038    1162.5381   -10365.742    4349.3032   -14715.045    129.22711   -339.45824   -761.58497   -1103.9654   -463.38497    -253.7351    106.31758      46.7237      46.7237      46.7237           90           90           90     102002.7   -735.00287 
  554000       553500    -9179.497    1167.7566   -10347.254    4378.9373   -14726.191    129.80721   -881.38625     -628.428    -521.7852    59.195969    156.28904   -43.931141      46.7237      46.7237      46.7237           90           90           90     102002.7   -677.19982 
  555000       554500   -9252.4416    1132.2971   -10384.739    4335.6911    -14720.43    125.86554   -666.77991   -664.77726   -693.07371    209.26268    12.964182    145.82353      46.7237      46.7237      46.7237           90           90           90     102002.7   -674.87696 
[...]
  936000       935500   -9183.3227    1151.8829   -10335.206    4385.5611   -14720.767    128.04269   -1204.1084   -904.09607    -433.2388     268.8777    117.55276   -391.06525      46.7237      46.7237      46.7237           90           90           90     102002.7   -847.14775 
  937000       936500   -9168.9337    1165.3078   -10334.241    4391.4142   -14725.656    129.53499    -286.9219   -320.41758   -1000.1234    202.57063    162.07724    18.255732      46.7237      46.7237      46.7237           90           90           90     102002.7   -535.82095 
  938000       937500   -9197.9448    1175.9246   -10373.869    4364.2114   -14738.081    130.71516   -921.52545   -590.15548   -613.66531    127.01389    29.911734   -49.498268      46.7237      46.7237      46.7237           90           90           90     102002.7   -708.44875 
  939000       938500   -9160.6529    1193.7739   -10354.427    4371.4966   -14725.923    132.69927   -622.34021   -511.12604   -1253.2633   -87.698575    133.47489    48.137919      46.7237      46.7237      46.7237           90           90           90     102002.7   -795.57651 
  940000       939500   -9201.8443    1140.4496   -10342.294    4366.6407   -14708.935    126.77177   -582.49387   -881.86397   -715.90983    238.76767   -55.397533    129.08708      46.7237      46.7237      46.7237           90           90           90     102002.7   -726.75589 
  941000       940500   -9204.8195    1148.9229   -10353.742    4379.0074    -14732.75    127.71366   -659.58067   -914.76337   -402.85461    182.99865   -137.77589    168.50803      46.7237      46.7237      46.7237           90           90           90     102002.7   -659.06622 
  942000       941500    -9173.086    1171.0682   -10344.154    4386.1424   -14730.297    130.17531   -1069.0583   -652.13989   -261.40422   -22.564688   -135.44477      62.2135      46.7237      46.7237      46.7237           90           90           90     102002.7   -660.86746 
  943000       942500   -9227.7293    1154.1372   -10381.866    4344.2771   -14726.144    128.29328   -536.57273   -570.90537   -543.64928   -350.64324    35.562544    22.774662      46.7237      46.7237      46.7237           90           90           90     102002.7   -550.37579 
  944000       943500   -9191.7547    1163.5329   -10355.288    4345.5001   -14700.788     129.3377   -329.12339   -860.56913   -831.24273   -242.01285    411.54098   -40.122696      46.7237      46.7237      46.7237           90           90           90     102002.7   -673.64508 
  945000       944500   -9148.7846    1201.9112   -10350.696    4369.7495   -14720.445    133.60381   -816.94113   -763.65737   -72.672498    -40.09282     183.2226    210.83294      46.7237      46.7237      46.7237           90           90           90     102002.7   -551.09033 
  946000       945500   -9186.9717    1156.3754   -10343.347    4371.2743   -14714.621    128.54208   -578.78186   -699.50718   -595.15082   -165.77196   -9.2647728    192.97122      46.7237      46.7237      46.7237           90           90           90     102002.7   -624.47995 
  947000       946500   -9171.3171    1185.6595   -10356.977    4377.6439    -14734.62    131.79728   -330.23945   -295.12119   -637.55852   -195.24869   -157.34586     84.20654      46.7237      46.7237      46.7237           90           90           90     102002.7   -420.97305 
  948000       947500   -9169.4517     1181.857   -10351.309    4382.6357   -14733.944     131.3746   -732.72793   -345.01389   -492.38421    132.15262    12.797018   -139.78801      46.7237      46.7237      46.7237           90           90           90     102002.7   -523.37534 
  949000       948500   -9203.6773    1141.6565   -10345.334    4378.9845   -14724.318    126.90593    -963.3359    -1047.932   -954.09349    104.45559    -165.2798   -240.80732      46.7237      46.7237      46.7237           90           90           90     102002.7   -988.45381 
  950000       949500   -9217.6603    1157.4576   -10375.118    4365.8313   -14740.949    128.66237   -680.17929    -523.2469   -1003.7117   -126.82684    168.97025    44.424618      46.7237      46.7237      46.7237           90           90           90     102002.7   -735.71261 
  951000       950500   -9190.7141    1170.3552   -10361.069    4369.7041   -14730.774    130.09607   -661.09244   -633.91343   -929.78152    -330.7276    147.92752   -9.5098406      46.7237      46.7237      46.7237           90           90           90     102002.7    -741.5958 
  952000       951500   -9225.2808    1132.4363   -10357.717    4374.5679   -14732.285    125.88101   -664.36331   -166.17896   -272.50631    165.20198    203.60005   -44.379606      46.7237      46.7237      46.7237           90           90           90     102002.7   -367.68286 
  953000       952500   -9176.5329    1175.6806   -10352.213    4374.9648   -14727.178    130.68803   -246.69619    -794.6027   -737.06135   -3.2931061   -15.958923    36.209391      46.7237      46.7237      46.7237           90           90           90     102002.7   -592.78675 
  954000       953500   -9200.6812    1177.6923   -10378.373    4369.2945   -14747.668    130.91165   -714.55777   -562.74568    -541.8896   -32.426393    202.56556    53.457444      46.7237      46.7237      46.7237           90           90           90     102002.7   -606.39769 
  955000       954500   -9179.0259    1180.6542    -10359.68    4364.1711   -14723.851    131.24089   -362.69391   -338.24181   -652.89106    196.85454    116.68764    17.535324      46.7237      46.7237      46.7237           90           90           90     102002.7   -451.27559 
  956000       955500    -9180.028    1164.4678   -10344.496    4376.9986   -14721.494    129.44163   -211.93883     -525.068   -547.55983     69.75301    309.67611   -237.67451      46.7237      46.7237      46.7237           90           90           90     102002.7   -428.18888 
  957000       956500   -9221.7443    1154.7604   -10376.505    4361.9967   -14738.501    128.36255   -908.11411   -507.01434   -144.13734   -144.10465    117.83775   -259.78336      46.7237      46.7237      46.7237           90           90           90     102002.7   -519.75527 
  958000       957500   -9141.7792    1193.8967   -10335.676    4386.2662   -14721.942    132.71293   -334.78881   -413.32679   -896.75612   -190.18367    202.63785   -130.22891      46.7237      46.7237      46.7237           90           90           90     102002.7   -548.29057 
  959000       958500   -9191.5293    1164.0442   -10355.574    4363.4481   -14719.022    129.39454   -800.29173   -415.43882   -325.41067    75.768247    18.432304   -19.312145      46.7237      46.7237      46.7237           90           90           90     102002.7   -513.71374 
  960000       959500   -9173.2455    1178.3056   -10351.551    4364.5309   -14716.082    130.97982   -691.40022   -571.83288   -516.69927    215.56638   -109.78144   -203.82359      46.7237      46.7237      46.7237           90           90           90     102002.7   -593.31079 
  961000       960500    -9158.389    1181.5972   -10339.986    4355.2004   -14695.187    131.34572   -448.72218   -922.43812   -650.38688      75.9751    23.741075   -139.16546      46.7237      46.7237      46.7237           90           90           90     102002.7   -673.84906 
  962000       961500   -9185.3628    1176.4779   -10361.841    4356.6937   -14718.534    130.77665    -841.8115   -704.80869   -689.06599   -352.43777    -307.6473    281.31229      46.7237      46.7237      46.7237           90           90           90     102002.7   -745.22873 
  963000       962500   -9182.7975    1157.8213   -10340.619    4361.3325   -14701.951     128.7028   -1007.8593   -175.07115   -375.02801   -96.834924    34.607208    258.09575      46.7237      46.7237      46.7237           90           90           90     102002.7   -519.31949 
  964000       963500   -9169.1922    1157.0772   -10326.269    4387.9119   -14714.181    128.62009    -785.0767   -958.92408   -416.07417    384.06447    98.560287   -114.37343      46.7237      46.7237      46.7237           90           90           90     102002.7   -720.02498 
  965000       964500   -9161.8424    1174.1052   -10335.948    4391.1423    -14727.09    130.51291   -764.96279   -737.98635   -691.27795    61.687362    290.67659   -7.4662642      46.7237      46.7237      46.7237           90           90           90     102002.7   -731.40903 
  966000       965500   -9192.5367    1171.9213   -10364.458     4366.316   -14730.774    130.27015    -997.1831   -721.48038   -246.63152   -58.852382    13.792097   -235.22875      46.7237      46.7237      46.7237           90           90           90     102002.7   -655.09833 
  967000       966500   -9213.1007    1154.8416   -10367.942    4363.9742   -14731.917    128.37158   -933.97856   -953.56415   -809.48914   -59.204358    -136.8452     100.7427      46.7237      46.7237      46.7237           90           90           90     102002.7   -899.01062 
  968000       967500   -9169.4496    1194.7532   -10364.203    4361.4078   -14725.611    132.80813    -872.8156   -766.16743   -520.24717    111.84634    49.229077    130.58369      46.7237      46.7237      46.7237           90           90           90     102002.7    -719.7434 
  969000       968500   -9227.1232    1131.8502   -10358.973    4377.1939   -14736.167    125.81587   -996.67705   -1003.1344   -401.34604   -118.97126    137.05747    98.639573      46.7237      46.7237      46.7237           90           90           90     102002.7   -800.38583 
  970000       969500   -9184.1573    1154.9594   -10339.117    4400.5679   -14739.685    128.38468    -646.6712   -734.49468   -940.09729    110.61072   -205.70009    109.59166      46.7237      46.7237      46.7237           90           90           90     102002.7   -773.75439 
  971000       970500   -9197.8537    1164.9861    -10362.84    4361.3322   -14724.172    129.49923   -586.38965   -207.85779   -676.74378   -72.470134    -57.59953     117.0453      46.7237      46.7237      46.7237           90           90           90     102002.7   -490.33041 
  972000       971500   -9176.1542    1140.0573   -10316.211    4395.5469   -14711.758    126.72816   -769.82444   -987.89293   -1079.9529    340.14975   -181.09707   -478.73575      46.7237      46.7237      46.7237           90           90           90     102002.7    -945.8901 
  973000       972500   -9212.4122     1139.806   -10352.218    4348.0357   -14700.254    126.70023   -482.97249   -535.47594   -210.19315   -217.77354    154.23191    27.003894      46.7237      46.7237      46.7237           90           90           90     102002.7   -409.54719 
  974000       973500   -9165.5585    1169.4542   -10335.013     4379.557    -14714.57    129.99591   -267.91796   -314.83388    -897.3169   -237.64333    147.44619   -144.54796      46.7237      46.7237      46.7237           90           90           90     102002.7   -493.35625 
  975000       974500   -9177.7737    1182.5988   -10360.372    4378.6971   -14739.069    131.45705   -633.31806   -544.68453   -581.04619    356.33915   -315.49312    28.319291      46.7237      46.7237      46.7237           90           90           90     102002.7   -586.34959 
  976000       975500   -9207.8915    1154.1279   -10362.019    4359.4725   -14721.492    128.29224   -732.90611   -353.01216   -284.31118    279.53791   -100.16949    54.809426      46.7237      46.7237      46.7237           90           90           90     102002.7   -456.74315 
  977000       976500   -9227.4468    1133.6574   -10361.104    4358.7922   -14719.896    126.01676   -499.27545   -497.05357   -532.19331   -79.976121   -41.428973    104.00302      46.7237      46.7237      46.7237           90           90           90     102002.7   -509.50744 
  978000       977500   -9205.5348    1149.9121   -10355.447    4390.8795   -14746.326    127.82362    18.597565   -345.84484   -254.88897    33.981732    311.96379    135.47248      46.7237      46.7237      46.7237           90           90           90     102002.7   -194.04542 
  979000       978500   -9135.5629    1191.2032   -10326.766    4360.0283   -14686.794    132.41351   -365.49496   -553.47329   -444.17035     373.8712   -10.662689    104.68272      46.7237      46.7237      46.7237           90           90           90     102002.7   -454.37953 
  980000       979500    -9169.809    1179.3717   -10349.181    4389.5199   -14738.701    131.09833   -887.82811   -364.57986   -873.78312     46.30884   -31.062105   -104.05395      46.7237      46.7237      46.7237           90           90           90     102002.7   -708.73036 
  981000       980500   -9187.5585    1160.4373   -10347.996    4385.4697   -14733.465    128.99359   -194.66895   -496.22121   -566.29392   -80.585271   -25.082532    85.756909      46.7237      46.7237      46.7237           90           90           90     102002.7   -419.06136 
  982000       981500   -9188.9548    1161.0899   -10350.045     4380.256   -14730.301    129.06614   -404.80784   -466.99769   -317.91469    -56.67368   -112.60638   -149.85646      46.7237      46.7237      46.7237           90           90           90     102002.7   -396.57341 
  983000       982500   -9159.3129    1173.6121   -10332.925    4378.9198   -14711.845    130.45809   -192.67618   -180.58734   -968.56392    138.07881   -107.96785  -0.98504968      46.7237      46.7237      46.7237           90           90           90     102002.7   -447.27581 
  984000       983500   -9178.9454    1188.2223   -10367.168    4369.2428    -14736.41    132.08216   -880.07882   -457.87768   -1121.9106   -12.862911   -155.60614   -111.61739      46.7237      46.7237      46.7237           90           90           90     102002.7   -819.95569 
  985000       984500   -9223.2886    1137.7018    -10360.99    4366.8194    -14727.81    126.46633   -947.99552    -609.6358    -591.6177    130.30571    69.088528    84.001849      46.7237      46.7237      46.7237           90           90           90     102002.7   -716.41634 
  986000       985500    -9201.713    1164.7252   -10366.438    4372.0663   -14738.504    129.47023   -655.63192   -649.72249   -290.93779   -6.4327923   -196.93108   -108.56356      46.7237      46.7237      46.7237           90           90           90     102002.7    -532.0974 
  987000       986500   -9198.9519     1146.505   -10345.457    4364.1812   -14709.638    127.44488   -1078.8625   -254.55495   -740.87988    163.75293    1.1278752   -63.146951      46.7237      46.7237      46.7237           90           90           90     102002.7   -691.43246 
  988000       987500    -9215.922    1156.1189   -10372.041    4359.3304   -14731.371    128.51356   -670.87457   -764.01963   -203.45147    25.804122    3.8495427   -34.490188      46.7237      46.7237      46.7237           90           90           90     102002.7   -546.11523 
  989000       988500   -9177.2334    1160.1109   -10337.344    4365.9842   -14703.328    128.95731   -775.85962   -656.79156    -615.7189    189.47214    39.087985   -116.11842      46.7237      46.7237      46.7237           90           90           90     102002.7   -682.79003 
  990000       989500   -9196.7535    1159.3495   -10356.103    4377.6208   -14733.724    128.87267   -357.68732   -621.41824   -724.28956   -10.506701   -4.9320517    197.40193      46.7237      46.7237      46.7237           90           90           90     102002.7   -567.79838 
  991000       990500   -9190.5955    1170.8045     -10361.4    4342.3131   -14703.713    130.14601   -712.35713   -684.07242   -291.17089   -172.42418    72.248179    -178.9547      46.7237      46.7237      46.7237           90           90           90     102002.7   -562.53348 
  992000       991500   -9204.4451    1181.1541   -10385.599    4341.1169   -14726.716    131.29646   -425.35045    -682.2749   -124.29539    104.96166    144.05073   -52.082987      46.7237      46.7237      46.7237           90           90           90     102002.7   -410.64025 
  993000       992500   -9219.1542    1169.9448   -10389.099     4360.177   -14749.276    130.05044       -674.2   -635.21966   -738.72028   -30.478186    136.79978   -54.127221      46.7237      46.7237      46.7237           90           90           90     102002.7   -682.71331 
  994000       993500   -9132.3517    1200.1396   -10332.491    4401.6441   -14734.135    133.40688   -615.55305   -1030.5077   -368.73369   -107.53654   -2.5863973    48.754255      46.7237      46.7237      46.7237           90           90           90     102002.7   -671.59814 
  995000       994500   -9196.6751    1153.8867   -10350.562      4375.96   -14726.522    128.26543   -809.35688   -881.99554   -851.43882   -38.922029     164.8991    90.677007      46.7237      46.7237      46.7237           90           90           90     102002.7   -847.59708 
  996000       995500   -9169.2665    1195.5036    -10364.77     4363.287   -14728.057    132.89154   -873.70188   -1003.0594   -535.27704   -125.80625   -129.64426    359.33784      46.7237      46.7237      46.7237           90           90           90     102002.7   -804.01278 
  997000       996500   -9172.3797    1171.4815   -10343.861    4371.6382   -14715.499    130.22126   -793.72906   -713.98613   -246.35499    116.78202    230.56979   -32.840429      46.7237      46.7237      46.7237           90           90           90     102002.7   -584.69006 
  998000       997500   -9158.1882    1191.5198   -10349.708     4368.076   -14717.784    132.44871   -471.50298    206.49833    -875.3844   -4.8157366     127.5045    74.128295      46.7237      46.7237      46.7237           90           90           90     102002.7   -380.12968 
  999000       998500   -9219.2798    1154.2588   -10373.539    4362.2173   -14735.756    128.30679   -520.66474   -668.95396   -1136.2985   -76.366904   -89.820582   -100.68027      46.7237      46.7237      46.7237           90           90           90     102002.7   -775.30573 
 1000000       999500   -9171.7295    1177.2259   -10348.955    4366.8142    -14715.77    130.85981    -951.5399   -398.78206   -426.75662    40.848724   -103.00172    157.25388      46.7237      46.7237      46.7237           90           90           90     102002.7   -592.35953 
 1000500      1000000   -9159.3028    1213.1293   -10372.432    4368.7121   -14741.144     134.8508   -575.83166   -926.34793   -596.42825   -36.674431    87.905579    -23.91549      46.7237      46.7237      46.7237           90           90           90     102002.7   -699.53595 
Loop time of 2047.05 on 16 procs for 500000 steps with 3019 atoms

Performance: 21.104 ns/day, 1.137 hours/ns, 244.253 timesteps/s
99.9% CPU use with 16 MPI tasks x no OpenMP threads

MPI task timing breakdown:
Section |  min time  |  avg time  |  max time  |%varavg| %total
---------------------------------------------------------------
Pair    | 1142       | 1349.8     | 1520.6     | 304.8 | 65.94
Bond    | 149.94     | 183.28     | 208.43     | 135.7 |  8.95
Neigh   | 15.751     | 15.833     | 15.96      |   1.9 |  0.77
Comm    | 298.74     | 466.93     | 653.52     | 483.0 | 22.81
Output  | 0.12459    | 0.13011    | 0.13059    |   0.4 |  0.01
Modify  | 23.547     | 24.465     | 25.592     |  14.8 |  1.20
Other   |            | 6.591      |            |       |  0.32

Nlocal:    188.688 ave 224 max 163 min
Histogram: 2 1 4 0 2 3 3 0 0 1
Nghost:    3831.56 ave 3865 max 3795 min
Histogram: 1 0 2 1 5 3 1 0 1 2
Neighs:    11471.1 ave 18208 max 6024 min
Histogram: 3 1 1 3 1 1 3 1 0 2

Total # of neighbors = 183538
Ave neighs/atom = 60.7943
Ave special neighs/atom = 3.81583
Neighbor list builds = 5203
Dangerous builds = 0
Total wall time: 1:02:26
