LAMMPS (30 Mar 2018)
Reading data file ...
  orthogonal box = (0 0 0) to (46.7237 46.7237 46.7237)
  2 by 2 by 4 MPI processor grid
  reading atoms ...
  3200 atoms
  scanning bonds ...
  5 = max bonds/atom
  scanning angles ...
  10 = max angles/atom
  scanning dihedrals ...
  32 = max dihedrals/atom
  scanning impropers ...
  3 = max impropers/atom
  reading bonds ...
  2064 bonds
  reading angles ...
  3696 angles
  reading dihedrals ...
  6240 dihedrals
  reading impropers ...
  1008 impropers
Finding 1-2 1-3 1-4 neighbors ...
  special bond factors lj:   0          0          0         
  special bond factors coul: 0          0          0         
  5 = max # of 1-2 neighbors
  8 = max # of 1-3 neighbors
  20 = max # of 1-4 neighbors
  19 = max # of special neighbors
Finding 1-2 1-3 1-4 neighbors ...
  special bond factors lj:   0          0          1         
  special bond factors coul: 1          1          1         
  5 = max # of 1-2 neighbors
  8 = max # of 1-3 neighbors
  19 = max # of special neighbors
WARNING: Using 'neigh_modify every 1 delay 0 check yes' setting during minimization (../min.cpp:168)
Neighbor list info ...
  update every 1 steps, delay 0 steps, check yes
  max neighbors/atom: 2000, page size: 100000
  master list distance cutoff = 16
  ghost atom cutoff = 16
  binsize = 8, bins = 6 6 6
  3 neighbor lists, perpetual/occasional/extra = 3 0 0
  (1) pair buck6d/coul/gauss/dsf, perpetual, skip from (3)
      attributes: half, newton on
      pair build: skip
      stencil: none
      bin: none
  (2) pair lj/cut, perpetual, skip from (3)
      attributes: half, newton on
      pair build: skip
      stencil: none
      bin: none
  (3) neighbor class addition, perpetual
      attributes: half, newton on
      pair build: half/bin/newton
      stencil: half/bin/3d/newton
      bin: standard
Setting up cg style minimization ...
  Unit style    : real
  Current step  : 0
WARNING: Inconsistent image flags (../domain.cpp:786)
Per MPI rank memory allocation (min/avg/max) = 23.02 | 23.42 | 23.92 Mbytes
Step Temp E_pair E_mol TotEng Press 
       0            0   -15581.268    6482.8914    -9098.377    5843.2842 
     500            0   -15912.042    3762.9615    -12149.08   -2022.7807 
Loop time of 4.41183 on 16 procs for 500 steps with 3200 atoms

99.8% CPU use with 16 MPI tasks x no OpenMP threads

Minimization stats:
  Stopping criterion = max force evaluations
  Energy initial, next-to-last, final = 
        -9098.37698124     -12149.0060477      -12149.080082
  Force two-norm initial, final = 2575.11 13.6915
  Force max component initial, final = 152.164 1.69305
  Final line search alpha, max atom move = 0.00677825 0.0114759
  Iterations, force evaluations = 500 1000

MPI task timing breakdown:
Section |  min time  |  avg time  |  max time  |%varavg| %total
---------------------------------------------------------------
Pair    | 2.5849     | 2.9734     | 3.5672     |  16.0 | 67.40
Bond    | 0.27921    | 0.3594     | 0.41416    |   6.4 |  8.15
Neigh   | 0.034215   | 0.034336   | 0.034474   |   0.1 |  0.78
Comm    | 0.38583    | 0.9993     | 1.376      |  28.1 | 22.65
Output  | 0          | 0          | 0          |   0.0 |  0.00
Modify  | 0          | 0          | 0          |   0.0 |  0.00
Other   |            | 0.04542    |            |       |  1.03

Nlocal:    200 ave 216 max 181 min
Histogram: 2 1 1 1 2 1 2 1 3 2
Nghost:    4008.31 ave 4025 max 3975 min
Histogram: 1 0 1 1 1 1 2 3 1 5
Neighs:    11467.4 ave 16431 max 8306 min
Histogram: 3 2 3 1 0 2 3 1 0 1

Total # of neighbors = 183479
Ave neighs/atom = 57.3372
Ave special neighs/atom = 3.6
Neighbor list builds = 10
Dangerous builds = 0
Neighbor list info ...
  update every 1 steps, delay 10 steps, check yes
  max neighbors/atom: 2000, page size: 100000
  master list distance cutoff = 16
  ghost atom cutoff = 16
  binsize = 8, bins = 6 6 6
  3 neighbor lists, perpetual/occasional/extra = 3 0 0
  (1) pair buck6d/coul/gauss/dsf, perpetual, skip from (3)
      attributes: half, newton on
      pair build: skip
      stencil: none
      bin: none
  (2) pair lj/cut, perpetual, skip from (3)
      attributes: half, newton on
      pair build: skip
      stencil: none
      bin: none
  (3) neighbor class addition, perpetual
      attributes: half, newton on
      pair build: half/bin/newton
      stencil: half/bin/3d/newton
      bin: standard
Setting up Verlet run ...
  Unit style    : real
  Current step  : 500
  Time step     : 1
WARNING: Inconsistent image flags (../domain.cpp:786)
Per MPI rank memory allocation (min/avg/max) = 22.66 | 22.72 | 22.79 Mbytes
Step Temp PotEng TotEng Press Volume Lx Ly Lz 
     500           91    -12149.08   -11281.339   -1633.9047     102002.7      46.7237      46.7237      46.7237 
    1000    77.538367   -11438.768   -10699.392   -531.11297     102002.7      46.7237      46.7237      46.7237 
    2000    91.364431   -11292.006   -10420.791   -337.06639     102002.7      46.7237      46.7237      46.7237 
    3000    90.594017    -11333.63   -10469.761   -357.03058     102002.7      46.7237      46.7237      46.7237 
    4000    90.680958   -11300.705   -10436.007   -292.10375     102002.7      46.7237      46.7237      46.7237 
    5000    90.608848   -11300.747   -10436.736   -538.67347     102002.7      46.7237      46.7237      46.7237 
    6000    92.377623   -11332.834   -10451.957   -628.12429     102002.7      46.7237      46.7237      46.7237 
    7000    90.695193    -11327.67   -10462.836   -792.28511     102002.7      46.7237      46.7237      46.7237 
    8000     91.14217   -11310.636    -10441.54   -424.82138     102002.7      46.7237      46.7237      46.7237 
    9000    89.238803    -11339.15   -10488.203   -633.83888     102002.7      46.7237      46.7237      46.7237 
   10000    91.864873   -11336.431   -10460.443   -554.04178     102002.7      46.7237      46.7237      46.7237 
   11000    90.310452   -11324.111   -10462.946   -462.71924     102002.7      46.7237      46.7237      46.7237 
   12000    91.823242   -11346.604   -10471.013   -602.99146     102002.7      46.7237      46.7237      46.7237 
   13000    91.805374   -11332.768   -10457.348    -652.3542     102002.7      46.7237      46.7237      46.7237 
   14000    88.451827   -11341.639   -10498.197   -440.58131     102002.7      46.7237      46.7237      46.7237 
   15000    91.423197   -11343.171   -10471.395   -550.66589     102002.7      46.7237      46.7237      46.7237 
   16000    90.970659   -11337.802   -10470.341   -657.22215     102002.7      46.7237      46.7237      46.7237 
   17000    92.191826   -11333.794   -10454.689   -557.56948     102002.7      46.7237      46.7237      46.7237 
   18000    92.148454   -11328.599   -10449.907   -374.88564     102002.7      46.7237      46.7237      46.7237 
   19000    90.214861   -11330.949   -10470.695   -458.19357     102002.7      46.7237      46.7237      46.7237 
   20000    89.732402    -11340.87   -10485.217   -660.29094     102002.7      46.7237      46.7237      46.7237 
   21000    89.919069   -11357.328   -10499.895   -566.27896     102002.7      46.7237      46.7237      46.7237 
   22000    89.957944   -11332.229   -10474.425   -461.52312     102002.7      46.7237      46.7237      46.7237 
   23000    93.872927   -11334.183   -10439.048   -411.69554     102002.7      46.7237      46.7237      46.7237 
   24000    90.555458   -11334.536   -10471.034   -610.69417     102002.7      46.7237      46.7237      46.7237 
   25000    90.341937    -11352.16   -10490.695   -482.29669     102002.7      46.7237      46.7237      46.7237 
   26000    91.009993   -11344.613   -10476.777   -536.71673     102002.7      46.7237      46.7237      46.7237 
   27000    91.417849   -11355.155    -10483.43   -354.97827     102002.7      46.7237      46.7237      46.7237 
   28000    90.322297   -11357.491   -10496.213   -532.58184     102002.7      46.7237      46.7237      46.7237 
   29000    90.804556   -11362.075   -10496.198   -406.12255     102002.7      46.7237      46.7237      46.7237 
   30000    92.497848   -11348.782   -10466.758   -708.66026     102002.7      46.7237      46.7237      46.7237 
   31000    91.694145   -11350.993   -10476.634   -522.87657     102002.7      46.7237      46.7237      46.7237 
   32000    89.749621   -11348.883   -10493.065   -468.20481     102002.7      46.7237      46.7237      46.7237 
   33000    89.782118   -11343.263   -10487.135   -587.08243     102002.7      46.7237      46.7237      46.7237 
   34000    91.217313   -11332.245   -10462.432   -547.14782     102002.7      46.7237      46.7237      46.7237 
   35000    90.044051   -11370.521   -10511.896   -448.30488     102002.7      46.7237      46.7237      46.7237 
   36000    91.795768   -11339.342   -10464.013   -379.80919     102002.7      46.7237      46.7237      46.7237 
   37000    89.760714   -11353.541   -10497.618   -376.86646     102002.7      46.7237      46.7237      46.7237 
   38000    92.552922   -11360.231   -10477.682   -618.33643     102002.7      46.7237      46.7237      46.7237 
   39000    93.171199   -11352.519   -10464.075   -513.48129     102002.7      46.7237      46.7237      46.7237 
   40000    93.670822   -11352.786   -10459.578   -403.78986     102002.7      46.7237      46.7237      46.7237 
   41000    89.837169   -11372.288   -10515.635   -764.16985     102002.7      46.7237      46.7237      46.7237 
   42000    90.942711   -11346.867   -10479.672   -410.05933     102002.7      46.7237      46.7237      46.7237 
   43000    91.304097   -11364.158   -10493.517    -673.1874     102002.7      46.7237      46.7237      46.7237 
   44000    92.621876   -11336.485   -10453.279   -748.13896     102002.7      46.7237      46.7237      46.7237 
   45000    90.286635    -11362.89   -10501.952   -534.02185     102002.7      46.7237      46.7237      46.7237 
   46000    89.635826   -11355.918   -10501.186   -240.18149     102002.7      46.7237      46.7237      46.7237 
   47000    89.738959    -11359.22   -10503.504   -714.19497     102002.7      46.7237      46.7237      46.7237 
   48000    89.460479   -11342.533   -10489.472    -446.7141     102002.7      46.7237      46.7237      46.7237 
   49000    91.633581   -11364.983   -10491.201    -612.3243     102002.7      46.7237      46.7237      46.7237 
   50000    89.924727    -11374.52   -10517.032   -520.34486     102002.7      46.7237      46.7237      46.7237 
   51000    91.404866   -11327.014   -10455.413   -301.02803     102002.7      46.7237      46.7237      46.7237 
   52000    91.452907   -11354.765   -10482.706   -658.96462     102002.7      46.7237      46.7237      46.7237 
   53000     91.70198   -11327.233   -10452.799   -668.21272     102002.7      46.7237      46.7237      46.7237 
   54000    89.150509   -11364.369   -10514.264   -604.58905     102002.7      46.7237      46.7237      46.7237 
   55000     91.55405    -11334.51   -10461.487   -501.82239     102002.7      46.7237      46.7237      46.7237 
   56000    89.868792   -11338.366   -10481.413   -206.19045     102002.7      46.7237      46.7237      46.7237 
   57000    90.598228    -11322.93   -10459.021   -591.30754     102002.7      46.7237      46.7237      46.7237 
   58000    90.515683   -11326.933    -10463.81   -562.37623     102002.7      46.7237      46.7237      46.7237 
   59000    91.052894   -11342.702   -10474.457   -448.50515     102002.7      46.7237      46.7237      46.7237 
   60000    89.672217   -11356.786   -10501.707   -632.14106     102002.7      46.7237      46.7237      46.7237 
   61000    89.300368    -11335.32   -10483.786   -501.33919     102002.7      46.7237      46.7237      46.7237 
   62000    91.677402   -11329.022   -10454.822    -315.2812     102002.7      46.7237      46.7237      46.7237 
   63000    92.349548   -11328.145   -10447.535    -238.7425     102002.7      46.7237      46.7237      46.7237 
   64000     90.95033   -11355.553   -10488.286   -709.24803     102002.7      46.7237      46.7237      46.7237 
   65000    91.749962   -11343.022    -10468.13   -585.13926     102002.7      46.7237      46.7237      46.7237 
   66000    90.041497   -11341.249   -10482.648   -669.16995     102002.7      46.7237      46.7237      46.7237 
   67000    90.743492     -11354.2   -10488.905   -527.30898     102002.7      46.7237      46.7237      46.7237 
   68000    90.612024   -11360.721    -10496.68   -472.94135     102002.7      46.7237      46.7237      46.7237 
   69000    91.811986   -11369.507   -10494.024   -566.69991     102002.7      46.7237      46.7237      46.7237 
   70000    94.177202   -11324.624   -10426.587   -217.70079     102002.7      46.7237      46.7237      46.7237 
   71000    90.518697     -11354.6   -10491.449   -466.58201     102002.7      46.7237      46.7237      46.7237 
   72000    92.576603   -11375.981   -10493.207   -530.55477     102002.7      46.7237      46.7237      46.7237 
   73000    90.043699   -11360.282   -10501.661   -657.79993     102002.7      46.7237      46.7237      46.7237 
   74000    89.124514   -11339.721   -10489.864   -514.48717     102002.7      46.7237      46.7237      46.7237 
   75000    91.689679   -11363.425   -10489.108   -512.48182     102002.7      46.7237      46.7237      46.7237 
   76000    92.175628   -11371.051     -10492.1   -453.03908     102002.7      46.7237      46.7237      46.7237 
   77000    91.325171   -11356.263   -10485.421   -532.89381     102002.7      46.7237      46.7237      46.7237 
   78000    90.125578   -11364.851   -10505.448   -603.06869     102002.7      46.7237      46.7237      46.7237 
   79000    91.512402   -11346.178   -10473.551   -492.45261     102002.7      46.7237      46.7237      46.7237 
   80000    91.529468   -11357.997   -10485.207   -489.57473     102002.7      46.7237      46.7237      46.7237 
   81000    89.318869   -11338.062   -10486.352   -432.10904     102002.7      46.7237      46.7237      46.7237 
   82000    90.392115   -11367.064    -10505.12   -745.31317     102002.7      46.7237      46.7237      46.7237 
   83000    90.467484   -11350.211   -10487.548   -559.05222     102002.7      46.7237      46.7237      46.7237 
   84000    91.882006   -11360.175   -10484.024   -713.60711     102002.7      46.7237      46.7237      46.7237 
   85000    91.182509   -11340.171    -10470.69   -463.37021     102002.7      46.7237      46.7237      46.7237 
   86000    93.138815     -11360.5   -10472.365   -300.52517     102002.7      46.7237      46.7237      46.7237 
   87000    90.859517   -11338.801     -10472.4   -441.61981     102002.7      46.7237      46.7237      46.7237 
   88000    88.216097   -11360.842   -10519.648   -359.92097     102002.7      46.7237      46.7237      46.7237 
   89000    92.453643   -11349.803   -10468.201   -278.99898     102002.7      46.7237      46.7237      46.7237 
   90000    91.122053   -11336.681   -10467.777   -294.23044     102002.7      46.7237      46.7237      46.7237 
   91000    90.335696   -11333.635   -10472.228   -371.80004     102002.7      46.7237      46.7237      46.7237 
   92000    88.745201   -11343.648   -10497.408   -506.81361     102002.7      46.7237      46.7237      46.7237 
   93000    90.539615   -11348.982   -10485.631   -647.27028     102002.7      46.7237      46.7237      46.7237 
   94000    89.392115   -11336.666   -10484.258   -763.78824     102002.7      46.7237      46.7237      46.7237 
   95000    89.222874   -11360.224   -10509.429   -839.52201     102002.7      46.7237      46.7237      46.7237 
   96000    92.918214   -11337.007   -10450.975   -451.08567     102002.7      46.7237      46.7237      46.7237 
   97000    89.466834   -11334.073   -10480.952   -534.19821     102002.7      46.7237      46.7237      46.7237 
   98000    90.751912   -11366.481   -10501.106   -531.87188     102002.7      46.7237      46.7237      46.7237 
   99000    91.305513   -11359.752   -10489.098   -329.37621     102002.7      46.7237      46.7237      46.7237 
  100000    90.779926   -11357.118   -10491.476   -488.07336     102002.7      46.7237      46.7237      46.7237 
  101000     88.45832   -11356.869   -10513.365   -526.07279     102002.7      46.7237      46.7237      46.7237 
  102000    91.946293   -11343.531   -10466.766   -366.86809     102002.7      46.7237      46.7237      46.7237 
  103000    89.749103   -11346.325   -10490.512   -736.68532     102002.7      46.7237      46.7237      46.7237 
  104000    90.142267   -11343.034   -10483.473   -270.02268     102002.7      46.7237      46.7237      46.7237 
  105000    91.889352   -11368.825   -10492.604   -434.93184     102002.7      46.7237      46.7237      46.7237 
  106000    91.463205   -11369.992   -10497.834   -820.21461     102002.7      46.7237      46.7237      46.7237 
  107000    92.067536   -11371.374   -10493.453   -891.54508     102002.7      46.7237      46.7237      46.7237 
  108000    91.781924   -11353.933   -10478.736   -517.49221     102002.7      46.7237      46.7237      46.7237 
  109000    91.890814   -11360.589   -10484.354   -582.97248     102002.7      46.7237      46.7237      46.7237 
  110000    92.425749   -11374.498   -10493.162   -760.46788     102002.7      46.7237      46.7237      46.7237 
  111000    91.837441   -11348.306   -10472.579   -455.94181     102002.7      46.7237      46.7237      46.7237 
  112000    92.425588   -11366.403   -10485.069   -628.75841     102002.7      46.7237      46.7237      46.7237 
  113000    90.668751   -11339.427   -10474.845   -459.89452     102002.7      46.7237      46.7237      46.7237 
  114000    93.449164   -11344.874   -10453.779   -469.88008     102002.7      46.7237      46.7237      46.7237 
  115000      91.6221   -11349.356   -10475.684   -763.60288     102002.7      46.7237      46.7237      46.7237 
  116000     91.88276   -11354.425   -10478.266   -425.98173     102002.7      46.7237      46.7237      46.7237 
  117000    94.635726   -11334.165   -10431.756   -546.82273     102002.7      46.7237      46.7237      46.7237 
  118000    91.172984   -11351.185   -10481.795   -510.67129     102002.7      46.7237      46.7237      46.7237 
  119000    91.255854   -11352.995   -10482.814   -423.75401     102002.7      46.7237      46.7237      46.7237 
  120000    92.070569   -11344.697   -10466.748   -700.95734     102002.7      46.7237      46.7237      46.7237 
  121000    92.174991   -11353.695    -10474.75    -434.6666     102002.7      46.7237      46.7237      46.7237 
  122000    90.942934   -11348.682   -10481.485   -586.50788     102002.7      46.7237      46.7237      46.7237 
  123000    87.792168   -11357.514   -10520.362   -646.27307     102002.7      46.7237      46.7237      46.7237 
  124000    93.427293   -11363.861   -10472.975   -576.36863     102002.7      46.7237      46.7237      46.7237 
  125000    90.503333    -11338.38   -10475.376   -545.86907     102002.7      46.7237      46.7237      46.7237 
  126000    89.015634   -11321.598    -10472.78   -586.15693     102002.7      46.7237      46.7237      46.7237 
  127000    89.658342   -11336.341   -10481.394   -315.55429     102002.7      46.7237      46.7237      46.7237 
  128000    91.496595   -11349.462   -10476.986   -387.77903     102002.7      46.7237      46.7237      46.7237 
  129000    88.494499   -11349.959    -10506.11   -478.07372     102002.7      46.7237      46.7237      46.7237 
  130000    90.707744   -11337.885   -10472.931   -458.32356     102002.7      46.7237      46.7237      46.7237 
  131000    94.178663   -11339.651   -10441.599   -467.96701     102002.7      46.7237      46.7237      46.7237 
  132000    90.635181    -11343.85   -10479.588   -313.13062     102002.7      46.7237      46.7237      46.7237 
  133000    88.792377    -11332.13   -10485.441   -317.10581     102002.7      46.7237      46.7237      46.7237 
  134000    88.780398   -11347.762   -10501.187   -378.75673     102002.7      46.7237      46.7237      46.7237 
  135000    88.637763   -11361.663   -10516.448   -560.24516     102002.7      46.7237      46.7237      46.7237 
  136000    89.654599   -11350.881    -10495.97   -577.61521     102002.7      46.7237      46.7237      46.7237 
  137000    91.395086    -11347.13   -10475.622   -651.92529     102002.7      46.7237      46.7237      46.7237 
  138000    87.519903   -11349.562   -10515.006   -626.16096     102002.7      46.7237      46.7237      46.7237 
  139000    90.974697   -11352.561   -10485.062   -738.34781     102002.7      46.7237      46.7237      46.7237 
  140000    90.659118    -11394.94    -10530.45   -470.37532     102002.7      46.7237      46.7237      46.7237 
  141000    91.161167   -11353.724   -10484.447   -627.89034     102002.7      46.7237      46.7237      46.7237 
  142000    91.695312   -11348.932   -10474.561   -302.69893     102002.7      46.7237      46.7237      46.7237 
  143000    90.088971   -11357.448   -10498.395     -498.273     102002.7      46.7237      46.7237      46.7237 
  144000    90.311679   -11350.199   -10489.022   -671.63984     102002.7      46.7237      46.7237      46.7237 
  145000    92.339408   -11363.668   -10483.156   -373.41683     102002.7      46.7237      46.7237      46.7237 
  146000    91.465237   -11343.124   -10470.948    -511.6369     102002.7      46.7237      46.7237      46.7237 
  147000    91.409002   -11342.443   -10470.802   -378.22051     102002.7      46.7237      46.7237      46.7237 
  148000    91.450113   -11383.429   -10511.396   -302.33823     102002.7      46.7237      46.7237      46.7237 
  149000    92.999342   -11353.753   -10466.947   -631.37875     102002.7      46.7237      46.7237      46.7237 
  150000     88.58966   -11340.407    -10495.65   -546.66993     102002.7      46.7237      46.7237      46.7237 
  151000    91.227889   -11353.495   -10483.581   -426.56671     102002.7      46.7237      46.7237      46.7237 
  152000    91.469124   -11333.269   -10461.055   -471.73863     102002.7      46.7237      46.7237      46.7237 
  153000    91.532829   -11359.875   -10487.053   -468.48572     102002.7      46.7237      46.7237      46.7237 
  154000    89.602095   -11367.853   -10513.442   -524.96738     102002.7      46.7237      46.7237      46.7237 
  155000    90.309177    -11346.34   -10485.187   -693.59336     102002.7      46.7237      46.7237      46.7237 
  156000    90.854651   -11369.706   -10503.351   -494.51021     102002.7      46.7237      46.7237      46.7237 
  157000    92.670371   -11330.297   -10446.628   -643.56755     102002.7      46.7237      46.7237      46.7237 
  158000    91.499239    -11361.71   -10489.209   -623.53365     102002.7      46.7237      46.7237      46.7237 
  159000    88.865928   -11379.127   -10531.736   -562.45687     102002.7      46.7237      46.7237      46.7237 
  160000    90.032715   -11345.366   -10486.849   -717.02287     102002.7      46.7237      46.7237      46.7237 
  161000    89.924676   -11356.547   -10499.061    -469.0411     102002.7      46.7237      46.7237      46.7237 
  162000    89.913467   -11365.594   -10508.214   -469.68298     102002.7      46.7237      46.7237      46.7237 
  163000    89.076723   -11355.341    -10505.94   -552.37518     102002.7      46.7237      46.7237      46.7237 
  164000    91.510021   -11352.601   -10479.997   -437.78583     102002.7      46.7237      46.7237      46.7237 
  165000    91.435241   -11346.873   -10474.982   -710.16558     102002.7      46.7237      46.7237      46.7237 
  166000    91.212875   -11345.775   -10476.005   -501.49337     102002.7      46.7237      46.7237      46.7237 
  167000    88.617438   -11357.778   -10512.756   -676.91253     102002.7      46.7237      46.7237      46.7237 
  168000    90.931014   -11356.351   -10489.268    -511.9467     102002.7      46.7237      46.7237      46.7237 
  169000    91.633047   -11350.263   -10476.486    -590.8562     102002.7      46.7237      46.7237      46.7237 
  170000    93.746615   -11349.535   -10455.604   -858.80464     102002.7      46.7237      46.7237      46.7237 
  171000    90.402128    -11363.81    -10501.77   -739.81681     102002.7      46.7237      46.7237      46.7237 
  172000    92.398111   -11357.695   -10476.622   -509.10519     102002.7      46.7237      46.7237      46.7237 
  173000    91.059397   -11358.988   -10490.681   -610.42557     102002.7      46.7237      46.7237      46.7237 
  174000    91.540849   -11361.547   -10488.649   -758.09686     102002.7      46.7237      46.7237      46.7237 
  175000    90.344632   -11356.591   -10495.099    -494.0415     102002.7      46.7237      46.7237      46.7237 
  176000     92.07765   -11356.582   -10478.565   -533.90059     102002.7      46.7237      46.7237      46.7237 
  177000    89.638231   -11363.215    -10508.46   -480.91474     102002.7      46.7237      46.7237      46.7237 
  178000    91.126339   -11358.786   -10489.841    -368.6724     102002.7      46.7237      46.7237      46.7237 
  179000    88.832848   -11365.577   -10518.501   -517.81183     102002.7      46.7237      46.7237      46.7237 
  180000    89.867466   -11356.387   -10499.446   -530.69689     102002.7      46.7237      46.7237      46.7237 
  181000    92.695622   -11331.062   -10447.152   -662.76833     102002.7      46.7237      46.7237      46.7237 
  182000    93.569311   -11384.932   -10492.691   -545.41644     102002.7      46.7237      46.7237      46.7237 
  183000    90.933638   -11373.225   -10506.117   -539.39899     102002.7      46.7237      46.7237      46.7237 
  184000    89.609646   -11359.123    -10504.64   -406.66224     102002.7      46.7237      46.7237      46.7237 
  185000     91.03629   -11376.429   -10508.343   -570.16869     102002.7      46.7237      46.7237      46.7237 
  186000    89.832219   -11353.448   -10496.843    -514.0363     102002.7      46.7237      46.7237      46.7237 
  187000    89.702407   -11344.032   -10488.664   -450.26069     102002.7      46.7237      46.7237      46.7237 
  188000    90.835086   -11353.017   -10486.849   -559.78672     102002.7      46.7237      46.7237      46.7237 
  189000    89.671294   -11358.245   -10503.174   -469.97172     102002.7      46.7237      46.7237      46.7237 
  190000    91.742046   -11341.047   -10466.231   -780.54573     102002.7      46.7237      46.7237      46.7237 
  191000    92.381107    -11339.63    -10458.72   -710.23943     102002.7      46.7237      46.7237      46.7237 
  192000    90.729646   -11350.871   -10485.708   -749.10273     102002.7      46.7237      46.7237      46.7237 
  193000    88.765342   -11343.876   -10497.444   -635.07825     102002.7      46.7237      46.7237      46.7237 
  194000    91.866946   -11346.804   -10470.797   -468.68962     102002.7      46.7237      46.7237      46.7237 
  195000    90.100853   -11338.707   -10479.541   -482.37668     102002.7      46.7237      46.7237      46.7237 
  196000    91.812456   -11351.939   -10476.451   -387.86079     102002.7      46.7237      46.7237      46.7237 
  197000    92.301095   -11352.419   -10472.271   -308.08151     102002.7      46.7237      46.7237      46.7237 
  198000    92.520901   -11336.694   -10454.451   -625.62895     102002.7      46.7237      46.7237      46.7237 
  199000    91.451097    -11367.75   -10495.708   -582.92259     102002.7      46.7237      46.7237      46.7237 
  200000    91.289943   -11338.875   -10468.369    -381.3063     102002.7      46.7237      46.7237      46.7237 
  201000    91.212065   -11347.587   -10477.825   -569.68401     102002.7      46.7237      46.7237      46.7237 
  202000    91.081943   -11352.036   -10483.514   -563.85449     102002.7      46.7237      46.7237      46.7237 
  203000    91.099046   -11354.699   -10486.014   -573.62205     102002.7      46.7237      46.7237      46.7237 
  204000     91.52131   -11385.261    -10512.55   -669.90565     102002.7      46.7237      46.7237      46.7237 
  205000    88.216882   -11350.015   -10508.813   -463.42948     102002.7      46.7237      46.7237      46.7237 
  206000    88.982612   -11338.259   -10489.755   -714.25786     102002.7      46.7237      46.7237      46.7237 
  207000    90.758125   -11325.082   -10459.648   -656.94492     102002.7      46.7237      46.7237      46.7237 
  208000    90.774329    -11370.95   -10505.361   -473.13601     102002.7      46.7237      46.7237      46.7237 
  209000    91.004922   -11349.448   -10481.661   -230.93345     102002.7      46.7237      46.7237      46.7237 
  210000    89.248901   -11362.218   -10511.176   -496.40219     102002.7      46.7237      46.7237      46.7237 
  211000    92.290891   -11355.759   -10475.708    -304.7421     102002.7      46.7237      46.7237      46.7237 
  212000    91.482696   -11353.187   -10480.844   -587.73823     102002.7      46.7237      46.7237      46.7237 
  213000    92.094033   -11332.175   -10454.002   -394.17179     102002.7      46.7237      46.7237      46.7237 
  214000    90.142442   -11354.077   -10494.514   -382.09171     102002.7      46.7237      46.7237      46.7237 
  215000    91.472273   -11351.711   -10479.467   -636.54535     102002.7      46.7237      46.7237      46.7237 
  216000    92.653194   -11328.875    -10445.37   -598.48583     102002.7      46.7237      46.7237      46.7237 
  217000    89.229365   -11367.352   -10516.495   -679.36594     102002.7      46.7237      46.7237      46.7237 
  218000     90.09572   -11337.867   -10478.749   -550.91166     102002.7      46.7237      46.7237      46.7237 
  219000    89.727485   -11341.481   -10485.874     -746.539     102002.7      46.7237      46.7237      46.7237 
  220000    91.177693   -11360.797   -10491.362   -795.23286     102002.7      46.7237      46.7237      46.7237 
  221000    92.231923   -11339.307   -10459.819   -506.10706     102002.7      46.7237      46.7237      46.7237 
  222000     90.97185   -11356.868   -10489.396   -639.99072     102002.7      46.7237      46.7237      46.7237 
  223000    90.348399   -11344.607    -10483.08   -376.86247     102002.7      46.7237      46.7237      46.7237 
  224000     89.59507   -11346.338   -10491.994   -575.16312     102002.7      46.7237      46.7237      46.7237 
  225000    88.897512   -11364.653   -10516.961   -856.35882     102002.7      46.7237      46.7237      46.7237 
  226000    90.673563   -11344.494   -10479.866   -402.23642     102002.7      46.7237      46.7237      46.7237 
  227000    92.328673   -11357.171   -10476.761   -854.80723     102002.7      46.7237      46.7237      46.7237 
  228000     93.63741   -11367.285   -10474.395    -732.1463     102002.7      46.7237      46.7237      46.7237 
  229000    92.359162   -11351.939   -10471.238   -433.37451     102002.7      46.7237      46.7237      46.7237 
  230000    87.231957   -11365.597   -10533.786   -606.98167     102002.7      46.7237      46.7237      46.7237 
  231000    90.688884   -11350.846   -10486.072   -432.33925     102002.7      46.7237      46.7237      46.7237 
  232000     92.62798   -11346.164     -10462.9   -352.34761     102002.7      46.7237      46.7237      46.7237 
  233000    90.208402   -11353.778   -10493.586   -585.26705     102002.7      46.7237      46.7237      46.7237 
  234000    93.420982   -11335.328   -10444.502   -542.73075     102002.7      46.7237      46.7237      46.7237 
  235000    90.224121   -11346.547   -10486.205   -587.24306     102002.7      46.7237      46.7237      46.7237 
  236000    89.988593   -11353.257   -10495.161   -265.54878     102002.7      46.7237      46.7237      46.7237 
  237000    91.163746   -11362.508   -10493.206   -550.56105     102002.7      46.7237      46.7237      46.7237 
  238000    93.622347    -11360.93   -10468.184    -543.0267     102002.7      46.7237      46.7237      46.7237 
  239000    90.599855   -11362.098   -10498.173   -563.74362     102002.7      46.7237      46.7237      46.7237 
  240000    92.171643   -11355.632   -10476.719   -603.03881     102002.7      46.7237      46.7237      46.7237 
  241000    90.588556   -11349.084   -10485.267    -541.9938     102002.7      46.7237      46.7237      46.7237 
  242000     91.77004   -11353.132   -10478.049   -559.80387     102002.7      46.7237      46.7237      46.7237 
  243000    93.167962   -11335.981   -10447.568   -520.82748     102002.7      46.7237      46.7237      46.7237 
  244000    90.018459   -11356.381   -10497.999    -452.5927     102002.7      46.7237      46.7237      46.7237 
  245000     90.56098   -11363.204    -10499.65   -617.91195     102002.7      46.7237      46.7237      46.7237 
  246000    92.121759   -11365.592   -10487.155    -571.4683     102002.7      46.7237      46.7237      46.7237 
  247000    93.318862   -11349.595   -10459.742   -533.51119     102002.7      46.7237      46.7237      46.7237 
  248000    89.359441   -11339.629   -10487.532   -497.57924     102002.7      46.7237      46.7237      46.7237 
  249000    91.061815   -11350.727   -10482.397   -491.56867     102002.7      46.7237      46.7237      46.7237 
  250000    88.966947   -11352.026   -10503.672   -374.29293     102002.7      46.7237      46.7237      46.7237 
  251000    92.880471   -11341.667   -10455.995    -400.9343     102002.7      46.7237      46.7237      46.7237 
  252000      90.6842   -11336.508   -10471.779    -340.4636     102002.7      46.7237      46.7237      46.7237 
  253000    89.579205   -11360.213   -10506.021   -569.95397     102002.7      46.7237      46.7237      46.7237 
  254000    91.485158    -11366.63   -10494.263   -654.32164     102002.7      46.7237      46.7237      46.7237 
  255000    92.778867   -11329.747   -10445.044   -456.33032     102002.7      46.7237      46.7237      46.7237 
  256000     91.45547   -11354.427   -10482.343   -530.60483     102002.7      46.7237      46.7237      46.7237 
  257000    91.121104    -11339.92   -10471.024   -199.29807     102002.7      46.7237      46.7237      46.7237 
  258000    91.748611   -11353.418   -10478.539   -527.09437     102002.7      46.7237      46.7237      46.7237 
  259000     89.26441    -11362.71   -10511.519   -521.24216     102002.7      46.7237      46.7237      46.7237 
  260000    91.499558   -11362.876   -10490.372   -419.26765     102002.7      46.7237      46.7237      46.7237 
  261000    92.446492   -11349.204    -10467.67   -490.10446     102002.7      46.7237      46.7237      46.7237 
  262000    91.795292   -11343.914   -10468.589   -726.67794     102002.7      46.7237      46.7237      46.7237 
  263000    92.235832   -11349.648   -10470.123   -382.21855     102002.7      46.7237      46.7237      46.7237 
  264000    91.709314   -11369.742   -10495.238   -425.23864     102002.7      46.7237      46.7237      46.7237 
  265000    92.429071     -11357.4   -10476.032   -787.11778     102002.7      46.7237      46.7237      46.7237 
  266000    90.924096   -11366.643   -10499.626   -846.08419     102002.7      46.7237      46.7237      46.7237 
  267000    92.426546   -11319.735   -10438.392   -593.98691     102002.7      46.7237      46.7237      46.7237 
  268000    91.094473   -11370.546   -10501.905   -752.18747     102002.7      46.7237      46.7237      46.7237 
  269000    93.160642   -11355.429   -10467.085   -781.69657     102002.7      46.7237      46.7237      46.7237 
  270000    89.739151    -11351.37   -10495.652   -901.15945     102002.7      46.7237      46.7237      46.7237 
  271000    90.740454   -11339.425   -10474.159   -743.14536     102002.7      46.7237      46.7237      46.7237 
  272000    90.549503   -11354.758   -10491.313    -401.2481     102002.7      46.7237      46.7237      46.7237 
  273000     90.70702   -11358.391   -10493.444   -488.24491     102002.7      46.7237      46.7237      46.7237 
  274000    89.504085    -11357.08   -10503.603   -429.81351     102002.7      46.7237      46.7237      46.7237 
  275000    92.248511   -11375.592   -10495.946   -472.50027     102002.7      46.7237      46.7237      46.7237 
  276000    93.053171    -11340.68   -10453.361   -365.94758     102002.7      46.7237      46.7237      46.7237 
  277000    90.645979   -11338.026   -10473.661   -384.79266     102002.7      46.7237      46.7237      46.7237 
  278000    91.903515   -11362.698   -10486.342   -604.30631     102002.7      46.7237      46.7237      46.7237 
  279000    92.392228   -11340.788   -10459.772   -365.53322     102002.7      46.7237      46.7237      46.7237 
  280000    90.647611   -11359.139   -10494.759   -457.78762     102002.7      46.7237      46.7237      46.7237 
  281000    88.989926   -11345.525   -10496.952   -789.88975     102002.7      46.7237      46.7237      46.7237 
  282000    92.603829   -11370.296   -10487.261   -455.19285     102002.7      46.7237      46.7237      46.7237 
  283000    91.759699   -11353.192   -10478.207    -486.5768     102002.7      46.7237      46.7237      46.7237 
  284000    88.464094   -11365.581   -10522.022   -592.00122     102002.7      46.7237      46.7237      46.7237 
  285000    90.278425   -11362.281   -10501.421   -392.18073     102002.7      46.7237      46.7237      46.7237 
  286000    89.077642   -11343.455   -10494.045   -541.84478     102002.7      46.7237      46.7237      46.7237 
  287000    91.534574    -11369.42   -10496.582   -566.55907     102002.7      46.7237      46.7237      46.7237 
  288000    91.700092   -11370.344   -10495.928   -409.41634     102002.7      46.7237      46.7237      46.7237 
  289000     90.99895   -11370.706   -10502.976   -691.32941     102002.7      46.7237      46.7237      46.7237 
  290000    92.374837   -11345.092   -10464.241   -544.38444     102002.7      46.7237      46.7237      46.7237 
  291000    90.752485   -11356.113   -10490.733    -485.5779     102002.7      46.7237      46.7237      46.7237 
  292000    92.681119   -11356.511    -10472.74   -443.30671     102002.7      46.7237      46.7237      46.7237 
  293000    90.348264   -11358.561   -10497.035   -576.29752     102002.7      46.7237      46.7237      46.7237 
  294000    90.436743   -11361.611   -10499.241   -552.31677     102002.7      46.7237      46.7237      46.7237 
  295000    90.536307   -11369.825   -10506.506   -387.46558     102002.7      46.7237      46.7237      46.7237 
  296000    91.003739   -11364.912   -10497.136   -437.33538     102002.7      46.7237      46.7237      46.7237 
  297000    92.839948    -11358.52   -10473.234   -467.47633     102002.7      46.7237      46.7237      46.7237 
  298000    92.064523   -11366.956   -10489.065   -578.95003     102002.7      46.7237      46.7237      46.7237 
  299000     90.15347    -11358.81   -10499.141   -815.98926     102002.7      46.7237      46.7237      46.7237 
  300000     89.71736   -11346.202   -10490.692   -662.54747     102002.7      46.7237      46.7237      46.7237 
  301000    91.478165   -11358.048   -10485.748   -643.67884     102002.7      46.7237      46.7237      46.7237 
  302000    88.539158   -11362.518   -10518.243   -563.21943     102002.7      46.7237      46.7237      46.7237 
  303000     90.24427   -11368.588   -10508.054   -532.19956     102002.7      46.7237      46.7237      46.7237 
  304000     92.28083   -11344.852   -10464.898   -538.43475     102002.7      46.7237      46.7237      46.7237 
  305000    91.537478   -11373.634   -10500.768   -454.99038     102002.7      46.7237      46.7237      46.7237 
  306000    92.558999   -11383.821   -10501.214   -678.10779     102002.7      46.7237      46.7237      46.7237 
  307000    89.028727   -11347.982   -10499.039   -779.00705     102002.7      46.7237      46.7237      46.7237 
  308000    90.887217   -11355.602   -10488.937   -453.00774     102002.7      46.7237      46.7237      46.7237 
  309000     91.23621   -11352.628   -10482.635   -432.15449     102002.7      46.7237      46.7237      46.7237 
  310000    91.248573   -11373.551    -10503.44   -647.53858     102002.7      46.7237      46.7237      46.7237 
  311000    89.405171   -11365.503    -10512.97   -501.69681     102002.7      46.7237      46.7237      46.7237 
  312000    93.172289   -11355.591   -10467.136   -647.12531     102002.7      46.7237      46.7237      46.7237 
  313000    91.465811   -11364.765   -10492.583   -630.77267     102002.7      46.7237      46.7237      46.7237 
  314000    90.601517   -11346.079   -10482.138   -731.80756     102002.7      46.7237      46.7237      46.7237 
  315000    90.323266    -11349.14   -10487.852   -567.75905     102002.7      46.7237      46.7237      46.7237 
  316000    91.884738   -11346.193   -10470.016   -453.61915     102002.7      46.7237      46.7237      46.7237 
  317000    92.937601   -11371.866   -10485.649   -480.80376     102002.7      46.7237      46.7237      46.7237 
  318000    93.595199   -11359.412   -10466.924   -350.24159     102002.7      46.7237      46.7237      46.7237 
  319000     89.70524   -11356.958   -10501.563   -551.14711     102002.7      46.7237      46.7237      46.7237 
  320000    89.848808   -11356.864   -10500.101   -745.69807     102002.7      46.7237      46.7237      46.7237 
  321000    90.082304   -11350.732   -10491.742   -750.31911     102002.7      46.7237      46.7237      46.7237 
  322000    91.672172   -11338.644   -10464.494   -556.20773     102002.7      46.7237      46.7237      46.7237 
  323000    91.733806   -11332.035   -10457.297   -538.76247     102002.7      46.7237      46.7237      46.7237 
  324000    90.463425   -11381.385   -10518.761   -510.55838     102002.7      46.7237      46.7237      46.7237 
  325000    91.167711   -11336.284   -10466.944   -390.99661     102002.7      46.7237      46.7237      46.7237 
  326000    92.670262    -11366.58   -10482.913   -380.44541     102002.7      46.7237      46.7237      46.7237 
  327000    91.114135   -11375.879    -10507.05   -654.58393     102002.7      46.7237      46.7237      46.7237 
  328000    91.445099    -11350.85   -10478.865   -387.93188     102002.7      46.7237      46.7237      46.7237 
  329000    92.079189   -11344.629   -10466.598   -628.46252     102002.7      46.7237      46.7237      46.7237 
  330000    90.968204   -11371.555   -10504.117   -876.49498     102002.7      46.7237      46.7237      46.7237 
  331000    91.066282    -11373.74   -10505.367    -416.1238     102002.7      46.7237      46.7237      46.7237 
  332000    92.338523   -11343.963   -10463.458    -491.2286     102002.7      46.7237      46.7237      46.7237 
  333000    93.937224   -11380.617   -10484.868   -579.38324     102002.7      46.7237      46.7237      46.7237 
  334000    92.397106    -11343.65   -10462.588   -623.58187     102002.7      46.7237      46.7237      46.7237 
  335000    91.210191   -11351.097   -10481.352   -562.68835     102002.7      46.7237      46.7237      46.7237 
  336000    87.931019   -11347.402   -10508.926   -579.10301     102002.7      46.7237      46.7237      46.7237 
  337000    90.308045   -11353.141   -10491.999    -453.7851     102002.7      46.7237      46.7237      46.7237 
  338000    89.974622   -11362.452   -10504.489   -381.30421     102002.7      46.7237      46.7237      46.7237 
  339000    89.983624   -11330.848   -10472.799   -196.89435     102002.7      46.7237      46.7237      46.7237 
  340000     89.95147   -11319.353   -10461.611   -454.04306     102002.7      46.7237      46.7237      46.7237 
  341000    91.758548   -11368.968   -10493.994   -279.01366     102002.7      46.7237      46.7237      46.7237 
  342000    90.011862   -11327.466   -10469.148    -707.5891     102002.7      46.7237      46.7237      46.7237 
  343000    91.202091   -11344.219   -10474.551   -506.49725     102002.7      46.7237      46.7237      46.7237 
  344000    90.435374   -11362.162   -10499.806   -798.64683     102002.7      46.7237      46.7237      46.7237 
  345000    90.907222   -11334.549   -10467.693   -723.94156     102002.7      46.7237      46.7237      46.7237 
  346000    90.025829   -11359.729   -10501.277   -521.43995     102002.7      46.7237      46.7237      46.7237 
  347000    92.562701   -11373.135   -10490.493   -542.81012     102002.7      46.7237      46.7237      46.7237 
  348000    87.489103   -11377.154   -10542.892   -771.78078     102002.7      46.7237      46.7237      46.7237 
  349000    90.478782   -11360.071   -10497.301   -502.76325     102002.7      46.7237      46.7237      46.7237 
  350000    89.215394   -11364.003    -10513.28   -613.04873     102002.7      46.7237      46.7237      46.7237 
  351000    91.851749   -11348.668   -10472.805   -465.93947     102002.7      46.7237      46.7237      46.7237 
  352000      92.8522   -11349.963    -10464.56   -449.00394     102002.7      46.7237      46.7237      46.7237 
  353000    90.190079   -11354.467    -10494.45   -245.36913     102002.7      46.7237      46.7237      46.7237 
  354000    93.527939   -11385.016    -10493.17   -621.08655     102002.7      46.7237      46.7237      46.7237 
  355000      91.2344   -11344.306    -10474.33   -547.06741     102002.7      46.7237      46.7237      46.7237 
  356000    91.848496   -11365.473   -10489.641   -546.84997     102002.7      46.7237      46.7237      46.7237 
  357000    91.826664   -11352.573   -10476.949   -599.25791     102002.7      46.7237      46.7237      46.7237 
  358000    90.241632   -11338.922   -10478.413   -730.04761     102002.7      46.7237      46.7237      46.7237 
  359000    90.477899   -11323.341   -10460.579   -554.08926     102002.7      46.7237      46.7237      46.7237 
  360000    89.286892   -11351.311   -10499.906   -576.89485     102002.7      46.7237      46.7237      46.7237 
  361000    93.638419   -11363.501   -10470.601    -437.1499     102002.7      46.7237      46.7237      46.7237 
  362000    90.345591   -11343.357   -10481.857   -259.12882     102002.7      46.7237      46.7237      46.7237 
  363000    91.577387   -11355.442   -10482.195   -419.17831     102002.7      46.7237      46.7237      46.7237 
  364000    88.500079   -11357.498   -10513.596   -296.98806     102002.7      46.7237      46.7237      46.7237 
  365000    89.473922   -11340.463   -10487.275   -365.63356     102002.7      46.7237      46.7237      46.7237 
  366000    90.805283   -11349.222   -10483.339   -819.12444     102002.7      46.7237      46.7237      46.7237 
  367000    91.374565   -11344.614   -10473.302   -587.43781     102002.7      46.7237      46.7237      46.7237 
  368000    90.850354   -11375.694    -10509.38   -730.54378     102002.7      46.7237      46.7237      46.7237 
  369000    90.209692   -11346.576   -10486.372   -504.87456     102002.7      46.7237      46.7237      46.7237 
  370000    91.491725   -11372.389   -10499.959   -489.79165     102002.7      46.7237      46.7237      46.7237 
  371000    89.825517   -11369.694   -10513.153    -819.4843     102002.7      46.7237      46.7237      46.7237 
  372000    90.946943   -11355.916   -10488.681   -593.59422     102002.7      46.7237      46.7237      46.7237 
  373000    91.408758   -11344.881   -10473.243   -428.21169     102002.7      46.7237      46.7237      46.7237 
  374000     91.01844   -11369.858   -10501.941   -483.48217     102002.7      46.7237      46.7237      46.7237 
  375000     90.26604   -11335.824   -10475.082    -229.0952     102002.7      46.7237      46.7237      46.7237 
  376000    91.286302   -11343.391    -10472.92   -613.99026     102002.7      46.7237      46.7237      46.7237 
  377000    90.741808    -11351.18   -10485.901   -601.14794     102002.7      46.7237      46.7237      46.7237 
  378000    90.403418   -11353.568   -10491.516   -568.02822     102002.7      46.7237      46.7237      46.7237 
  379000    91.320217   -11350.834    -10480.04   -615.21408     102002.7      46.7237      46.7237      46.7237 
  380000    90.974664   -11371.775   -10504.275   -604.02614     102002.7      46.7237      46.7237      46.7237 
  381000    91.458477   -11379.508   -10507.395   -602.94697     102002.7      46.7237      46.7237      46.7237 
  382000    90.225115     -11349.2   -10488.848   -486.09737     102002.7      46.7237      46.7237      46.7237 
  383000    89.715337   -11370.147   -10514.656    -282.8722     102002.7      46.7237      46.7237      46.7237 
  384000    91.078455   -11346.532   -10478.043   -593.22912     102002.7      46.7237      46.7237      46.7237 
  385000    88.743705   -11366.168   -10519.943   -389.16306     102002.7      46.7237      46.7237      46.7237 
  386000    89.699004   -11358.281   -10502.946   -576.11557     102002.7      46.7237      46.7237      46.7237 
  387000    91.229339   -11379.708    -10509.78   -489.76904     102002.7      46.7237      46.7237      46.7237 
  388000    92.331058   -11332.892   -10452.459   -366.01757     102002.7      46.7237      46.7237      46.7237 
  389000    89.573166   -11360.093   -10505.958   -592.89545     102002.7      46.7237      46.7237      46.7237 
  390000    92.457158   -11362.554   -10480.919   -746.93351     102002.7      46.7237      46.7237      46.7237 
  391000    91.353558   -11366.222    -10495.11   -382.40586     102002.7      46.7237      46.7237      46.7237 
  392000    90.622354   -11351.287   -10487.147     -730.307     102002.7      46.7237      46.7237      46.7237 
  393000    91.279305   -11373.234    -10502.83   -736.67019     102002.7      46.7237      46.7237      46.7237 
  394000    87.850818   -11374.821   -10537.109   -705.29744     102002.7      46.7237      46.7237      46.7237 
  395000    91.462726   -11349.251   -10477.098   -894.64435     102002.7      46.7237      46.7237      46.7237 
  396000    89.645877   -11361.577   -10506.749   -681.83135     102002.7      46.7237      46.7237      46.7237 
  397000    89.904454   -11363.226   -10505.932   -519.25524     102002.7      46.7237      46.7237      46.7237 
  398000    93.257823   -11343.041    -10453.77   -688.32315     102002.7      46.7237      46.7237      46.7237 
  399000    93.309964   -11364.314   -10474.547   -311.43436     102002.7      46.7237      46.7237      46.7237 
  400000    90.329165   -11354.365   -10493.021   -374.86119     102002.7      46.7237      46.7237      46.7237 
  401000    88.822953   -11352.002   -10505.021   -437.27011     102002.7      46.7237      46.7237      46.7237 
  402000    92.304159   -11357.585   -10477.408   -429.37495     102002.7      46.7237      46.7237      46.7237 
  403000    89.969871   -11369.634   -10511.716   -656.34296     102002.7      46.7237      46.7237      46.7237 
  404000    92.228278   -11342.113    -10462.66   -664.77048     102002.7      46.7237      46.7237      46.7237 
  405000    90.253349   -11351.075   -10490.454    -558.0617     102002.7      46.7237      46.7237      46.7237 
  406000    92.276581   -11363.195   -10483.282   -763.21903     102002.7      46.7237      46.7237      46.7237 
  407000     90.19576   -11354.681    -10494.61   -480.24967     102002.7      46.7237      46.7237      46.7237 
  408000    91.525349   -11345.347   -10472.597    -757.8176     102002.7      46.7237      46.7237      46.7237 
  409000    92.758615   -11341.071   -10456.561   -535.14458     102002.7      46.7237      46.7237      46.7237 
  410000    89.919128   -11360.706   -10503.272   -549.02756     102002.7      46.7237      46.7237      46.7237 
  411000    91.997451   -11360.774   -10483.522   -702.64804     102002.7      46.7237      46.7237      46.7237 
  412000    91.673201   -11362.038   -10487.878   -671.79819     102002.7      46.7237      46.7237      46.7237 
  413000    90.538051   -11386.078   -10522.742   -725.53239     102002.7      46.7237      46.7237      46.7237 
  414000    92.232269   -11349.661   -10470.169   -551.23732     102002.7      46.7237      46.7237      46.7237 
  415000    91.538678   -11345.078   -10472.201   -750.68876     102002.7      46.7237      46.7237      46.7237 
  416000    88.718508   -11334.268   -10488.283   -658.06649     102002.7      46.7237      46.7237      46.7237 
  417000     92.79071   -11345.773   -10460.957   -432.01557     102002.7      46.7237      46.7237      46.7237 
  418000    90.440529    -11354.78   -10492.374   -549.89958     102002.7      46.7237      46.7237      46.7237 
  419000    92.551087   -11354.427   -10471.896   -895.91902     102002.7      46.7237      46.7237      46.7237 
  420000    91.213506   -11370.206   -10500.429   -655.28149     102002.7      46.7237      46.7237      46.7237 
  421000    90.911767   -11363.294   -10496.394   -831.80149     102002.7      46.7237      46.7237      46.7237 
  422000    90.185838   -11371.263   -10511.285   -941.57519     102002.7      46.7237      46.7237      46.7237 
  423000    91.993458   -11348.753   -10471.539   -543.41838     102002.7      46.7237      46.7237      46.7237 
  424000     88.77994   -11336.806   -10490.235   -836.40417     102002.7      46.7237      46.7237      46.7237 
  425000    92.213856   -11353.433   -10474.118   -907.23448     102002.7      46.7237      46.7237      46.7237 
  426000    92.583325   -11355.961   -10473.122   -801.20763     102002.7      46.7237      46.7237      46.7237 
  427000    90.669308   -11372.781   -10508.194   -776.21236     102002.7      46.7237      46.7237      46.7237 
  428000    88.987487   -11340.884   -10492.334   -415.79751     102002.7      46.7237      46.7237      46.7237 
  429000    89.677783   -11380.347   -10525.214   -876.64336     102002.7      46.7237      46.7237      46.7237 
  430000    92.404051   -11354.662   -10473.533   -893.32601     102002.7      46.7237      46.7237      46.7237 
  431000    90.638341   -11358.515   -10494.223   -571.89803     102002.7      46.7237      46.7237      46.7237 
  432000    93.131797   -11348.153   -10460.084   -783.43359     102002.7      46.7237      46.7237      46.7237 
  433000    90.414085   -11368.032   -10505.878   -543.91673     102002.7      46.7237      46.7237      46.7237 
  434000    91.086374   -11363.955   -10495.391   -577.55004     102002.7      46.7237      46.7237      46.7237 
  435000    89.946749   -11356.162   -10498.464     -467.597     102002.7      46.7237      46.7237      46.7237 
  436000    88.342308   -11351.093   -10508.695   -494.72192     102002.7      46.7237      46.7237      46.7237 
  437000    88.478377   -11352.584   -10508.889   -679.45161     102002.7      46.7237      46.7237      46.7237 
  438000    90.723498   -11371.347   -10506.243   -478.83687     102002.7      46.7237      46.7237      46.7237 
  439000    88.668748   -11361.919   -10516.409   -669.40608     102002.7      46.7237      46.7237      46.7237 
  440000    90.485548   -11359.583   -10496.748   -555.39368     102002.7      46.7237      46.7237      46.7237 
  441000      89.6393   -11358.457   -10503.691    -499.9421     102002.7      46.7237      46.7237      46.7237 
  442000    90.604763   -11363.871   -10499.899   -497.38327     102002.7      46.7237      46.7237      46.7237 
  443000    89.427623   -11366.382   -10513.635   -680.70127     102002.7      46.7237      46.7237      46.7237 
  444000    90.273102    -11354.56    -10493.75   -708.71446     102002.7      46.7237      46.7237      46.7237 
  445000    92.725763    -11356.37   -10472.173   -765.15893     102002.7      46.7237      46.7237      46.7237 
  446000    93.471806   -11349.666   -10458.355   -504.33302     102002.7      46.7237      46.7237      46.7237 
  447000    89.436143   -11343.734   -10490.906   -537.28146     102002.7      46.7237      46.7237      46.7237 
  448000    91.119556   -11373.947   -10505.066   -462.99489     102002.7      46.7237      46.7237      46.7237 
  449000    91.872755   -11348.219   -10472.156   -401.59907     102002.7      46.7237      46.7237      46.7237 
  450000    89.172748   -11366.415   -10516.098   -570.66165     102002.7      46.7237      46.7237      46.7237 
  451000    92.810806   -11370.773   -10485.766   -293.30945     102002.7      46.7237      46.7237      46.7237 
  452000     91.92315   -11392.137   -10515.594   -530.29022     102002.7      46.7237      46.7237      46.7237 
  453000    91.193164   -11368.748   -10499.165   -621.84323     102002.7      46.7237      46.7237      46.7237 
  454000    91.209768   -11380.527   -10510.786   -837.84608     102002.7      46.7237      46.7237      46.7237 
  455000    91.126096   -11338.114   -10469.171   -768.96492     102002.7      46.7237      46.7237      46.7237 
  456000    91.698733   -11368.476   -10494.072   -709.18637     102002.7      46.7237      46.7237      46.7237 
  457000    91.407367   -11367.436   -10495.811   -708.10469     102002.7      46.7237      46.7237      46.7237 
  458000    91.945061   -11337.484   -10460.732   -598.03114     102002.7      46.7237      46.7237      46.7237 
  459000     89.60329   -11365.719   -10511.296   -472.96418     102002.7      46.7237      46.7237      46.7237 
  460000    91.145976   -11350.445   -10481.313   -546.51211     102002.7      46.7237      46.7237      46.7237 
  461000     91.15367   -11378.934   -10509.728   -642.58028     102002.7      46.7237      46.7237      46.7237 
  462000    94.314131   -11342.247   -10442.904    -665.6418     102002.7      46.7237      46.7237      46.7237 
  463000    91.460262   -11362.855   -10490.725   -839.27277     102002.7      46.7237      46.7237      46.7237 
  464000    91.588404   -11366.302   -10492.951   -709.66933     102002.7      46.7237      46.7237      46.7237 
  465000    92.624432   -11366.884   -10483.654   -619.57247     102002.7      46.7237      46.7237      46.7237 
  466000    92.008365   -11369.193   -10491.837   -681.14104     102002.7      46.7237      46.7237      46.7237 
  467000     88.10155    -11367.07   -10526.968   -915.38701     102002.7      46.7237      46.7237      46.7237 
  468000    92.594087   -11369.183   -10486.242   -781.59699     102002.7      46.7237      46.7237      46.7237 
  469000    90.345945   -11358.505   -10497.001   -534.09573     102002.7      46.7237      46.7237      46.7237 
  470000    94.629822   -11364.659   -10462.306   -508.57066     102002.7      46.7237      46.7237      46.7237 
  471000    88.726996   -11363.104   -10517.038   -834.32082     102002.7      46.7237      46.7237      46.7237 
  472000    90.320387    -11356.75    -10495.49   -851.22166     102002.7      46.7237      46.7237      46.7237 
  473000     90.14358   -11376.146   -10516.572   -1050.1675     102002.7      46.7237      46.7237      46.7237 
  474000    90.787012   -11349.777   -10484.068    -856.6015     102002.7      46.7237      46.7237      46.7237 
  475000    90.877175   -11379.344   -10512.775   -618.52237     102002.7      46.7237      46.7237      46.7237 
  476000    91.508765    -11359.33   -10486.738    -433.1002     102002.7      46.7237      46.7237      46.7237 
  477000    91.692627   -11363.911   -10489.565   -463.05553     102002.7      46.7237      46.7237      46.7237 
  478000    89.720796   -11358.636   -10503.094   -566.91383     102002.7      46.7237      46.7237      46.7237 
  479000    90.098137   -11362.945   -10503.804   -604.76654     102002.7      46.7237      46.7237      46.7237 
  480000    90.707431   -11353.754   -10488.803    -825.0464     102002.7      46.7237      46.7237      46.7237 
  481000     92.35671   -11364.837   -10484.159   -758.73236     102002.7      46.7237      46.7237      46.7237 
  482000    91.425379   -11355.204   -10483.407   -462.61929     102002.7      46.7237      46.7237      46.7237 
  483000    91.524373   -11348.524   -10475.783   -695.20832     102002.7      46.7237      46.7237      46.7237 
  484000    90.456884   -11355.822    -10493.26   -734.04023     102002.7      46.7237      46.7237      46.7237 
  485000    92.321576     -11357.9   -10477.557   -726.65065     102002.7      46.7237      46.7237      46.7237 
  486000    91.935003   -11359.893   -10483.236   -581.38539     102002.7      46.7237      46.7237      46.7237 
  487000    90.556697   -11334.286   -10470.772   -515.30439     102002.7      46.7237      46.7237      46.7237 
  488000    90.267085   -11347.254   -10486.502   -647.58508     102002.7      46.7237      46.7237      46.7237 
  489000    90.543376   -11334.683   -10471.297   -520.15565     102002.7      46.7237      46.7237      46.7237 
  490000    91.064396   -11368.753   -10500.399   -698.77692     102002.7      46.7237      46.7237      46.7237 
  491000    91.543899   -11340.669   -10467.742   -700.31867     102002.7      46.7237      46.7237      46.7237 
  492000    90.651715   -11342.976   -10478.557   -694.56703     102002.7      46.7237      46.7237      46.7237 
  493000    92.929574    -11345.41    -10459.27   -278.11048     102002.7      46.7237      46.7237      46.7237 
  494000    91.358187   -11336.737   -10465.581   -405.58154     102002.7      46.7237      46.7237      46.7237 
  495000    89.753128    -11377.26   -10521.409    -629.2959     102002.7      46.7237      46.7237      46.7237 
  496000    89.610965   -11339.713   -10485.218   -471.72074     102002.7      46.7237      46.7237      46.7237 
  497000    90.993558   -11355.626   -10487.947   -404.88618     102002.7      46.7237      46.7237      46.7237 
  498000    89.264947   -11333.944   -10482.748   -518.98765     102002.7      46.7237      46.7237      46.7237 
  499000    91.098602   -11337.503   -10468.822   -450.07711     102002.7      46.7237      46.7237      46.7237 
  500000    91.073789   -11353.675   -10485.231   -734.44485     102002.7      46.7237      46.7237      46.7237 
  500500    88.896796   -11339.963   -10492.278    -404.9293     102002.7      46.7237      46.7237      46.7237 
Loop time of 1915.63 on 16 procs for 500000 steps with 3200 atoms

Performance: 22.551 ns/day, 1.064 hours/ns, 261.011 timesteps/s
99.8% CPU use with 16 MPI tasks x no OpenMP threads

MPI task timing breakdown:
Section |  min time  |  avg time  |  max time  |%varavg| %total
---------------------------------------------------------------
Pair    | 844        | 1162.4     | 1481.5     | 570.4 | 60.68
Bond    | 137.1      | 174.75     | 212.64     | 158.1 |  9.12
Neigh   | 14.663     | 14.715     | 14.781     |   1.1 |  0.77
Comm    | 195.83     | 546.15     | 903.97     | 907.6 | 28.51
Output  | 0.02133    | 0.022066   | 0.025241   |   0.6 |  0.00
Modify  | 8.6742     | 10.704     | 12.834     |  45.2 |  0.56
Other   |            | 6.904      |            |       |  0.36

Nlocal:    200 ave 230 max 180 min
Histogram: 2 3 1 2 2 3 0 2 0 1
Nghost:    4046.69 ave 4073 max 3995 min
Histogram: 1 0 0 1 1 3 2 3 4 1
Neighs:    11451.4 ave 17909 max 7381 min
Histogram: 1 4 2 2 1 3 1 1 0 1

Total # of neighbors = 183222
Ave neighs/atom = 57.2569
Ave special neighs/atom = 3.6
Neighbor list builds = 4185
Dangerous builds = 0
Neighbor list info ...
  update every 1 steps, delay 10 steps, check yes
  max neighbors/atom: 2000, page size: 100000
  master list distance cutoff = 16
  ghost atom cutoff = 16
  binsize = 8, bins = 6 6 6
  3 neighbor lists, perpetual/occasional/extra = 3 0 0
  (1) pair buck6d/coul/gauss/dsf, perpetual, skip from (3)
      attributes: half, newton on
      pair build: skip
      stencil: none
      bin: none
  (2) pair lj/cut, perpetual, skip from (3)
      attributes: half, newton on
      pair build: skip
      stencil: none
      bin: none
  (3) neighbor class addition, perpetual
      attributes: half, newton on
      pair build: half/bin/newton
      stencil: half/bin/3d/newton
      bin: standard
Setting up Verlet run ...
  Unit style    : real
  Current step  : 500500
  Time step     : 1
WARNING: Inconsistent image flags (../domain.cpp:786)
Per MPI rank memory allocation (min/avg/max) = 22.79 | 23.26 | 23.44 Mbytes
Step Time TotEng KinEng PotEng E_mol E_pair Temp Pxx Pyy Pzz Pxy Pxz Pyz Cella Cellb Cellc CellAlpha CellBeta CellGamma Volume Press 
  500500       500000   -10492.278     847.6853   -11339.963    4201.7586   -15541.721    88.896796    66.374248   -607.18357   -673.97858   -104.66385   -33.497146    70.190571      46.7237      46.7237      46.7237           90           90           90     102002.7    -404.9293 
  501000       500500   -10490.938    869.83174    -11360.77    4194.6108   -15555.381    91.219295   -628.36107   -902.30809   -982.40707    53.400894   -25.141684    59.535845      46.7237      46.7237      46.7237           90           90           90     102002.7   -837.69208 
  502000       501500   -10473.172    887.22917   -11360.401    4202.0066   -15562.408    93.043764   -172.53151   -276.35657   -933.55274   -174.33815    219.68789    227.59469      46.7237      46.7237      46.7237           90           90           90     102002.7   -460.81361 
  503000       502500   -10502.704    857.88897   -11360.593     4202.315   -15562.908    89.966856   -853.58852   -1184.9693   -929.95262   -137.20898   -199.90785    94.294829      46.7237      46.7237      46.7237           90           90           90     102002.7   -989.50348 
  504000       503500   -10481.554    871.18442   -11352.739     4188.188   -15540.927     91.36115    -882.6753   -883.77119   -906.70134   -130.13748    -41.56016     41.59403      46.7237      46.7237      46.7237           90           90           90     102002.7   -891.04927 
  505000       504500   -10498.175    857.30522    -11355.48    4200.9246   -15556.405    89.905638   -1096.7928   -669.76358   -633.74749   -22.709067    149.84187   -36.010362      46.7237      46.7237      46.7237           90           90           90     102002.7    -800.1013 
  506000       505500   -10480.925    868.61928   -11349.544     4200.649   -15550.193    91.092144   -142.11456   -151.85506   -928.01213    138.06804   -44.535858    59.117426      46.7237      46.7237      46.7237           90           90           90     102002.7   -407.32725 
  507000       506500   -10504.509    852.02376   -11356.533     4206.082   -15562.615    89.351771   -822.08625   -766.94304   -473.06645    -23.43127   -175.08411    249.80697      46.7237      46.7237      46.7237           90           90           90     102002.7   -687.36524 
  508000       507500   -10505.624    873.33784   -11378.961    4174.1388     -15553.1     91.58698   -538.20533    -477.4455   -509.65356   -174.64892    133.97248    101.79489      46.7237      46.7237      46.7237           90           90           90     102002.7    -508.4348 
  509000       508500   -10492.518    877.38535   -11369.903    4181.3598   -15551.263    92.011442   -791.98182   -566.64339    -150.0035    279.07102   -152.73983    25.971142      46.7237      46.7237      46.7237           90           90           90     102002.7   -502.87624 
  510000       509500   -10503.886    857.41169   -11361.297    4187.0403   -15548.338    89.916803   -594.45167   -480.07722   -376.24399    119.24376   -168.62917    71.806836      46.7237      46.7237      46.7237           90           90           90     102002.7   -483.59096 
  511000       510500   -10483.907    868.44191   -11352.349    4181.3262   -15533.675    91.073543   -610.34341   -888.24927   -657.75676   -26.064679    250.94108    45.763345      46.7237      46.7237      46.7237           90           90           90     102002.7   -718.78315 
  512000       511500   -10478.986    869.73178   -11348.718    4194.2673   -15542.985    91.208811    -895.1581   -745.21018     -620.936   -57.811358   -173.04151     119.7649      46.7237      46.7237      46.7237           90           90           90     102002.7   -753.76809 
  513000       512500   -10455.266    897.84382   -11353.109    4218.2938   -15571.403    94.156923   -526.36201   -477.36164   -787.50317   -37.190019    36.323517    93.365467      46.7237      46.7237      46.7237           90           90           90     102002.7   -597.07561 
  514000       513500   -10484.697    865.06894   -11349.766    4190.9741    -15540.74     90.71982   -426.14731    -1005.685   -648.93797    39.896431   -55.200232   -48.763034      46.7237      46.7237      46.7237           90           90           90     102002.7    -693.5901 
  515000       514500   -10493.973    861.55025   -11355.523     4180.479   -15536.002    90.350815   -784.84927   -732.66155   -748.95989   -36.003182   -132.52611   -21.026993      46.7237      46.7237      46.7237           90           90           90     102002.7   -755.49024 
  516000       515500   -10456.913    889.78872   -11346.702    4191.8788   -15538.581    93.312184   -479.14882   -777.67723   -512.07815   -34.607462   -61.727877   -7.3695263      46.7237      46.7237      46.7237           90           90           90     102002.7   -589.63473 
  517000       516500   -10459.824    873.61586    -11333.44    4187.0736   -15520.514    91.616135   -1093.5406   -879.08749   -327.08775    151.50116    211.36853   -178.46103      46.7237      46.7237      46.7237           90           90           90     102002.7   -766.57194 
  518000       517500   -10498.329    856.56538   -11354.894    4222.6494   -15577.543    89.828051   -794.82058    -1095.242   -904.71334    141.28683    81.953148   -128.70255      46.7237      46.7237      46.7237           90           90           90     102002.7   -931.59196 
  519000       518500   -10468.917    876.30185   -11345.219    4207.5398   -15552.759    91.897816   -752.59573   -714.76017   -475.12717   -22.220499   -9.6104979    197.29531      46.7237      46.7237      46.7237           90           90           90     102002.7   -647.49436 
  520000       519500   -10484.836    858.02019   -11342.857    4199.4729   -15542.329    89.980616    -277.2703   -789.14548   -186.99716    66.098417   -183.14088    113.13815      46.7237      46.7237      46.7237           90           90           90     102002.7   -417.80431 
  521000       520500   -10482.456    869.29451   -11351.751    4171.2252   -15522.976    91.162955   -471.91419   -700.47226     -585.012   -83.556047   -6.9268507   -42.495761      46.7237      46.7237      46.7237           90           90           90     102002.7   -585.79949 
  522000       521500   -10528.179    841.25271   -11369.432    4190.4761   -15559.908    88.222211   -811.43165   -1417.3926   -1086.5958   -537.93863   -77.633871    7.2422439      46.7237      46.7237      46.7237           90           90           90     102002.7     -1105.14 
  523000       522500   -10454.225     891.2644    -11345.49    4201.3676   -15546.857    93.466939   -682.20744   -641.91295   -554.96511   -133.82074    16.881975   -146.63349      46.7237      46.7237      46.7237           90           90           90     102002.7   -626.36183 
  524000       523500   -10485.581    880.35306   -11365.934    4203.6021   -15569.536    92.322666   -768.71869   -679.16562   -959.89141   -103.66335    66.300445    44.083841      46.7237      46.7237      46.7237           90           90           90     102002.7   -802.59191 
  525000       524500   -10488.937    863.79021   -11352.727    4188.2906   -15541.018    90.585719   -564.97855   -576.10423   -360.03629    141.01548   -187.21271    327.39967      46.7237      46.7237      46.7237           90           90           90     102002.7   -500.37302 
  526000       525500   -10509.047    861.88817   -11370.936    4152.9265   -15523.862    90.386252   -74.672983   -333.52716    -479.1952    113.94238   -86.488035    116.49102      46.7237      46.7237      46.7237           90           90           90     102002.7   -295.79845 
  527000       526500   -10498.601    857.66437   -11356.266    4200.7896   -15557.055    89.943301   -795.47652   -872.96667   -793.53685   -102.69049    24.007409    278.00307      46.7237      46.7237      46.7237           90           90           90     102002.7   -820.66001 
  528000       527500   -10486.007    869.93902   -11355.946    4175.1896   -15531.136    91.230545   -561.75397    -624.9729   -931.20307    15.395091   -77.598276    -44.07939      46.7237      46.7237      46.7237           90           90           90     102002.7   -705.97665 
  529000       528500   -10477.345    858.10295   -11335.448    4184.7336   -15520.182    89.989296    -695.6022   -407.02969   -872.95828   -65.301506    230.47998    132.37385      46.7237      46.7237      46.7237           90           90           90     102002.7   -658.53006 
  530000       529500   -10479.883    872.41037   -11352.294    4202.0582   -15554.352    91.489716   -1000.7806    -710.8094   -770.60703    49.888192    6.2673667    119.58162      46.7237      46.7237      46.7237           90           90           90     102002.7   -827.39901 
  531000       530500   -10488.588    871.48665   -11360.075    4191.7951    -15551.87    91.392845   -971.90793   -568.61686    -844.5968    -49.55127    62.753506    74.652522      46.7237      46.7237      46.7237           90           90           90     102002.7   -795.04053 
  532000       531500   -10492.035    864.84088   -11356.876    4193.8281   -15550.704    90.695902   -976.08763   -696.76561   -1088.6157   -1.1397421   -194.77986   -125.85055      46.7237      46.7237      46.7237           90           90           90     102002.7   -920.48964 
  533000       532500   -10470.911    868.26914    -11339.18    4200.1499    -15539.33    91.055425   -619.27696   -1468.8304   -720.48215    5.3380778   -182.00355   -144.55477      46.7237      46.7237      46.7237           90           90           90     102002.7   -936.19651 
  534000       533500   -10492.869    872.14753   -11365.017     4191.977   -15556.994    91.462152   -403.98464   -621.48074   -457.00431   -235.66079    36.573588    229.89873      46.7237      46.7237      46.7237           90           90           90     102002.7   -494.15656 
  535000       534500   -10480.137    888.85283   -11368.989    4174.4075   -15543.397    93.214037   -210.68029   -636.20904   -729.11205   -43.227305    256.11449   -7.1676466      46.7237      46.7237      46.7237           90           90           90     102002.7   -525.33379 
  536000       535500   -10482.544    856.87649   -11339.421    4200.5019   -15539.922    89.860676   -915.16013   -273.87861   -575.00376    94.792738    71.680744   -148.64705      46.7237      46.7237      46.7237           90           90           90     102002.7   -588.01416 
  537000       536500   -10513.035    868.86959   -11381.904     4173.648   -15555.552    91.118394   -188.43453   -562.79704   -539.71479    240.94917    -50.13759    17.439171      46.7237      46.7237      46.7237           90           90           90     102002.7   -430.31545 
  538000       537500   -10498.922    857.63053   -11356.553    4190.9078   -15547.461    89.939753   -663.23939   -939.84578   -753.24964   -115.51136    62.431952   -70.469343      46.7237      46.7237      46.7237           90           90           90     102002.7   -785.44494 
  539000       538500   -10467.069    880.78707   -11347.856    4194.4602   -15542.316    92.368181   -337.67148   -408.78266   -1104.4947    198.87792    11.256075    133.96349      46.7237      46.7237      46.7237           90           90           90     102002.7   -616.98296 
  540000       539500   -10508.177    876.67778   -11384.855    4174.6147    -15559.47     91.93724   -498.35311   -667.25389    -439.9515     42.42194   -38.513953    132.36292      46.7237      46.7237      46.7237           90           90           90     102002.7   -535.18617 
  541000       540500   -10465.199    889.33013   -11354.529    4193.9096   -15548.438    93.264092   -820.23202   -554.88111   -593.45427   -179.47773    207.03676    222.77742      46.7237      46.7237      46.7237           90           90           90     102002.7   -656.18913 
  542000       541500    -10496.01     867.6085   -11363.619    4191.5009    -15555.12    90.986143   -317.85433   -532.21125   -497.94809    195.48991    99.001046    52.297972      46.7237      46.7237      46.7237           90           90           90     102002.7   -449.33789 
  543000       542500   -10454.865    873.37838   -11328.244      4203.88   -15532.124     91.59123   -652.33932    -364.3226   -864.56368    232.53424   -66.881657   -226.40463      46.7237      46.7237      46.7237           90           90           90     102002.7    -627.0752 
  544000       543500   -10488.252     872.8571   -11361.109    4191.3801   -15552.489    91.536564   -212.06597   -416.39678   -532.31939    9.0571595    1.8800131   -187.30465      46.7237      46.7237      46.7237           90           90           90     102002.7   -386.92738 
  545000       544500    -10482.27    856.26378   -11338.534    4200.5224   -15539.056    89.796422   -180.45153   -739.25857   -95.696977    59.890195   -317.57658     40.80186      46.7237      46.7237      46.7237           90           90           90     102002.7   -338.46903 
  546000       545500   -10487.961    856.77502   -11344.736    4192.1787   -15536.915    89.850036   -137.86981   -712.56073    -483.1823    60.453319   -146.04466   -37.694862      46.7237      46.7237      46.7237           90           90           90     102002.7   -444.53761 
  547000       546500   -10449.451    889.47864   -11338.929     4190.748   -15529.677    93.279666   -298.73088   -370.97839    -290.4503    180.30579   -17.444563    74.834084      46.7237      46.7237      46.7237           90           90           90     102002.7   -320.05319 
  548000       547500   -10491.944    849.88095   -11341.825    4197.1632   -15538.988    89.127055   -356.96906   -549.26929   -677.10739   -82.391682   -9.3244962    10.790578      46.7237      46.7237      46.7237           90           90           90     102002.7   -527.78192 
  549000       548500   -10468.918    867.72457   -11336.642    4213.2548   -15549.897    90.998315   -322.96305   -670.93622   -608.12219    -111.9523   -247.16361   -216.85366      46.7237      46.7237      46.7237           90           90           90     102002.7   -534.00715 
  550000       549500   -10488.918    862.54227    -11351.46    4200.8189   -15552.279    90.454848   -373.94759   -420.06222   -664.21555   -115.53104    130.48276   -23.592323      46.7237      46.7237      46.7237           90           90           90     102002.7   -486.07512 
  551000       550500   -10482.763    859.34264   -11342.105    4212.6127   -15554.718    90.119303   -718.28471   -588.75366   -710.79096       -111.3   -28.403863    87.477737      46.7237      46.7237      46.7237           90           90           90     102002.7   -672.60978 
  552000       551500   -10489.066    873.96307   -11363.029    4187.5392   -15550.568    91.652547   -571.33667   -661.05792    -433.3307    87.178166    79.561806    24.943189      46.7237      46.7237      46.7237           90           90           90     102002.7   -555.24177 
  553000       552500   -10504.793    854.26822   -11359.061    4179.0331   -15538.094    89.587147   -726.76366   -450.67755   -369.75363   -144.09081   -103.94478   -75.883609      46.7237      46.7237      46.7237           90           90           90     102002.7   -515.73162 
  554000       553500   -10462.908    874.55717   -11337.465    4170.2333   -15507.698     91.71485   -656.97503   -797.54654   -381.28606    26.489167   -235.01595    41.926607      46.7237      46.7237      46.7237           90           90           90     102002.7   -611.93587 
  555000       554500   -10494.296    875.55187   -11369.848    4182.5447   -15552.393    91.819165   -339.91205   -661.05491   -273.49016   -20.121751   -21.556993   -75.789393      46.7237      46.7237      46.7237           90           90           90     102002.7   -424.81904 
[...]
  936000       935500   -10494.013    872.01632   -11366.029    4161.6937   -15527.723    91.448391   -390.78038   -568.65506     68.63982    38.580268     45.32304    421.07554      46.7237      46.7237      46.7237           90           90           90     102002.7   -296.93187 
  937000       936500   -10489.504    863.88147   -11353.385     4193.609   -15546.994    90.595289   -805.59456   -401.79094   -627.31731    -13.51452    241.02259   -74.409075      46.7237      46.7237      46.7237           90           90           90     102002.7    -611.5676 
  938000       937500   -10461.027    875.77986   -11336.807     4207.811   -15544.618    91.843074   -736.21474   -508.54476   -251.63357    112.87493    109.88756   -71.622381      46.7237      46.7237      46.7237           90           90           90     102002.7   -498.79769 
  939000       938500   -10502.278    879.00647   -11381.285    4174.7819   -15556.067    92.181449   -325.99598   -725.81601   -724.30287   -71.793491    45.881048   -267.60929      46.7237      46.7237      46.7237           90           90           90     102002.7   -592.03829 
  940000       939500   -10490.859    870.43236   -11361.292    4167.1277   -15528.419    91.282282   -338.97743   -436.19669   -546.68549    128.24977    21.169477    -146.9327      46.7237      46.7237      46.7237           90           90           90     102002.7   -440.61987 
  941000       940500    -10518.37    842.09999    -11360.47    4186.4948   -15546.965    88.311065   -284.02915    -1012.136   -629.83357    116.79653    20.931818    174.87279      46.7237      46.7237      46.7237           90           90           90     102002.7   -641.99959 
  942000       941500   -10496.947    869.60497   -11366.552    4181.4899   -15548.042    91.195513   -440.83449   -765.02707   -731.89097     164.8508    19.405091    324.03178      46.7237      46.7237      46.7237           90           90           90     102002.7   -645.91751 
  943000       942500   -10491.179    867.79046   -11358.969    4199.3797   -15558.349    91.005226   -958.88322   -518.08018   -402.96833    47.654636    281.83285    158.83994      46.7237      46.7237      46.7237           90           90           90     102002.7   -626.64391 
  944000       943500   -10489.474    873.15442   -11362.628    4186.3824   -15549.011    91.567744   -689.77099   -891.94215    -524.8646    210.93391    171.09956   -74.265725      46.7237      46.7237      46.7237           90           90           90     102002.7   -702.19258 
  945000       944500   -10503.347    869.89236   -11373.239     4174.239   -15547.478    91.225652   -724.16327   -726.33732   -437.80439    1.0152303    59.543457    106.68987      46.7237      46.7237      46.7237           90           90           90     102002.7   -629.43499 
  946000       945500   -10495.822    864.82448   -11360.647     4193.001   -15553.648    90.694183   -845.75364    -1065.588   -607.77454    77.659303   -20.086651    191.16653      46.7237      46.7237      46.7237           90           90           90     102002.7   -839.70539 
  947000       946500   -10455.568    877.02637   -11332.594    4209.2104   -15541.804    91.973795   -701.92354   -691.30981   -626.54111   -200.59089   -146.96974    104.21239      46.7237      46.7237      46.7237           90           90           90     102002.7   -673.25815 
  948000       947500   -10485.837    857.21816   -11343.055    4194.8089   -15537.864    89.896507   -543.72611   -554.28455   -337.33589   -127.63447   -41.181367     43.27292      46.7237      46.7237      46.7237           90           90           90     102002.7   -478.44885 
  949000       948500   -10460.333    880.14884   -11340.482    4177.2846   -15517.767    92.301249   -487.60615   -616.42605    -333.3232    47.496507   -46.150725    102.29503      46.7237      46.7237      46.7237           90           90           90     102002.7   -479.11847 
  950000       949500   -10516.464     851.1732   -11367.637    4186.9788   -15554.616    89.262573   -694.54221    55.515737   -333.14014    50.178372   -132.08506    124.82446      46.7237      46.7237      46.7237           90           90           90     102002.7   -324.05554 
  951000       950500   -10478.324    877.46356   -11355.788    4181.1223    -15536.91    92.019643   -631.49474   -530.40488   -375.13856     113.2703   -127.00998   -70.175518      46.7237      46.7237      46.7237           90           90           90     102002.7   -512.34606 
  952000       951500   -10503.634    868.67253   -11372.307    4189.4884   -15561.795    91.097728   -204.72886   -666.05683   -586.99433    43.563723    59.706979    33.634559      46.7237      46.7237      46.7237           90           90           90     102002.7   -485.92667 
  953000       952500   -10508.147    847.13473   -11355.281    4193.6417   -15548.923    88.839058    -724.2517   -761.33343   -787.14079   -67.394871    78.461338     14.83405      46.7237      46.7237      46.7237           90           90           90     102002.7   -757.57531 
  954000       953500   -10514.215    837.26455   -11351.479    4199.2129   -15550.692    87.803972   -851.65333   -716.46967   -327.08079   -223.75602   -18.658617   -33.550051      46.7237      46.7237      46.7237           90           90           90     102002.7   -631.73459 
  955000       954500   -10512.968    854.09362   -11367.061    4197.7111   -15564.772    89.568837   -451.34643   -793.22954   -814.87653    18.604071    269.09724   -76.241717      46.7237      46.7237      46.7237           90           90           90     102002.7   -686.48417 
  956000       955500   -10450.699      896.147   -11346.846    4199.4339    -15546.28    93.978977   -194.93199   -741.57691   -79.770761   -70.658285   -69.857927    11.653091      46.7237      46.7237      46.7237           90           90           90     102002.7   -338.75989 
  957000       956500   -10495.663    858.72197   -11354.385    4211.1317   -15565.517    90.054212   -854.97735   -981.64575   -366.43333   -101.13082     24.00476    88.911321      46.7237      46.7237      46.7237           90           90           90     102002.7   -734.35214 
  958000       957500   -10507.751    860.21054   -11367.961    4178.0585    -15546.02    90.210319   -336.22033   -525.81566   -731.58244   -229.29946    65.383568   -137.37503      46.7237      46.7237      46.7237           90           90           90     102002.7   -531.20614 
  959000       958500   -10490.052    866.86389   -11356.916    4192.2387   -15549.155    90.908056   -528.36224   -741.68348    -707.0662   -205.99127   -264.66726   -136.76739      46.7237      46.7237      46.7237           90           90           90     102002.7   -659.03731 
  960000       959500   -10489.281    879.14586   -11368.426    4197.4726   -15565.899    92.196067   -345.44584   -182.45887   -1011.5836    345.07522   -153.17961   -189.61002      46.7237      46.7237      46.7237           90           90           90     102002.7   -513.16277 
  961000       960500   -10488.547    877.95704   -11366.504    4193.3196   -15559.823    92.071395   -685.38039   -864.59273   -766.31838   -50.661259   -46.660961    67.453523      46.7237      46.7237      46.7237           90           90           90     102002.7   -772.09717 
  962000       961500   -10523.655    842.77912   -11366.434    4208.9417   -15575.376    88.382285   -977.05874   -831.94696   -761.43936    35.205677    51.721154    70.601209      46.7237      46.7237      46.7237           90           90           90     102002.7   -856.81502 
  963000       962500   -10492.159    874.59217   -11366.752    4207.0341   -15573.786    91.718521   -598.45746   -622.61719   -503.35171    64.229967   -24.731674    73.278393      46.7237      46.7237      46.7237           90           90           90     102002.7   -574.80879 
  964000       963500   -10514.446    867.66348    -11382.11    4175.7286   -15557.838    90.991909     -713.293   -808.66747    -736.5441    82.839575    79.108722    124.90112      46.7237      46.7237      46.7237           90           90           90     102002.7   -752.83485 
  965000       964500   -10517.251     853.9572   -11371.208    4188.9631   -15560.171     89.55453   -1281.8998   -737.06527   -66.391963   -56.554814    28.732893    155.04368      46.7237      46.7237      46.7237           90           90           90     102002.7     -695.119 
  966000       965500   -10478.764    883.93402   -11362.698    4183.3198   -15546.018    92.698201   -654.64938   -419.38795   -355.50456   -96.641013     -72.5594    20.397182      46.7237      46.7237      46.7237           90           90           90     102002.7   -476.51396 
  967000       966500   -10489.565    866.12021   -11355.685    4213.4391   -15569.125    90.830066   -550.51301   -1041.1103   -653.03733   -110.88274    251.18243    201.39327      46.7237      46.7237      46.7237           90           90           90     102002.7   -748.22022 
  968000       967500   -10513.368     855.4857   -11368.854    4197.2388   -15566.092    89.714824   -180.75969   -455.56208   -511.89636    -60.09505    233.09195    113.42737      46.7237      46.7237      46.7237           90           90           90     102002.7   -382.73938 
  969000       968500   -10499.162    855.19337   -11354.356    4199.2717   -15553.627    89.684168   -225.57864   -583.80466   -472.97123   -111.75594   -33.346547   -169.07989      46.7237      46.7237      46.7237           90           90           90     102002.7   -427.45151 
  970000       969500   -10503.473    865.81969   -11369.292    4197.0979    -15566.39    90.798551   -314.32299   -262.34507   -645.12501   -71.932178   -170.43933    8.3906027      46.7237      46.7237      46.7237           90           90           90     102002.7   -407.26436 
  971000       970500   -10478.194    884.73271   -11362.927     4197.171   -15560.098     92.78196   -479.90337   -794.89115   -627.85604   -67.573567    72.215568   -74.178049      46.7237      46.7237      46.7237           90           90           90     102002.7   -634.21686 
  972000       971500   -10489.705    881.20695   -11370.912    4190.5859   -15561.498    92.412213   -641.23501   -809.00333   -720.57623   -10.088299    175.78627   -36.401937      46.7237      46.7237      46.7237           90           90           90     102002.7   -723.60485 
  973000       972500   -10501.651    854.03878    -11355.69    4199.6354   -15555.326    89.563086   -609.11733    -732.3785    -530.7522   -9.3599475   -85.247864   -282.25396      46.7237      46.7237      46.7237           90           90           90     102002.7   -624.08268 
  974000       973500   -10473.286    884.66227   -11357.948    4193.5046   -15551.453    92.774572   -561.66672    -564.6778   -708.91022    48.809723   -85.365971     29.56114      46.7237      46.7237      46.7237           90           90           90     102002.7   -611.75158 
  975000       974500   -10483.237    869.75021   -11352.987    4178.4428    -15531.43    91.210745   -353.97569    -1002.032   -514.80344   -378.39014    48.596256    65.858479      46.7237      46.7237      46.7237           90           90           90     102002.7    -623.6037 
  976000       975500   -10513.422    855.66831    -11369.09    4188.7205   -15557.811    89.733975   -648.54977   -920.24952   -667.75419    27.014249    117.61455    41.239394      46.7237      46.7237      46.7237           90           90           90     102002.7   -745.51782 
  977000       976500   -10469.387    888.02632   -11357.413    4179.2502   -15536.663    93.127361   -313.35911   -803.88556    -386.5124   -216.98534    13.755042    189.17449      46.7237      46.7237      46.7237           90           90           90     102002.7   -501.25236 
  978000       977500   -10475.505     883.9789   -11359.483    4187.3982   -15546.882    92.702908   -324.64441   -237.97297   -531.83073    55.773615    40.586109    124.58043      46.7237      46.7237      46.7237           90           90           90     102002.7   -364.81604 
  979000       978500   -10480.715    864.68809   -11345.403    4195.4449   -15540.848    90.679879   -483.75852   -638.92285   -248.64006    -80.07618    112.99705   -259.42036      46.7237      46.7237      46.7237           90           90           90     102002.7   -457.10714 
  980000       979500    -10499.52    871.85793   -11371.378    4178.8831   -15550.261    91.431781   -190.14162   -731.81695   -438.66712   -70.401298    61.540941    21.439035      46.7237      46.7237      46.7237           90           90           90     102002.7    -453.5419 
  981000       980500   -10485.336    866.25539   -11351.592    4192.3039   -15543.896    90.844243   -732.08259   -896.00169   -426.61755    50.787282    148.43718     54.05964      46.7237      46.7237      46.7237           90           90           90     102002.7   -684.90061 
  982000       981500   -10520.652    854.89061   -11375.543    4178.5874    -15554.13    89.652417   -517.70979   -654.67691   -711.05148    -141.2749    71.153068   -19.915872      46.7237      46.7237      46.7237           90           90           90     102002.7   -627.81273 
  983000       982500   -10492.059    848.23872   -11340.297    4187.2873   -15527.585    88.954834   -708.89476   -624.01165   -402.75084   -305.39434   -164.68874   -98.987546      46.7237      46.7237      46.7237           90           90           90     102002.7   -578.55242 
  984000       983500   -10485.862    866.92127   -11352.783    4187.2016   -15539.985    90.914073   -626.47879    -411.6336   -599.35086   -121.62491   -34.385662   -123.07575      46.7237      46.7237      46.7237           90           90           90     102002.7   -545.82108 
  985000       984500   -10492.253    865.90814   -11358.161    4183.8336   -15541.995    90.807826   -718.34195   -492.56417   -84.446724    123.48831   -57.620577    55.972252      46.7237      46.7237      46.7237           90           90           90     102002.7   -431.78428 
  986000       985500   -10484.778    877.98095   -11362.759     4187.632   -15550.391    92.073902   -417.35499   -729.81238   -107.95764    150.94697    -78.62951   -9.9934569      46.7237      46.7237      46.7237           90           90           90     102002.7     -418.375 
  987000       986500   -10493.618       877.75   -11371.368    4186.2901   -15557.658    92.049683    286.63062   -601.89627   -759.42536    206.96649   -154.64583    128.78267      46.7237      46.7237      46.7237           90           90           90     102002.7   -358.23034 
  988000       987500   -10485.365    862.85101   -11348.216     4203.838   -15552.054    90.487225   -590.18211   -304.31077   -478.66305    13.382456   -98.302889    317.38253      46.7237      46.7237      46.7237           90           90           90     102002.7   -457.71865 
  989000       988500   -10477.487    877.46811   -11354.955     4200.724   -15555.679    92.020121   -408.00407   -754.91363   -779.71782    105.63157    204.73086   -197.21831      46.7237      46.7237      46.7237           90           90           90     102002.7   -647.54517 
  990000       989500   -10483.551    885.16359   -11368.715    4202.2465   -15570.961    92.827146   -474.73547   -639.35272   -709.82894    37.488452   -251.45889   -83.174197      46.7237      46.7237      46.7237           90           90           90     102002.7   -607.97238 
  991000       990500   -10487.632    867.96449   -11355.596    4197.2486   -15552.845    91.023476   -547.47125   -791.02529   -627.01007    13.995447   -9.9185534    226.91543      46.7237      46.7237      46.7237           90           90           90     102002.7   -655.16887 
  992000       991500   -10452.577    872.61299    -11325.19    4226.5958   -15551.785    91.510965   -858.84417   -881.72485   -819.48093   -196.59233   -16.819006    128.82994      46.7237      46.7237      46.7237           90           90           90     102002.7   -853.34998 
  993000       992500    -10484.55    854.89262   -11339.442     4200.581   -15540.023    89.652628   -454.92596   -582.58796   -429.76968   -69.538755   -56.285941   -15.294072      46.7237      46.7237      46.7237           90           90           90     102002.7   -489.09453 
  994000       993500   -10499.256     872.4048   -11371.661    4174.8226   -15546.483    91.489131   -855.74272   -313.15382   -594.57266   -268.17027   -79.719972    216.25046      46.7237      46.7237      46.7237           90           90           90     102002.7   -587.82307 
  995000       994500   -10483.967    861.35911   -11345.326    4195.4323   -15540.758    90.330769   -435.67609   -550.49378   -609.34347    307.58514    306.30191    206.84766      46.7237      46.7237      46.7237           90           90           90     102002.7   -531.83778 
  996000       995500   -10492.648    871.00214    -11363.65    4193.8317   -15557.482    91.342035    -768.8758   -403.17292   -205.21733    159.67374   -46.665515    29.889895      46.7237      46.7237      46.7237           90           90           90     102002.7   -459.08868 
  997000       996500   -10490.746    874.95543   -11365.701     4178.983   -15544.684    91.756616     16.51081   -735.65233    -944.1804   -22.362304     178.1673    11.217207      46.7237      46.7237      46.7237           90           90           90     102002.7   -554.44064 
  998000       997500   -10492.129    868.73508   -11360.864    4182.8305   -15543.694    91.104287   -749.36144    -556.8699   -833.02611   -144.33398    73.928326    130.91751      46.7237      46.7237      46.7237           90           90           90     102002.7   -713.08582 
  999000       998500   -10436.185    877.46295   -11313.648    4228.2001   -15541.848     92.01958    -650.5857   -714.56052   -897.81371    149.73637    158.15492    47.636784      46.7237      46.7237      46.7237           90           90           90     102002.7   -754.31998 
 1000000       999500   -10510.628    866.83295   -11377.461    4186.5448   -15564.006    90.904811   -402.44117    -391.1776   -1087.8367    93.677098   -194.46566    12.859006      46.7237      46.7237      46.7237           90           90           90     102002.7   -627.15184 
 1000500      1000000   -10518.382     849.8105   -11368.192    4177.9691   -15546.162    89.119666   -464.53998   -287.44445   -397.22044    153.49097    108.12732   -183.96757      46.7237      46.7237      46.7237           90           90           90     102002.7   -383.06829 
Loop time of 2300.65 on 16 procs for 500000 steps with 3200 atoms

Performance: 18.777 ns/day, 1.278 hours/ns, 217.330 timesteps/s
99.8% CPU use with 16 MPI tasks x no OpenMP threads

MPI task timing breakdown:
Section |  min time  |  avg time  |  max time  |%varavg| %total
---------------------------------------------------------------
Pair    | 1102.3     | 1467.1     | 1871.1     | 518.0 | 63.77
Bond    | 143.75     | 184.14     | 225.13     | 151.3 |  8.00
Neigh   | 14.659     | 14.715     | 14.769     |   1.0 |  0.64
Comm    | 157.59     | 601.51     | 1008.7     | 870.5 | 26.15
Output  | 0.1374     | 0.14353    | 0.1441     |   0.4 |  0.01
Modify  | 23.81      | 26.003     | 27.936     |  29.0 |  1.13
Other   |            | 7.012      |            |       |  0.30

Nlocal:    200 ave 226 max 158 min
Histogram: 1 0 1 1 1 4 2 2 1 3
Nghost:    4050.25 ave 4098 max 4020 min
Histogram: 1 5 0 3 3 1 1 0 1 1
Neighs:    11454.5 ave 17174 max 6340 min
Histogram: 2 2 1 0 3 3 2 0 2 1

Total # of neighbors = 183272
Ave neighs/atom = 57.2725
Ave special neighs/atom = 3.6
Neighbor list builds = 4175
Dangerous builds = 0
Total wall time: 1:10:20
