LAMMPS (30 Mar 2018)
Reading data file ...
  orthogonal box = (0 0 0) to (46.7237 46.7237 46.7237)
  2 by 2 by 4 MPI processor grid
  reading atoms ...
  3219 atoms
  scanning bonds ...
  5 = max bonds/atom
  scanning angles ...
  10 = max angles/atom
  scanning dihedrals ...
  32 = max dihedrals/atom
  scanning impropers ...
  3 = max impropers/atom
  reading bonds ...
  2064 bonds
  reading angles ...
  3696 angles
  reading dihedrals ...
  6240 dihedrals
  reading impropers ...
  1008 impropers
Finding 1-2 1-3 1-4 neighbors ...
  special bond factors lj:   0          0          0         
  special bond factors coul: 0          0          0         
  5 = max # of 1-2 neighbors
  8 = max # of 1-3 neighbors
  20 = max # of 1-4 neighbors
  19 = max # of special neighbors
Finding 1-2 1-3 1-4 neighbors ...
  special bond factors lj:   0          0          1         
  special bond factors coul: 1          1          1         
  5 = max # of 1-2 neighbors
  8 = max # of 1-3 neighbors
  19 = max # of special neighbors
WARNING: Using 'neigh_modify every 1 delay 0 check yes' setting during minimization (../min.cpp:168)
Neighbor list info ...
  update every 1 steps, delay 0 steps, check yes
  max neighbors/atom: 2000, page size: 100000
  master list distance cutoff = 16
  ghost atom cutoff = 16
  binsize = 8, bins = 6 6 6
  3 neighbor lists, perpetual/occasional/extra = 3 0 0
  (1) pair buck6d/coul/gauss/dsf, perpetual, skip from (3)
      attributes: half, newton on
      pair build: skip
      stencil: none
      bin: none
  (2) pair lj/cut, perpetual, skip from (3)
      attributes: half, newton on
      pair build: skip
      stencil: none
      bin: none
  (3) neighbor class addition, perpetual
      attributes: half, newton on
      pair build: half/bin/newton
      stencil: half/bin/3d/newton
      bin: standard
Setting up cg style minimization ...
  Unit style    : real
  Current step  : 0
WARNING: Inconsistent image flags (../domain.cpp:786)
Per MPI rank memory allocation (min/avg/max) = 23.02 | 23.47 | 23.92 Mbytes
Step Temp E_pair E_mol TotEng Press 
       0            0   -15450.605    6482.8914    -8967.714     6666.784 
     500            0   -15974.014    3755.6063   -12218.407   -1909.5094 
Loop time of 4.33078 on 16 procs for 500 steps with 3219 atoms

99.8% CPU use with 16 MPI tasks x no OpenMP threads

Minimization stats:
  Stopping criterion = max force evaluations
  Energy initial, next-to-last, final = 
        -8967.71400701      -12218.310224     -12218.4073094
  Force two-norm initial, final = 2576.02 13.9975
  Force max component initial, final = 152.144 1.53162
  Final line search alpha, max atom move = 0.00691822 0.0105961
  Iterations, force evaluations = 500 1000

MPI task timing breakdown:
Section |  min time  |  avg time  |  max time  |%varavg| %total
---------------------------------------------------------------
Pair    | 2.3179     | 3.0009     | 3.4253     |  17.9 | 69.29
Bond    | 0.26015    | 0.36191    | 0.43962    |   9.2 |  8.36
Neigh   | 0.034655   | 0.034774   | 0.03489    |   0.0 |  0.80
Comm    | 0.46533    | 0.88201    | 1.665      |  35.3 | 20.37
Output  | 0          | 0          | 0          |   0.0 |  0.00
Modify  | 0          | 0          | 0          |   0.0 |  0.00
Other   |            | 0.05122    |            |       |  1.18

Nlocal:    201.188 ave 230 max 172 min
Histogram: 1 1 1 3 2 2 2 1 1 2
Nghost:    4021.5 ave 4048 max 3987 min
Histogram: 1 2 0 1 3 1 2 1 2 3
Neighs:    11477.1 ave 17315 max 6860 min
Histogram: 1 2 1 4 3 1 1 1 1 1

Total # of neighbors = 183634
Ave neighs/atom = 57.0469
Ave special neighs/atom = 3.57875
Neighbor list builds = 10
Dangerous builds = 0
Neighbor list info ...
  update every 1 steps, delay 10 steps, check yes
  max neighbors/atom: 2000, page size: 100000
  master list distance cutoff = 16
  ghost atom cutoff = 16
  binsize = 8, bins = 6 6 6
  3 neighbor lists, perpetual/occasional/extra = 3 0 0
  (1) pair buck6d/coul/gauss/dsf, perpetual, skip from (3)
      attributes: half, newton on
      pair build: skip
      stencil: none
      bin: none
  (2) pair lj/cut, perpetual, skip from (3)
      attributes: half, newton on
      pair build: skip
      stencil: none
      bin: none
  (3) neighbor class addition, perpetual
      attributes: half, newton on
      pair build: half/bin/newton
      stencil: half/bin/3d/newton
      bin: standard
Setting up Verlet run ...
  Unit style    : real
  Current step  : 500
  Time step     : 1
WARNING: Inconsistent image flags (../domain.cpp:786)
Per MPI rank memory allocation (min/avg/max) = 22.66 | 22.76 | 22.98 Mbytes
Step Temp PotEng TotEng Press Volume Lx Ly Lz 
     500          130   -12218.407   -10971.415   -1350.6728     102002.7      46.7237      46.7237      46.7237 
    1000    110.47332   -11193.615   -10133.927    239.55362     102002.7      46.7237      46.7237      46.7237 
    2000    130.32828    -10991.96   -9741.8189    403.75536     102002.7      46.7237      46.7237      46.7237 
    3000    127.52525    -11032.27    -9809.016    593.45815     102002.7      46.7237      46.7237      46.7237 
    4000    129.52465   -11008.767   -9766.3342    761.10032     102002.7      46.7237      46.7237      46.7237 
    5000    131.19406   -11047.529   -9789.0834    412.01615     102002.7      46.7237      46.7237      46.7237 
    6000    126.94932   -11031.347   -9813.6181    128.04978     102002.7      46.7237      46.7237      46.7237 
    7000     131.1611   -11038.379   -9780.2489    371.15949     102002.7      46.7237      46.7237      46.7237 
    8000    129.97923   -11027.078    -9780.285    390.70456     102002.7      46.7237      46.7237      46.7237 
    9000    131.78118   -11054.524   -9790.4464    148.00035     102002.7      46.7237      46.7237      46.7237 
   10000    128.94561   -11003.738   -9766.8594     308.6911     102002.7      46.7237      46.7237      46.7237 
   11000    130.91522   -11025.376   -9769.6053    377.45421     102002.7      46.7237      46.7237      46.7237 
   12000    130.32047   -11039.777   -9789.7105    475.79645     102002.7      46.7237      46.7237      46.7237 
   13000    129.80162   -11048.874   -9803.7843    286.78076     102002.7      46.7237      46.7237      46.7237 
   14000    131.82275   -11014.592   -9750.1154     212.7439     102002.7      46.7237      46.7237      46.7237 
   15000    126.20607   -11047.362   -9836.7618    572.98265     102002.7      46.7237      46.7237      46.7237 
   16000    132.27299   -11048.944   -9780.1487    673.92303     102002.7      46.7237      46.7237      46.7237 
   17000    130.78821   -11104.001   -9849.4487    266.01413     102002.7      46.7237      46.7237      46.7237 
   18000    131.04182   -11028.428   -9771.4428    616.94629     102002.7      46.7237      46.7237      46.7237 
   19000    130.39353   -11033.825   -9783.0576    351.71119     102002.7      46.7237      46.7237      46.7237 
   20000    128.69111   -11036.963   -9802.5267    349.46507     102002.7      46.7237      46.7237      46.7237 
   21000    129.78579   -11056.238   -9811.3008    469.57147     102002.7      46.7237      46.7237      46.7237 
   22000    129.13385   -11040.663   -9801.9791    529.97859     102002.7      46.7237      46.7237      46.7237 
   23000    129.60723   -11023.882   -9780.6579    181.04065     102002.7      46.7237      46.7237      46.7237 
   24000    130.66936   -11038.699    -9785.286    552.59266     102002.7      46.7237      46.7237      46.7237 
   25000    127.26341   -11029.087   -9808.3453    291.38409     102002.7      46.7237      46.7237      46.7237 
   26000      129.195   -11047.156   -9807.8858    428.45369     102002.7      46.7237      46.7237      46.7237 
   27000    128.45231   -11007.282   -9775.1354    938.69773     102002.7      46.7237      46.7237      46.7237 
   28000    128.50056   -11047.118   -9814.5089    783.65546     102002.7      46.7237      46.7237      46.7237 
   29000    128.65369   -11029.102   -9795.0244    886.59839     102002.7      46.7237      46.7237      46.7237 
   30000    129.77338   -10989.578   -9744.7598    480.95002     102002.7      46.7237      46.7237      46.7237 
   31000    130.94445   -11039.497   -9783.4458    549.69463     102002.7      46.7237      46.7237      46.7237 
   32000    128.28704    -11043.17    -9812.609    78.220211     102002.7      46.7237      46.7237      46.7237 
   33000    131.71647   -11037.886   -9774.4291    274.10113     102002.7      46.7237      46.7237      46.7237 
   34000    129.91845   -11031.145   -9784.9351    212.89326     102002.7      46.7237      46.7237      46.7237 
   35000    131.62217   -11044.608   -9782.0553    716.79649     102002.7      46.7237      46.7237      46.7237 
   36000    130.11435   -11025.389   -9777.3002    332.88327     102002.7      46.7237      46.7237      46.7237 
   37000    128.38867   -11015.754   -9784.2185     654.3178     102002.7      46.7237      46.7237      46.7237 
   38000    129.94267   -11055.611   -9809.1689    353.87116     102002.7      46.7237      46.7237      46.7237 
   39000    126.12071   -11038.645   -9828.8639    373.41438     102002.7      46.7237      46.7237      46.7237 
   40000    130.09693   -10971.244   -9723.3227    740.88635     102002.7      46.7237      46.7237      46.7237 
   41000    127.18527   -11037.335   -9817.3427    262.21256     102002.7      46.7237      46.7237      46.7237 
   42000    127.46487   -11046.111   -9823.4366    143.49015     102002.7      46.7237      46.7237      46.7237 
   43000    129.56264    -11020.35   -9777.5528    225.79573     102002.7      46.7237      46.7237      46.7237 
   44000    131.49537   -11001.465    -9740.129    118.50103     102002.7      46.7237      46.7237      46.7237 
   45000    126.26881   -11012.688   -9801.4869    171.52969     102002.7      46.7237      46.7237      46.7237 
   46000    129.40635    -10989.51   -9748.2122    811.22304     102002.7      46.7237      46.7237      46.7237 
   47000    129.89484   -11042.934   -9796.9504    179.47267     102002.7      46.7237      46.7237      46.7237 
   48000    130.17657   -10998.722   -9750.0358    462.25642     102002.7      46.7237      46.7237      46.7237 
   49000    130.48973   -11041.038   -9789.3487    892.01275     102002.7      46.7237      46.7237      46.7237 
   50000    127.69947   -11048.909   -9823.9845    370.43643     102002.7      46.7237      46.7237      46.7237 
   51000    130.97153   -11019.103   -9762.7914    554.41256     102002.7      46.7237      46.7237      46.7237 
   52000    128.81953   -11043.642   -9807.9736    615.81164     102002.7      46.7237      46.7237      46.7237 
   53000    130.64586   -11029.529   -9776.3413    343.75589     102002.7      46.7237      46.7237      46.7237 
   54000    125.89212   -11052.798   -9845.2099    176.32933     102002.7      46.7237      46.7237      46.7237 
   55000     130.1303   -11053.372   -9805.1296    148.63874     102002.7      46.7237      46.7237      46.7237 
   56000    129.51672   -11036.493   -9794.1366   -43.117765     102002.7      46.7237      46.7237      46.7237 
   57000    128.07942   -11014.143   -9785.5733     505.3958     102002.7      46.7237      46.7237      46.7237 
   58000    130.74829   -11023.042   -9768.8717    328.17258     102002.7      46.7237      46.7237      46.7237 
   59000    130.58036   -11055.363   -9802.8043    18.436971     102002.7      46.7237      46.7237      46.7237 
   60000    130.34863   -11034.176   -9783.8402    233.88343     102002.7      46.7237      46.7237      46.7237 
   61000    129.15091   -11038.035   -9799.1875    178.98591     102002.7      46.7237      46.7237      46.7237 
   62000    130.69745   -11020.724   -9767.0422    476.42261     102002.7      46.7237      46.7237      46.7237 
   63000    131.00158   -11056.273   -9799.6734    128.78722     102002.7      46.7237      46.7237      46.7237 
   64000    131.33958    -11043.92   -9784.0779    61.751297     102002.7      46.7237      46.7237      46.7237 
   65000    128.03481   -11033.672   -9805.5302    407.10553     102002.7      46.7237      46.7237      46.7237 
   66000    129.61973   -11022.172   -9778.8279    205.52885     102002.7      46.7237      46.7237      46.7237 
   67000    129.28717   -11034.821   -9794.6662     62.54034     102002.7      46.7237      46.7237      46.7237 
   68000     129.8397    -11022.66   -9777.2056    493.99955     102002.7      46.7237      46.7237      46.7237 
   69000    128.10688   -11025.056   -9796.2234    135.03615     102002.7      46.7237      46.7237      46.7237 
   70000    127.59208   -11041.508   -9817.6129    376.72756     102002.7      46.7237      46.7237      46.7237 
   71000    134.50457   -11016.362   -9726.1615     539.5506     102002.7      46.7237      46.7237      46.7237 
   72000    125.34897   -11046.572   -9844.1938    545.31476     102002.7      46.7237      46.7237      46.7237 
   73000    126.90699   -11016.502   -9799.1791    653.25065     102002.7      46.7237      46.7237      46.7237 
   74000    127.95218   -11069.402   -9842.0533     212.7944     102002.7      46.7237      46.7237      46.7237 
   75000    131.20092   -11029.026   -9770.5148    674.26722     102002.7      46.7237      46.7237      46.7237 
   76000    125.97802   -11041.973    -9833.561    395.37552     102002.7      46.7237      46.7237      46.7237 
   77000    129.19259   -11061.295   -9822.0476      289.382     102002.7      46.7237      46.7237      46.7237 
   78000    127.10817    -11057.37   -9838.1171    381.46603     102002.7      46.7237      46.7237      46.7237 
   79000     131.6385   -11042.634   -9779.9254    71.330215     102002.7      46.7237      46.7237      46.7237 
   80000     128.9731   -11016.566   -9779.4245    206.78533     102002.7      46.7237      46.7237      46.7237 
   81000    129.93945   -11047.082   -9800.6708    307.44508     102002.7      46.7237      46.7237      46.7237 
   82000    133.77637   -11047.209   -9763.9926    310.79845     102002.7      46.7237      46.7237      46.7237 
   83000    130.39782   -11062.406   -9811.5979    296.03814     102002.7      46.7237      46.7237      46.7237 
   84000    131.69607   -11025.496   -9762.2345    244.00449     102002.7      46.7237      46.7237      46.7237 
   85000    132.41241   -11055.081   -9784.9486    527.84249     102002.7      46.7237      46.7237      46.7237 
   86000    129.15606   -11035.399   -9796.5025    435.60558     102002.7      46.7237      46.7237      46.7237 
   87000    131.66144   -11044.084   -9781.1549    534.77692     102002.7      46.7237      46.7237      46.7237 
   88000    133.29567   -11017.029   -9738.4245    667.85258     102002.7      46.7237      46.7237      46.7237 
   89000    129.59711   -11042.136   -9799.0086    486.56892     102002.7      46.7237      46.7237      46.7237 
   90000    130.56512   -11037.821   -9785.4076     670.6833     102002.7      46.7237      46.7237      46.7237 
   91000    130.01796    -11009.51   -9762.3457    536.29032     102002.7      46.7237      46.7237      46.7237 
   92000    126.25301   -11053.634    -9842.584    388.57952     102002.7      46.7237      46.7237      46.7237 
   93000    130.08543   -11050.387   -9802.5752    404.94933     102002.7      46.7237      46.7237      46.7237 
   94000    127.67397   -10997.176   -9772.4958    500.38651     102002.7      46.7237      46.7237      46.7237 
   95000    125.50401   -11053.774   -9849.9089    472.50032     102002.7      46.7237      46.7237      46.7237 
   96000    125.58584   -11031.772   -9827.1214    181.36503     102002.7      46.7237      46.7237      46.7237 
   97000     132.2809    -11026.86    -9757.989    247.76583     102002.7      46.7237      46.7237      46.7237 
   98000    128.70765   -11029.568   -9794.9722    348.13052     102002.7      46.7237      46.7237      46.7237 
   99000    128.15727   -11084.405   -9855.0893    438.70715     102002.7      46.7237      46.7237      46.7237 
  100000    131.33817   -11054.303   -9794.4746    468.11659     102002.7      46.7237      46.7237      46.7237 
  101000    130.37457    -11041.28   -9790.6951    655.24269     102002.7      46.7237      46.7237      46.7237 
  102000    127.22847   -11059.909   -9839.5016    206.26351     102002.7      46.7237      46.7237      46.7237 
  103000    133.00882     -11045.9   -9770.0466    577.88235     102002.7      46.7237      46.7237      46.7237 
  104000    131.34628   -11054.862   -9794.9561    521.36262     102002.7      46.7237      46.7237      46.7237 
  105000    128.65287   -11039.077   -9805.0066    258.46375     102002.7      46.7237      46.7237      46.7237 
  106000    130.93371   -11076.981   -9821.0321    270.75867     102002.7      46.7237      46.7237      46.7237 
  107000    131.98303   -11028.776   -9762.7627     543.1414     102002.7      46.7237      46.7237      46.7237 
  108000    129.11263   -11058.076    -9819.596    427.89399     102002.7      46.7237      46.7237      46.7237 
  109000    129.35958   -11079.135   -9838.2863    489.68262     102002.7      46.7237      46.7237      46.7237 
  110000    129.98628   -11065.518   -9818.6576    272.83639     102002.7      46.7237      46.7237      46.7237 
  111000    126.97346   -11039.231   -9821.2699    391.22708     102002.7      46.7237      46.7237      46.7237 
  112000    131.62408   -11025.303   -9762.7325    717.35176     102002.7      46.7237      46.7237      46.7237 
  113000    130.27428   -11022.002   -9772.3786    237.49271     102002.7      46.7237      46.7237      46.7237 
  114000    130.30047   -11066.738   -9816.8636    466.32112     102002.7      46.7237      46.7237      46.7237 
  115000    127.62669   -11036.106   -9811.8795    511.35245     102002.7      46.7237      46.7237      46.7237 
  116000    132.05129   -11050.455   -9783.7864    400.27058     102002.7      46.7237      46.7237      46.7237 
  117000    129.89182   -11050.017   -9804.0629    341.47391     102002.7      46.7237      46.7237      46.7237 
  118000    132.82088   -11069.909   -9795.8583    453.41566     102002.7      46.7237      46.7237      46.7237 
  119000    130.30678   -11069.873   -9819.9386    68.005817     102002.7      46.7237      46.7237      46.7237 
  120000    131.09803   -11063.216   -9805.6909    332.18452     102002.7      46.7237      46.7237      46.7237 
  121000    131.15092   -11067.504   -9809.4716   -40.888043     102002.7      46.7237      46.7237      46.7237 
  122000    130.49668   -11071.012   -9819.2554    155.42277     102002.7      46.7237      46.7237      46.7237 
  123000    132.33264   -11047.079   -9777.7119    475.48964     102002.7      46.7237      46.7237      46.7237 
  124000    130.56103   -11007.826   -9755.4522    463.47694     102002.7      46.7237      46.7237      46.7237 
  125000    132.31871   -11069.857   -9800.6232    398.46062     102002.7      46.7237      46.7237      46.7237 
  126000    129.51854   -11077.562    -9835.188    44.737975     102002.7      46.7237      46.7237      46.7237 
  127000    132.49875    -11063.72   -9792.7591   -16.111796     102002.7      46.7237      46.7237      46.7237 
  128000    131.27934   -11037.371    -9778.107    450.49504     102002.7      46.7237      46.7237      46.7237 
  129000    133.19424   -11046.004   -9768.3719    393.49293     102002.7      46.7237      46.7237      46.7237 
  130000    129.55687   -11067.375   -9824.6339    233.24394     102002.7      46.7237      46.7237      46.7237 
  131000    131.30033    -11032.07   -9772.6053     249.4744     102002.7      46.7237      46.7237      46.7237 
  132000    133.65319   -11038.798   -9756.7637    195.25335     102002.7      46.7237      46.7237      46.7237 
  133000    128.66799   -11045.565   -9811.3498    294.39656     102002.7      46.7237      46.7237      46.7237 
  134000    130.83967   -11035.565   -9780.5186    624.35644     102002.7      46.7237      46.7237      46.7237 
  135000    129.04001   -11087.079    -9849.295    49.796052     102002.7      46.7237      46.7237      46.7237 
  136000    130.16039    -11027.16   -9778.6293      365.137     102002.7      46.7237      46.7237      46.7237 
  137000    130.36441   -11068.517   -9818.0295     0.073974     102002.7      46.7237      46.7237      46.7237 
  138000     130.0106   -11050.931   -9803.8368    375.24048     102002.7      46.7237      46.7237      46.7237 
  139000    129.98038   -11041.657   -9794.8536    646.75465     102002.7      46.7237      46.7237      46.7237 
  140000    130.03467   -11006.079   -9758.7539    695.29841     102002.7      46.7237      46.7237      46.7237 
  141000    130.17579   -11062.777   -9814.0982    515.80113     102002.7      46.7237      46.7237      46.7237 
  142000    129.79737    -11037.82   -9792.7719     95.70114     102002.7      46.7237      46.7237      46.7237 
  143000     131.5208   -11044.658   -9783.0784    233.17046     102002.7      46.7237      46.7237      46.7237 
  144000    130.22722   -10995.964   -9746.7921    254.90115     102002.7      46.7237      46.7237      46.7237 
  145000    130.27105   -11020.172   -9770.5799     207.5639     102002.7      46.7237      46.7237      46.7237 
  146000    131.48276   -11039.841   -9778.6257    98.177071     102002.7      46.7237      46.7237      46.7237 
  147000    130.94452   -11030.837   -9774.7847    122.25119     102002.7      46.7237      46.7237      46.7237 
  148000    129.29494   -11032.025   -9791.7958    290.79379     102002.7      46.7237      46.7237      46.7237 
  149000    131.00145   -10991.939   -9735.3411     359.8418     102002.7      46.7237      46.7237      46.7237 
  150000    131.19411   -11044.626   -9786.1795    458.99367     102002.7      46.7237      46.7237      46.7237 
  151000    123.97751   -11067.614   -9878.3912    145.84086     102002.7      46.7237      46.7237      46.7237 
  152000    128.97614   -11028.572   -9791.4011    447.81541     102002.7      46.7237      46.7237      46.7237 
  153000    130.18363   -11040.763   -9792.0091    262.27458     102002.7      46.7237      46.7237      46.7237 
  154000    128.01489   -11048.428   -9820.4775    326.89886     102002.7      46.7237      46.7237      46.7237 
  155000    128.31969   -10986.421   -9755.5472    580.40414     102002.7      46.7237      46.7237      46.7237 
  156000     127.9688   -11026.291    -9798.783    456.84559     102002.7      46.7237      46.7237      46.7237 
  157000    128.81088   -11030.575   -9794.9893     403.6477     102002.7      46.7237      46.7237      46.7237 
  158000    131.02619   -11042.203   -9785.3676    413.20113     102002.7      46.7237      46.7237      46.7237 
  159000    132.08182   -11033.376   -9766.4143      692.928     102002.7      46.7237      46.7237      46.7237 
  160000    130.19111   -11054.906   -9806.0809    811.46526     102002.7      46.7237      46.7237      46.7237 
  161000    130.11897   -11028.441   -9780.3079    343.88769     102002.7      46.7237      46.7237      46.7237 
  162000    129.64632    -11023.57   -9779.9701    545.13699     102002.7      46.7237      46.7237      46.7237 
  163000    135.13911   -11059.037   -9762.7496    542.14509     102002.7      46.7237      46.7237      46.7237 
  164000    131.08985   -11026.642   -9769.1958    584.13519     102002.7      46.7237      46.7237      46.7237 
  165000    133.41131   -11038.188   -9758.4737    371.19135     102002.7      46.7237      46.7237      46.7237 
  166000    132.21747   -11031.045    -9762.782     176.4489     102002.7      46.7237      46.7237      46.7237 
  167000     130.1993   -11024.521   -9775.6174    185.32277     102002.7      46.7237      46.7237      46.7237 
  168000    132.07318   -11067.885   -9801.0063    228.49578     102002.7      46.7237      46.7237      46.7237 
  169000    128.46379   -11041.046   -9808.7894    311.30036     102002.7      46.7237      46.7237      46.7237 
  170000    130.14217   -11076.557   -9828.2008    537.43687     102002.7      46.7237      46.7237      46.7237 
  171000    130.04812   -11033.579   -9786.1259    518.94993     102002.7      46.7237      46.7237      46.7237 
  172000    129.46066   -11004.391   -9762.5727     321.8409     102002.7      46.7237      46.7237      46.7237 
  173000    130.15634    -11049.76   -9801.2681    371.32121     102002.7      46.7237      46.7237      46.7237 
  174000    132.82271   -11049.905   -9775.8367    452.25829     102002.7      46.7237      46.7237      46.7237 
  175000    128.15188   -11032.211   -9802.9466    406.94343     102002.7      46.7237      46.7237      46.7237 
  176000    132.65451   -11023.108   -9750.6529    912.51639     102002.7      46.7237      46.7237      46.7237 
  177000    130.10729   -11044.666   -9796.6445    566.18055     102002.7      46.7237      46.7237      46.7237 
  178000    128.23518   -11033.746   -9803.6822      453.314     102002.7      46.7237      46.7237      46.7237 
  179000    129.63233   -11042.751   -9799.2858    232.85598     102002.7      46.7237      46.7237      46.7237 
  180000    125.45708   -11052.311    -9848.896    136.23995     102002.7      46.7237      46.7237      46.7237 
  181000    128.53201   -11011.167   -9778.2565    296.21674     102002.7      46.7237      46.7237      46.7237 
  182000    130.52507   -11052.559   -9800.5304    205.45089     102002.7      46.7237      46.7237      46.7237 
  183000    136.58464   -11037.173   -9727.0192    508.53339     102002.7      46.7237      46.7237      46.7237 
  184000     127.5445   -11041.193   -9817.7548    105.27928     102002.7      46.7237      46.7237      46.7237 
  185000    127.07221   -11055.616   -9836.7085    239.90265     102002.7      46.7237      46.7237      46.7237 
  186000    133.19129   -11018.939   -9741.3351    412.19075     102002.7      46.7237      46.7237      46.7237 
  187000    129.38531   -11037.597   -9796.5009    314.99739     102002.7      46.7237      46.7237      46.7237 
  188000    128.66354   -11055.849   -9821.6765    422.71203     102002.7      46.7237      46.7237      46.7237 
  189000    132.99362    -11028.17   -9752.4624    261.13882     102002.7      46.7237      46.7237      46.7237 
  190000    128.75962   -11012.249    -9777.155    489.13754     102002.7      46.7237      46.7237      46.7237 
  191000    129.65713   -11020.858    -9777.155    276.75073     102002.7      46.7237      46.7237      46.7237 
  192000    128.86097    -11063.94   -9827.8734    763.78065     102002.7      46.7237      46.7237      46.7237 
  193000    133.32396   -11050.128   -9771.2521     626.8342     102002.7      46.7237      46.7237      46.7237 
  194000    128.31109   -11055.264   -9824.4721    194.59815     102002.7      46.7237      46.7237      46.7237 
  195000    129.23747   -11025.092   -9785.4146     160.2083     102002.7      46.7237      46.7237      46.7237 
  196000    130.45988   -11062.132   -9810.7291     224.8839     102002.7      46.7237      46.7237      46.7237 
  197000    130.38637    -11033.88   -9783.1822    97.169104     102002.7      46.7237      46.7237      46.7237 
  198000     126.3493   -11047.742   -9835.7679    514.14718     102002.7      46.7237      46.7237      46.7237 
  199000    128.85823   -11039.516    -9803.476    172.28676     102002.7      46.7237      46.7237      46.7237 
  200000     129.9187   -11047.545   -9801.3325    331.65322     102002.7      46.7237      46.7237      46.7237 
  201000    127.31363   -11027.496   -9806.2725    347.77496     102002.7      46.7237      46.7237      46.7237 
  202000    127.87624   -11046.732   -9820.1118    109.34777     102002.7      46.7237      46.7237      46.7237 
  203000    129.64868   -11036.144   -9792.5224    780.15657     102002.7      46.7237      46.7237      46.7237 
  204000    131.94337   -11022.838   -9757.2048    325.16522     102002.7      46.7237      46.7237      46.7237 
  205000    133.57068   -11004.559   -9723.3161    464.08699     102002.7      46.7237      46.7237      46.7237 
  206000     125.9556    -11025.98   -9817.7828    427.40974     102002.7      46.7237      46.7237      46.7237 
  207000    131.66497   -11063.635   -9800.6718    415.06682     102002.7      46.7237      46.7237      46.7237 
  208000     128.7666   -11061.296   -9826.1355    244.81014     102002.7      46.7237      46.7237      46.7237 
  209000    130.43381   -11036.017   -9784.8638    400.73248     102002.7      46.7237      46.7237      46.7237 
  210000    133.20257   -11035.835   -9758.1233    403.53396     102002.7      46.7237      46.7237      46.7237 
  211000    131.28508   -11024.005   -9764.6859    255.05812     102002.7      46.7237      46.7237      46.7237 
  212000    128.43611    -11037.11   -9805.1196    500.57955     102002.7      46.7237      46.7237      46.7237 
  213000    128.36906   -11049.268   -9817.9206    423.99565     102002.7      46.7237      46.7237      46.7237 
  214000    128.44171   -11052.261   -9820.2161    158.46321     102002.7      46.7237      46.7237      46.7237 
  215000    134.02098   -11036.307   -9750.7443    31.665371     102002.7      46.7237      46.7237      46.7237 
  216000    133.02498    -11068.73   -9792.7211    278.56186     102002.7      46.7237      46.7237      46.7237 
  217000     130.6133   -11039.102   -9786.2273    173.98634     102002.7      46.7237      46.7237      46.7237 
  218000    131.80527   -11044.803   -9780.4941    490.60789     102002.7      46.7237      46.7237      46.7237 
  219000    128.36549   -11019.343   -9788.0294    224.13267     102002.7      46.7237      46.7237      46.7237 
  220000    128.69241   -11038.482   -9804.0322     381.8623     102002.7      46.7237      46.7237      46.7237 
  221000    130.90019   -11042.698   -9787.0713    257.40698     102002.7      46.7237      46.7237      46.7237 
  222000    132.90832   -11019.899   -9745.0092    661.24835     102002.7      46.7237      46.7237      46.7237 
  223000    131.43855   -11030.659   -9769.8679    338.25201     102002.7      46.7237      46.7237      46.7237 
  224000    132.95277   -11057.801    -9782.485    275.75524     102002.7      46.7237      46.7237      46.7237 
  225000    129.65847   -11026.807   -9783.0914     494.4063     102002.7      46.7237      46.7237      46.7237 
  226000     130.8781   -11036.442   -9781.0269    305.26851     102002.7      46.7237      46.7237      46.7237 
  227000    127.44269   -11022.671   -9800.2096    318.79652     102002.7      46.7237      46.7237      46.7237 
  228000    133.03387   -11040.551   -9764.4569    284.69719     102002.7      46.7237      46.7237      46.7237 
  229000    128.23266   -11001.538    -9771.499    417.39188     102002.7      46.7237      46.7237      46.7237 
  230000    130.47309   -11051.466   -9799.9361    420.53265     102002.7      46.7237      46.7237      46.7237 
  231000      125.717   -11016.605   -9810.6967    322.63331     102002.7      46.7237      46.7237      46.7237 
  232000     131.1524   -11090.717   -9832.6703    24.290363     102002.7      46.7237      46.7237      46.7237 
  233000    128.44969   -11025.845   -9793.7238     604.9697     102002.7      46.7237      46.7237      46.7237 
  234000     132.1595   -11021.417   -9753.7104    401.58411     102002.7      46.7237      46.7237      46.7237 
  235000    130.77262   -11057.535   -9803.1316    292.15039     102002.7      46.7237      46.7237      46.7237 
  236000     132.5697   -11045.783   -9774.1422    527.64015     102002.7      46.7237      46.7237      46.7237 
  237000     132.3813   -11021.547   -9751.7125     269.8631     102002.7      46.7237      46.7237      46.7237 
  238000     129.9753   -11035.163    -9788.408   -8.4763771     102002.7      46.7237      46.7237      46.7237 
  239000     132.4994   -11033.538   -9762.5714    356.54705     102002.7      46.7237      46.7237      46.7237 
  240000    128.26117   -11037.649   -9807.3361    405.04751     102002.7      46.7237      46.7237      46.7237 
  241000    126.54154   -11059.672   -9845.8547    369.62881     102002.7      46.7237      46.7237      46.7237 
  242000    130.73951   -11045.886      -9791.8    196.20275     102002.7      46.7237      46.7237      46.7237 
  243000    128.03929   -11035.015   -9806.8303    26.275802     102002.7      46.7237      46.7237      46.7237 
  244000    128.01784    -11019.65   -9791.6718    76.890327     102002.7      46.7237      46.7237      46.7237 
  245000    132.73492   -11042.976     -9769.75    297.38545     102002.7      46.7237      46.7237      46.7237 
  246000    128.74351   -11052.781    -9817.842    88.137134     102002.7      46.7237      46.7237      46.7237 
  247000    130.51485   -11037.466   -9785.5358    132.36903     102002.7      46.7237      46.7237      46.7237 
  248000    129.80098   -11038.642   -9793.5592    274.26616     102002.7      46.7237      46.7237      46.7237 
  249000     129.5482   -11068.071   -9825.4125    448.52724     102002.7      46.7237      46.7237      46.7237 
  250000     132.4755   -11046.432   -9775.6939     242.8274     102002.7      46.7237      46.7237      46.7237 
  251000    128.48631   -11033.453   -9800.9804     537.9793     102002.7      46.7237      46.7237      46.7237 
  252000     131.5271   -11055.489   -9793.8491    201.79594     102002.7      46.7237      46.7237      46.7237 
  253000    131.47442   -11011.522    -9750.387     313.4729     102002.7      46.7237      46.7237      46.7237 
  254000      128.821   -11045.705   -9810.0223    487.45078     102002.7      46.7237      46.7237      46.7237 
  255000    126.57814   -11056.774   -9842.6051     274.2602     102002.7      46.7237      46.7237      46.7237 
  256000    131.06268   -11059.324   -9802.1385    469.20893     102002.7      46.7237      46.7237      46.7237 
  257000    129.43497   -11031.755   -9790.1827    393.81882     102002.7      46.7237      46.7237      46.7237 
  258000    127.20197   -11004.656   -9784.5036    442.02596     102002.7      46.7237      46.7237      46.7237 
  259000    128.57684   -11037.859   -9804.5182    524.93036     102002.7      46.7237      46.7237      46.7237 
  260000    132.06736   -11042.574   -9775.7509    225.27895     102002.7      46.7237      46.7237      46.7237 
  261000    133.74043   -11026.117   -9743.2457    26.526462     102002.7      46.7237      46.7237      46.7237 
  262000    129.55865   -11013.555   -9770.7968     274.9999     102002.7      46.7237      46.7237      46.7237 
  263000    127.14821   -11024.416    -9804.779    103.06474     102002.7      46.7237      46.7237      46.7237 
  264000    127.62636   -11036.741   -9812.5176    291.31811     102002.7      46.7237      46.7237      46.7237 
  265000    125.86779   -11014.978   -9807.6234    585.00657     102002.7      46.7237      46.7237      46.7237 
  266000    132.77784   -11043.307   -9769.6695      384.907     102002.7      46.7237      46.7237      46.7237 
  267000    129.76871   -11064.107   -9819.3333    12.394805     102002.7      46.7237      46.7237      46.7237 
  268000    127.86339   -11035.144   -9808.6472    370.18832     102002.7      46.7237      46.7237      46.7237 
  269000    130.22247   -11021.803    -9772.677   -6.3802194     102002.7      46.7237      46.7237      46.7237 
  270000    132.23855   -11026.808   -9758.3433    280.17934     102002.7      46.7237      46.7237      46.7237 
  271000    132.62015   -11036.851   -9764.7258    398.32843     102002.7      46.7237      46.7237      46.7237 
  272000     126.6819   -11038.233   -9823.0688    293.89693     102002.7      46.7237      46.7237      46.7237 
  273000     129.8563   -11055.333    -9809.719    475.10562     102002.7      46.7237      46.7237      46.7237 
  274000    127.96879   -11021.221   -9793.7132    343.86281     102002.7      46.7237      46.7237      46.7237 
  275000    131.63347   -11010.695   -9748.0347     155.8916     102002.7      46.7237      46.7237      46.7237 
  276000      132.762   -11034.364   -9760.8785    605.77825     102002.7      46.7237      46.7237      46.7237 
  277000    127.71872   -11024.879   -9799.7691    542.13341     102002.7      46.7237      46.7237      46.7237 
  278000    127.32192   -11027.367   -9806.0639    310.63952     102002.7      46.7237      46.7237      46.7237 
  279000    129.78403   -11049.947   -9805.0265    169.84658     102002.7      46.7237      46.7237      46.7237 
  280000    130.12116   -11032.283   -9784.1292    542.87762     102002.7      46.7237      46.7237      46.7237 
  281000     129.3931   -11075.665    -9834.494    127.65391     102002.7      46.7237      46.7237      46.7237 
  282000    126.74536   -11030.975   -9815.2025    136.32846     102002.7      46.7237      46.7237      46.7237 
  283000     128.9815   -11026.658   -9789.4361    323.10559     102002.7      46.7237      46.7237      46.7237 
  284000    133.88634   -11043.995   -9759.7245    262.06173     102002.7      46.7237      46.7237      46.7237 
  285000    133.81716   -11028.351   -9744.7435    237.53387     102002.7      46.7237      46.7237      46.7237 
  286000    131.51748   -11015.893   -9754.3451    187.44986     102002.7      46.7237      46.7237      46.7237 
  287000     133.4554   -11024.838    -9744.701    120.49867     102002.7      46.7237      46.7237      46.7237 
  288000    131.56006    -11038.99   -9777.0331    394.65503     102002.7      46.7237      46.7237      46.7237 
  289000     132.4947   -11018.984   -9748.0625    713.48861     102002.7      46.7237      46.7237      46.7237 
  290000     129.3823   -11047.467   -9806.3996     587.7013     102002.7      46.7237      46.7237      46.7237 
  291000    131.11485   -11058.766   -9801.0796    323.95669     102002.7      46.7237      46.7237      46.7237 
  292000    131.69134   -11029.642   -9766.4265    174.39019     102002.7      46.7237      46.7237      46.7237 
  293000    130.06464   -11057.016    -9809.404    668.50398     102002.7      46.7237      46.7237      46.7237 
  294000    132.39413   -11022.251   -9752.2934    207.33979     102002.7      46.7237      46.7237      46.7237 
  295000    130.88293   -11046.879    -9791.418    340.11688     102002.7      46.7237      46.7237      46.7237 
  296000    129.89038   -11036.132   -9790.1913    293.70129     102002.7      46.7237      46.7237      46.7237 
  297000    129.03305   -11063.576   -9825.8592    422.81602     102002.7      46.7237      46.7237      46.7237 
  298000    131.59378   -11015.912   -9753.6317    377.75951     102002.7      46.7237      46.7237      46.7237 
  299000     130.7344   -11024.073   -9770.0364    392.08378     102002.7      46.7237      46.7237      46.7237 
  300000    131.74511   -11064.059   -9800.3273    354.68077     102002.7      46.7237      46.7237      46.7237 
  301000    130.33479   -11022.247   -9772.0432    769.11388     102002.7      46.7237      46.7237      46.7237 
  302000    132.08158   -11045.319     -9778.36    445.08174     102002.7      46.7237      46.7237      46.7237 
  303000    129.25867   -11062.667   -9822.7856    453.34708     102002.7      46.7237      46.7237      46.7237 
  304000    132.08302   -11024.191    -9757.218    540.52743     102002.7      46.7237      46.7237      46.7237 
  305000    128.94707   -11031.531    -9794.639    341.76766     102002.7      46.7237      46.7237      46.7237 
  306000    131.35888   -11014.792    -9754.765    741.15179     102002.7      46.7237      46.7237      46.7237 
  307000    130.73975   -11026.477   -9772.3887     443.7743     102002.7      46.7237      46.7237      46.7237 
  308000    128.48513   -11041.697   -9809.2359     655.7405     102002.7      46.7237      46.7237      46.7237 
  309000     128.4012   -11077.889   -9846.2333    268.66883     102002.7      46.7237      46.7237      46.7237 
  310000    129.59502   -11049.233   -9806.1257    110.99854     102002.7      46.7237      46.7237      46.7237 
  311000    130.95176   -11016.464   -9760.3421    326.17026     102002.7      46.7237      46.7237      46.7237 
  312000    130.07741   -11070.076   -9822.3413    409.48164     102002.7      46.7237      46.7237      46.7237 
  313000    129.67434   -11075.749   -9831.8804    230.90745     102002.7      46.7237      46.7237      46.7237 
  314000    127.98752   -11049.297   -9821.6095    266.30998     102002.7      46.7237      46.7237      46.7237 
  315000    132.83411   -11004.251    -9730.073    257.03896     102002.7      46.7237      46.7237      46.7237 
  316000    132.52227   -11037.207   -9766.0211    507.68815     102002.7      46.7237      46.7237      46.7237 
  317000    131.98268   -11033.036   -9767.0258    771.57911     102002.7      46.7237      46.7237      46.7237 
  318000    129.61021   -11037.241   -9793.9874    605.23026     102002.7      46.7237      46.7237      46.7237 
  319000    130.49882   -11029.125   -9777.3482    548.08872     102002.7      46.7237      46.7237      46.7237 
  320000     127.6064   -11035.407   -9811.3746    487.61914     102002.7      46.7237      46.7237      46.7237 
  321000      127.887   -11056.245   -9829.5218    124.99524     102002.7      46.7237      46.7237      46.7237 
  322000    130.87256   -11038.142   -9782.7803    181.48201     102002.7      46.7237      46.7237      46.7237 
  323000    128.60089   -11047.434   -9813.8628    173.26328     102002.7      46.7237      46.7237      46.7237 
  324000     128.5059   -11016.209   -9783.5492    412.44495     102002.7      46.7237      46.7237      46.7237 
  325000    129.40259   -11045.187   -9803.9251    52.017848     102002.7      46.7237      46.7237      46.7237 
  326000     128.8433   -11045.134   -9809.2377    403.92269     102002.7      46.7237      46.7237      46.7237 
  327000     126.9446   -11073.268    -9855.584    326.75378     102002.7      46.7237      46.7237      46.7237 
  328000    128.56897   -11044.931   -9811.6655    496.78134     102002.7      46.7237      46.7237      46.7237 
  329000     130.5606   -11019.745   -9767.3759    447.15945     102002.7      46.7237      46.7237      46.7237 
  330000     131.8583   -11033.361    -9768.544    441.32486     102002.7      46.7237      46.7237      46.7237 
  331000     133.0517   -11018.172   -9741.9072    498.33576     102002.7      46.7237      46.7237      46.7237 
  332000    129.39658    -11037.38   -9796.1757    425.83978     102002.7      46.7237      46.7237      46.7237 
  333000    128.21296   -11033.186    -9803.336    547.52943     102002.7      46.7237      46.7237      46.7237 
  334000     125.7576   -11016.802   -9810.5045    184.79657     102002.7      46.7237      46.7237      46.7237 
  335000     129.2481   -11039.228   -9799.4479     567.4066     102002.7      46.7237      46.7237      46.7237 
  336000    130.35336   -11043.692   -9793.3107    553.90445     102002.7      46.7237      46.7237      46.7237 
  337000    127.27682   -11069.909   -9849.0388    398.03316     102002.7      46.7237      46.7237      46.7237 
  338000    127.42142   -11028.223   -9805.9654    579.74282     102002.7      46.7237      46.7237      46.7237 
  339000    131.63961   -11030.825   -9768.1058    344.70867     102002.7      46.7237      46.7237      46.7237 
  340000    131.61382   -11058.067   -9795.5943     515.6571     102002.7      46.7237      46.7237      46.7237 
  341000    129.17655   -11056.171   -9817.0773    446.10274     102002.7      46.7237      46.7237      46.7237 
  342000    128.05905   -11040.628   -9812.2539    253.48349     102002.7      46.7237      46.7237      46.7237 
  343000    130.36837   -11066.181   -9815.6557    413.62286     102002.7      46.7237      46.7237      46.7237 
  344000    133.49478   -11024.713   -9744.1986    844.81481     102002.7      46.7237      46.7237      46.7237 
  345000     130.5313    -11037.11   -9785.0216    540.58611     102002.7      46.7237      46.7237      46.7237 
  346000    129.24703    -11054.45    -9814.681    442.25492     102002.7      46.7237      46.7237      46.7237 
  347000    133.69076   -11029.948   -9747.5532    630.44474     102002.7      46.7237      46.7237      46.7237 
  348000    130.94922   -11040.533   -9784.4356    367.46816     102002.7      46.7237      46.7237      46.7237 
  349000    129.51135   -11014.245   -9771.9406    609.71438     102002.7      46.7237      46.7237      46.7237 
  350000    129.10994   -11029.699   -9791.2449     555.6474     102002.7      46.7237      46.7237      46.7237 
  351000    132.46404   -11031.396   -9760.7686    493.25625     102002.7      46.7237      46.7237      46.7237 
  352000    130.41056   -11039.803   -9788.8729    241.83299     102002.7      46.7237      46.7237      46.7237 
  353000    132.03071   -11077.419   -9810.9476    233.37442     102002.7      46.7237      46.7237      46.7237 
  354000    130.52365   -11023.319   -9771.3039    228.03275     102002.7      46.7237      46.7237      46.7237 
  355000    131.77424   -11053.888   -9789.8771    189.17233     102002.7      46.7237      46.7237      46.7237 
  356000    134.38793   -11062.855   -9773.7732    501.30446     102002.7      46.7237      46.7237      46.7237 
  357000     131.6093    -11071.96   -9809.5313    199.64516     102002.7      46.7237      46.7237      46.7237 
  358000    133.43371   -11031.941   -9752.0119      353.455     102002.7      46.7237      46.7237      46.7237 
  359000    130.98425   -11050.461   -9794.0272    529.80222     102002.7      46.7237      46.7237      46.7237 
  360000    129.52644   -11015.523   -9773.0736    458.33386     102002.7      46.7237      46.7237      46.7237 
  361000    130.05247   -11019.636   -9772.1402    562.34053     102002.7      46.7237      46.7237      46.7237 
  362000    128.62859   -11021.933   -9788.0955    630.40948     102002.7      46.7237      46.7237      46.7237 
  363000    128.20544   -11029.428   -9799.6501    475.42324     102002.7      46.7237      46.7237      46.7237 
  364000    128.11963    -11027.63   -9798.6745    338.81753     102002.7      46.7237      46.7237      46.7237 
  365000    127.04515   -11048.254   -9829.6057    486.00251     102002.7      46.7237      46.7237      46.7237 
  366000    129.69556   -11053.636   -9809.5637    433.28085     102002.7      46.7237      46.7237      46.7237 
  367000    128.92603   -11030.143   -9793.4532    579.08428     102002.7      46.7237      46.7237      46.7237 
  368000    131.27587   -11044.111   -9784.8804    331.89737     102002.7      46.7237      46.7237      46.7237 
  369000    130.11907   -11031.672    -9783.538    306.05928     102002.7      46.7237      46.7237      46.7237 
  370000    132.62933   -11044.834   -9772.6209    764.57524     102002.7      46.7237      46.7237      46.7237 
  371000    128.40095   -11042.487   -9810.8338    566.19828     102002.7      46.7237      46.7237      46.7237 
  372000    129.83381   -11052.448   -9807.0504    340.01063     102002.7      46.7237      46.7237      46.7237 
  373000    131.56425   -11053.446   -9791.4493    559.42426     102002.7      46.7237      46.7237      46.7237 
  374000    132.39422    -11057.25   -9787.2915     267.0072     102002.7      46.7237      46.7237      46.7237 
  375000    127.68981   -11045.204   -9820.3721    136.76462     102002.7      46.7237      46.7237      46.7237 
  376000    135.97682   -11031.658   -9727.3349    490.84628     102002.7      46.7237      46.7237      46.7237 
  377000     132.0156    -11015.58   -9749.2539    553.49501     102002.7      46.7237      46.7237      46.7237 
  378000    129.59722   -11023.677   -9780.5487    567.18195     102002.7      46.7237      46.7237      46.7237 
  379000    130.09404   -11034.431    -9786.537    556.88624     102002.7      46.7237      46.7237      46.7237 
  380000    127.92051   -11055.114   -9828.0688    76.696075     102002.7      46.7237      46.7237      46.7237 
  381000    127.64819   -11030.553   -9806.1203     284.6367     102002.7      46.7237      46.7237      46.7237 
  382000    128.64496   -11042.358   -9808.3637     444.6038     102002.7      46.7237      46.7237      46.7237 
  383000    129.51879   -10996.198   -9753.8218     420.4234     102002.7      46.7237      46.7237      46.7237 
  384000    128.12573   -11077.321   -9848.3071    25.902093     102002.7      46.7237      46.7237      46.7237 
  385000    129.66704   -11037.606   -9793.8073    259.33783     102002.7      46.7237      46.7237      46.7237 
  386000     129.4733   -11065.199   -9823.2586    449.23866     102002.7      46.7237      46.7237      46.7237 
  387000    130.97036   -11039.191   -9782.8907    222.44911     102002.7      46.7237      46.7237      46.7237 
  388000    132.27441   -11045.232   -9776.4231    405.78406     102002.7      46.7237      46.7237      46.7237 
  389000    131.20927   -11029.984   -9771.3918    443.24266     102002.7      46.7237      46.7237      46.7237 
  390000     128.5172   -11055.785   -9823.0164    451.87144     102002.7      46.7237      46.7237      46.7237 
  391000    130.84746   -11017.171   -9762.0501      572.942     102002.7      46.7237      46.7237      46.7237 
  392000    130.08994   -11039.394    -9791.539    650.90153     102002.7      46.7237      46.7237      46.7237 
  393000    130.36075   -11030.808    -9780.356    827.08274     102002.7      46.7237      46.7237      46.7237 
  394000    125.31917   -11058.803   -9856.7106    269.80225     102002.7      46.7237      46.7237      46.7237 
  395000    131.17449   -11031.802   -9773.5441    484.16904     102002.7      46.7237      46.7237      46.7237 
  396000    131.62546   -11033.241   -9770.6575    492.39511     102002.7      46.7237      46.7237      46.7237 
  397000    125.13063   -11023.963   -9823.6794    549.74757     102002.7      46.7237      46.7237      46.7237 
  398000    129.41886   -11060.138   -9818.7203    383.10136     102002.7      46.7237      46.7237      46.7237 
  399000    130.43246   -11020.446   -9769.3055      538.697     102002.7      46.7237      46.7237      46.7237 
  400000     131.3432   -11010.573   -9750.6963    700.86802     102002.7      46.7237      46.7237      46.7237 
  401000    131.79635   -11043.306   -9779.0825    454.61349     102002.7      46.7237      46.7237      46.7237 
  402000    129.36709   -11041.876   -9800.9554    327.01643     102002.7      46.7237      46.7237      46.7237 
  403000    127.29466   -11037.672   -9816.6306    155.24556     102002.7      46.7237      46.7237      46.7237 
  404000    130.12456   -11026.202    -9778.015    320.60991     102002.7      46.7237      46.7237      46.7237 
  405000    129.22383   -11029.656    -9790.109    703.70646     102002.7      46.7237      46.7237      46.7237 
  406000     131.8346   -11050.489   -9785.8988    553.81299     102002.7      46.7237      46.7237      46.7237 
  407000    126.80919   -11028.678   -9812.2932    148.85728     102002.7      46.7237      46.7237      46.7237 
  408000    130.86393   -11032.536   -9777.2572    587.07142     102002.7      46.7237      46.7237      46.7237 
  409000    130.03154    -11009.53   -9762.2351    62.168567     102002.7      46.7237      46.7237      46.7237 
  410000    129.41328    -11053.14   -9811.7761    453.30081     102002.7      46.7237      46.7237      46.7237 
  411000    127.78762   -11053.171    -9827.401    413.19663     102002.7      46.7237      46.7237      46.7237 
  412000    131.95387   -11046.129   -9780.3951    529.54217     102002.7      46.7237      46.7237      46.7237 
  413000    130.08787   -11029.242   -9781.4068    510.50584     102002.7      46.7237      46.7237      46.7237 
  414000    134.05297   -11004.485    -9718.616    297.98353     102002.7      46.7237      46.7237      46.7237 
  415000     129.2082     -10989.5   -9750.1029    483.22283     102002.7      46.7237      46.7237      46.7237 
  416000    130.58395   -11058.596   -9806.0029    363.76472     102002.7      46.7237      46.7237      46.7237 
  417000    129.46883   -11061.907   -9820.0102    381.53649     102002.7      46.7237      46.7237      46.7237 
  418000    127.51332   -11027.399   -9804.2598    496.16509     102002.7      46.7237      46.7237      46.7237 
  419000    128.41388   -11017.964   -9786.1862    557.98923     102002.7      46.7237      46.7237      46.7237 
  420000    129.21465   -11046.464   -9807.0053    67.755075     102002.7      46.7237      46.7237      46.7237 
  421000    129.52994   -10997.505   -9755.0214    526.92083     102002.7      46.7237      46.7237      46.7237 
  422000    130.26508   -11016.872   -9767.3375    240.92094     102002.7      46.7237      46.7237      46.7237 
  423000    133.70016    -11040.93   -9758.4453    265.30375     102002.7      46.7237      46.7237      46.7237 
  424000    128.03413   -11037.792   -9809.6569    219.59303     102002.7      46.7237      46.7237      46.7237 
  425000    128.96087   -11028.973   -9791.9483    342.89648     102002.7      46.7237      46.7237      46.7237 
  426000     128.8158   -11053.106    -9817.473     464.7272     102002.7      46.7237      46.7237      46.7237 
  427000    128.38008   -11050.473   -9819.0198    675.48821     102002.7      46.7237      46.7237      46.7237 
  428000    129.58907   -11033.813   -9790.7625     355.6132     102002.7      46.7237      46.7237      46.7237 
  429000    132.29236   -11058.347   -9789.3658    386.08207     102002.7      46.7237      46.7237      46.7237 
  430000     132.9413   -11038.217   -9763.0116    605.32077     102002.7      46.7237      46.7237      46.7237 
  431000    130.27421   -11040.126   -9790.5033    54.667399     102002.7      46.7237      46.7237      46.7237 
  432000    131.12983   -11070.197   -9812.3676    573.08839     102002.7      46.7237      46.7237      46.7237 
  433000    132.25572   -11038.083   -9769.4537     545.4017     102002.7      46.7237      46.7237      46.7237 
  434000    128.98497    -11057.57    -9820.314    472.57693     102002.7      46.7237      46.7237      46.7237 
  435000    130.59213   -11062.599   -9809.9266    349.49613     102002.7      46.7237      46.7237      46.7237 
  436000    130.15467   -11021.882   -9773.4062    243.53443     102002.7      46.7237      46.7237      46.7237 
  437000    129.41336   -11032.165   -9790.8003    279.20805     102002.7      46.7237      46.7237      46.7237 
  438000    130.14048   -11017.157   -9768.8176    14.009605     102002.7      46.7237      46.7237      46.7237 
  439000    128.70438   -11036.836   -9802.2718    520.81609     102002.7      46.7237      46.7237      46.7237 
  440000    135.00298   -11041.051    -9746.069    360.45867     102002.7      46.7237      46.7237      46.7237 
  441000    126.74423   -11037.482   -9821.7201    345.06836     102002.7      46.7237      46.7237      46.7237 
  442000    129.58071    -11008.99   -9766.0201    492.99068     102002.7      46.7237      46.7237      46.7237 
  443000    130.74656   -11054.857   -9800.7038    487.44325     102002.7      46.7237      46.7237      46.7237 
  444000    132.59695   -11032.792   -9760.8889    332.28951     102002.7      46.7237      46.7237      46.7237 
  445000    134.47724   -11012.134   -9722.1946    367.48745     102002.7      46.7237      46.7237      46.7237 
  446000    129.39232   -11028.705   -9787.5423    589.33642     102002.7      46.7237      46.7237      46.7237 
  447000    130.46909   -11032.258   -9780.7661    557.22014     102002.7      46.7237      46.7237      46.7237 
  448000    132.19482   -11024.027   -9755.9816    246.40938     102002.7      46.7237      46.7237      46.7237 
  449000    129.80046   -11041.695   -9796.6173    628.07655     102002.7      46.7237      46.7237      46.7237 
  450000    130.62279   -11025.312   -9772.3456    413.32819     102002.7      46.7237      46.7237      46.7237 
  451000    131.23067   -11048.909   -9790.1125     356.9542     102002.7      46.7237      46.7237      46.7237 
  452000    129.23692   -11030.334   -9790.6611    504.18114     102002.7      46.7237      46.7237      46.7237 
  453000    132.00108    -11071.98   -9805.7932    259.76208     102002.7      46.7237      46.7237      46.7237 
  454000    129.16733   -11033.192   -9794.1871    270.80175     102002.7      46.7237      46.7237      46.7237 
  455000    132.29318   -11028.395   -9759.4065    584.40643     102002.7      46.7237      46.7237      46.7237 
  456000    129.99605   -11016.419   -9769.4644    443.51546     102002.7      46.7237      46.7237      46.7237 
  457000    131.61989   -11023.458   -9760.9277    226.89796     102002.7      46.7237      46.7237      46.7237 
  458000    128.69442   -11028.436   -9793.9671     398.2234     102002.7      46.7237      46.7237      46.7237 
  459000    128.40998   -11029.262   -9797.5218    139.89623     102002.7      46.7237      46.7237      46.7237 
  460000    130.02661   -11027.545   -9780.2974    249.65258     102002.7      46.7237      46.7237      46.7237 
  461000    129.25559   -11030.714   -9790.8621    326.84758     102002.7      46.7237      46.7237      46.7237 
  462000    130.60633   -11036.717    -9783.909    530.75824     102002.7      46.7237      46.7237      46.7237 
  463000    127.82656   -11038.057   -9811.9133   -47.410788     102002.7      46.7237      46.7237      46.7237 
  464000    129.43096   -11051.254   -9809.7202    142.63695     102002.7      46.7237      46.7237      46.7237 
  465000    129.02107     -11080.2   -9842.5976    504.16871     102002.7      46.7237      46.7237      46.7237 
  466000    129.28723   -11047.603   -9807.4481    142.28302     102002.7      46.7237      46.7237      46.7237 
  467000    126.48847   -11056.495   -9843.1864    611.63095     102002.7      46.7237      46.7237      46.7237 
  468000    125.70003   -11038.002   -9832.2565    411.19922     102002.7      46.7237      46.7237      46.7237 
  469000    134.62788   -11043.284   -9751.9001    444.75338     102002.7      46.7237      46.7237      46.7237 
  470000    130.78958    -11033.69   -9779.1245    337.17827     102002.7      46.7237      46.7237      46.7237 
  471000    134.35653   -11047.891   -9759.1105    261.02294     102002.7      46.7237      46.7237      46.7237 
  472000    127.55463   -11037.043    -9813.508    338.12821     102002.7      46.7237      46.7237      46.7237 
  473000     130.3066   -11031.518   -9781.5854    598.49134     102002.7      46.7237      46.7237      46.7237 
  474000    131.65366    -11040.32   -9777.4658    518.04941     102002.7      46.7237      46.7237      46.7237 
  475000    130.24884   -11040.591   -9791.2117    353.12627     102002.7      46.7237      46.7237      46.7237 
  476000    130.25147   -11068.441   -9819.0362    228.42514     102002.7      46.7237      46.7237      46.7237 
  477000    127.76512   -11025.226   -9799.6714    215.10506     102002.7      46.7237      46.7237      46.7237 
  478000    132.48885   -11047.196   -9776.3308    379.93884     102002.7      46.7237      46.7237      46.7237 
  479000     132.6566   -11061.115   -9788.6397    408.81489     102002.7      46.7237      46.7237      46.7237 
  480000    128.80822    -11028.18   -9792.6201    518.46123     102002.7      46.7237      46.7237      46.7237 
  481000     128.7748   -11033.662   -9798.4218    302.16393     102002.7      46.7237      46.7237      46.7237 
  482000    127.08137   -11072.297   -9853.3011    248.31878     102002.7      46.7237      46.7237      46.7237 
  483000     132.0992   -11032.326   -9765.1981    451.60962     102002.7      46.7237      46.7237      46.7237 
  484000     129.0405   -11037.484   -9799.6953    733.47693     102002.7      46.7237      46.7237      46.7237 
  485000    128.66329   -11030.007   -9795.8369     88.77852     102002.7      46.7237      46.7237      46.7237 
  486000    128.21385   -11049.241   -9819.3817    518.60419     102002.7      46.7237      46.7237      46.7237 
  487000    128.75446   -11031.246   -9796.2019    370.14182     102002.7      46.7237      46.7237      46.7237 
  488000    129.23765   -11009.493   -9769.8135    423.08749     102002.7      46.7237      46.7237      46.7237 
  489000    129.06678   -11048.573    -9810.533    555.85846     102002.7      46.7237      46.7237      46.7237 
  490000    133.84828   -11067.633   -9783.7273   -53.081192     102002.7      46.7237      46.7237      46.7237 
  491000    129.49389   -11020.186   -9778.0487    436.81465     102002.7      46.7237      46.7237      46.7237 
  492000    128.02143   -11007.224    -9779.211    310.32821     102002.7      46.7237      46.7237      46.7237 
  493000     129.7574   -11054.602   -9809.9373    58.321227     102002.7      46.7237      46.7237      46.7237 
  494000    130.18521   -11030.269   -9781.5007    278.25181     102002.7      46.7237      46.7237      46.7237 
  495000    128.72664   -11027.713   -9792.9348    258.45459     102002.7      46.7237      46.7237      46.7237 
  496000    125.32883    -11069.78   -9867.5952    338.72862     102002.7      46.7237      46.7237      46.7237 
  497000     130.6019   -11049.997   -9797.2312     323.4812     102002.7      46.7237      46.7237      46.7237 
  498000    129.92232   -11025.084   -9778.8369   -113.35189     102002.7      46.7237      46.7237      46.7237 
  499000    130.45656   -11078.059   -9826.6878    153.67051     102002.7      46.7237      46.7237      46.7237 
  500000    130.21307   -11029.617   -9780.5812    519.16357     102002.7      46.7237      46.7237      46.7237 
  500500    129.65425    -11052.21   -9808.5343    477.17707     102002.7      46.7237      46.7237      46.7237 
Loop time of 1919.9 on 16 procs for 500000 steps with 3219 atoms

Performance: 22.501 ns/day, 1.067 hours/ns, 260.431 timesteps/s
99.8% CPU use with 16 MPI tasks x no OpenMP threads

MPI task timing breakdown:
Section |  min time  |  avg time  |  max time  |%varavg| %total
---------------------------------------------------------------
Pair    | 908.08     | 1172.8     | 1447       | 535.2 | 61.08
Bond    | 150.06     | 174.8      | 204.5      | 126.7 |  9.10
Neigh   | 18.1       | 18.158     | 18.214     |   0.9 |  0.95
Comm    | 251.79     | 537.31     | 826.22     | 851.8 | 27.99
Output  | 0.021215   | 0.021688   | 0.025134   |   0.6 |  0.00
Modify  | 9.5364     | 10.027     | 10.597     |  11.1 |  0.52
Other   |            | 6.819      |            |       |  0.36

Nlocal:    201.188 ave 219 max 178 min
Histogram: 2 3 0 0 2 1 1 1 0 6
Nghost:    4091.81 ave 4114 max 4067 min
Histogram: 1 3 1 2 1 0 1 3 1 3
Neighs:    11457.5 ave 15909 max 7913 min
Histogram: 1 1 3 3 3 2 1 0 0 2

Total # of neighbors = 183320
Ave neighs/atom = 56.9494
Ave special neighs/atom = 3.57875
Neighbor list builds = 5088
Dangerous builds = 0
Neighbor list info ...
  update every 1 steps, delay 10 steps, check yes
  max neighbors/atom: 2000, page size: 100000
  master list distance cutoff = 16
  ghost atom cutoff = 16
  binsize = 8, bins = 6 6 6
  3 neighbor lists, perpetual/occasional/extra = 3 0 0
  (1) pair buck6d/coul/gauss/dsf, perpetual, skip from (3)
      attributes: half, newton on
      pair build: skip
      stencil: none
      bin: none
  (2) pair lj/cut, perpetual, skip from (3)
      attributes: half, newton on
      pair build: skip
      stencil: none
      bin: none
  (3) neighbor class addition, perpetual
      attributes: half, newton on
      pair build: half/bin/newton
      stencil: half/bin/3d/newton
      bin: standard
Setting up Verlet run ...
  Unit style    : real
  Current step  : 500500
  Time step     : 1
WARNING: Inconsistent image flags (../domain.cpp:786)
Per MPI rank memory allocation (min/avg/max) = 22.98 | 23.34 | 23.44 Mbytes
Step Time TotEng KinEng PotEng E_mol E_pair Temp Pxx Pyy Pzz Pxy Pxz Pyz Cella Cellb Cellc CellAlpha CellBeta CellGamma Volume Press 
  500500       500000   -9808.5343    1243.6755    -11052.21    4343.1438   -15395.354    129.65425    313.27302      581.567    536.69118    111.75593   -350.74266   -98.144539      46.7237      46.7237      46.7237           90           90           90     102002.7    477.17707 
  501000       500500   -9809.7288     1224.756   -11034.485    4350.3051    -15384.79    127.68187    522.47883   -22.946348    458.92108    128.14458    15.466032   -177.49196      46.7237      46.7237      46.7237           90           90           90     102002.7    319.48452 
  502000       501500   -9789.2781    1241.4729   -11030.751     4372.588   -15403.339    129.42462     106.6153    717.17616    855.97803    194.23923   -74.299814    258.48699      46.7237      46.7237      46.7237           90           90           90     102002.7    559.92316 
  503000       502500   -9776.1533    1256.1265    -11032.28    4387.3842   -15419.664    130.95227    49.849425    930.83491    16.541603    99.724616   -116.36742   -130.47237      46.7237      46.7237      46.7237           90           90           90     102002.7    332.40865 
  504000       503500   -9797.1166     1258.187   -11055.304    4352.2034   -15407.507    131.16708    649.68878    579.62288    182.69017    189.31939   -2.9417948     179.5268      46.7237      46.7237      46.7237           90           90           90     102002.7    470.66728 
  505000       504500   -9852.9079    1228.3262   -11081.234    4331.3207   -15412.555    128.05407    694.47579    204.65517    291.41643    249.51212   -43.779583   -135.61055      46.7237      46.7237      46.7237           90           90           90     102002.7    396.84913 
  506000       505500   -9772.3949    1260.3166   -11032.711    4382.1186    -15414.83    131.38909    354.76068  -0.12678955    389.16293   -197.29996   -42.721664   -252.67225      46.7237      46.7237      46.7237           90           90           90     102002.7    247.93227 
  507000       506500   -9761.1753    1239.6959   -11000.871    4393.5834   -15394.455    129.23937   -177.78885    141.70366    74.885976    64.526656    194.52079     11.30815      46.7237      46.7237      46.7237           90           90           90     102002.7    12.933595 
  508000       507500   -9797.2665    1228.2078   -11025.474    4396.0869   -15421.561    128.04172    555.06837    149.55012    406.78261    25.043667   -131.73213    136.38941      46.7237      46.7237      46.7237           90           90           90     102002.7    370.46703 
  509000       508500   -9810.9525    1225.7581   -11036.711    4370.4971   -15407.208    127.78634   -71.285458    195.75504    256.86497    5.5556467    275.38746   -151.24833      46.7237      46.7237      46.7237           90           90           90     102002.7    127.11152 
  510000       509500   -9822.7636    1218.3526   -11041.116    4374.8849   -15416.001    127.01431     366.9998   -99.606419    386.11612    95.566658   -299.96754    197.58206      46.7237      46.7237      46.7237           90           90           90     102002.7     217.8365 
  511000       510500   -9743.7476    1265.8573   -11009.605    4399.5465   -15409.151    131.96672   -105.43794    143.18789    366.30367   -123.97635    68.052173   -5.6332248      46.7237      46.7237      46.7237           90           90           90     102002.7    134.68454 
  512000       511500   -9800.1259    1221.4605   -11021.586    4372.9213   -15394.508    127.33831    170.80283    372.75942   -66.588851     25.57739    91.706259     150.8115      46.7237      46.7237      46.7237           90           90           90     102002.7    158.99113 
  513000       512500   -9808.7321    1249.7424   -11058.475    4357.7489   -15416.223    130.28672    57.899984    393.89723    197.03797     43.25553    81.672282    135.05907      46.7237      46.7237      46.7237           90           90           90     102002.7     216.2784 
  514000       513500   -9797.5558    1246.2091   -11043.765    4377.6228   -15421.388    129.91838    658.28599    515.60326      91.5747   -49.072483      102.209    13.779323      46.7237      46.7237      46.7237           90           90           90     102002.7    421.82132 
  515000       514500   -9758.1878    1251.5204   -11009.708    4378.0575   -15387.766    130.47208    901.29945    404.28551    439.26689   -21.606525   -46.397136    44.078314      46.7237      46.7237      46.7237           90           90           90     102002.7    581.61729 
  516000       515500   -9761.0954    1274.8766   -11035.972    4362.7018   -15398.674    132.90699    698.06973    1146.2584    740.74574    89.587775    26.534062    60.658525      46.7237      46.7237      46.7237           90           90           90     102002.7    861.69129 
  517000       516500   -9783.3393    1245.0093   -11028.349    4383.5734   -15411.922     129.7933     439.8763     549.6316    1210.5837   -74.146246   -31.105454   -213.91602      46.7237      46.7237      46.7237           90           90           90     102002.7    733.36385 
  518000       517500   -9812.0993    1210.9408    -11023.04    4372.8188   -15395.859    126.24163    692.63394    585.89983    378.05893    84.730306   -157.90439   -128.56735      46.7237      46.7237      46.7237           90           90           90     102002.7    552.19757 
  519000       518500   -9777.8127      1247.23   -11025.043    4366.1361   -15391.179    130.02481    495.67985    356.53672      789.606    173.40449   -246.54224   -49.558287      46.7237      46.7237      46.7237           90           90           90     102002.7    547.27419 
  520000       519500   -9813.2159    1247.9189   -11061.135    4334.5959   -15395.731    130.09662    773.42547   -55.123357    579.92037    40.571198    45.612299     24.71738      46.7237      46.7237      46.7237           90           90           90     102002.7    432.74083 
  521000       520500     -9781.58    1252.7935   -11034.373    4396.9247   -15431.298     130.6048    522.25516   -24.265754   -2.4867186     1.788865    152.53234     207.4926      46.7237      46.7237      46.7237           90           90           90     102002.7    165.16756 
  522000       521500   -9817.2069    1232.2873   -11049.494    4359.3404   -15408.835    128.46702    142.17211    544.26019     818.5149    146.58104   -203.43734   -155.75797      46.7237      46.7237      46.7237           90           90           90     102002.7    501.64907 
  523000       522500   -9800.8623    1232.3358   -11033.198     4382.162    -15415.36    128.47207    514.65441   -41.758948    123.72102    228.38912    192.60632    263.18681      46.7237      46.7237      46.7237           90           90           90     102002.7    198.87216 
  524000       523500   -9792.9921    1261.3525   -11054.345    4367.3843   -15421.729    131.49709     398.8783    440.62702   -253.91877    134.76635   -52.850024    352.50425      46.7237      46.7237      46.7237           90           90           90     102002.7    195.19551 
  525000       524500   -9760.4069    1257.5549   -11017.962    4388.4948   -15406.457    131.10118    42.054623    414.23779    485.53478   -153.90966    103.53296    122.85174      46.7237      46.7237      46.7237           90           90           90     102002.7     313.9424 
  526000       525500   -9817.4688    1234.8151   -11052.284    4357.9017   -15410.186    128.73054    759.07453    224.97228    61.788819   -334.26643    167.32541    265.65923      46.7237      46.7237      46.7237           90           90           90     102002.7    348.61187 
  527000       526500   -9772.5165    1262.1445   -11034.661     4373.627   -15408.288    131.57966   -96.537723   -83.994647   -54.143944   -213.38223    115.92054    12.665216      46.7237      46.7237      46.7237           90           90           90     102002.7   -78.225438 
  528000       527500   -9739.8094    1300.8692   -11040.679    4374.9962   -15415.675    135.61674    471.71174    29.267201    187.20715   -188.34438    109.84111     20.60741      46.7237      46.7237      46.7237           90           90           90     102002.7    229.39536 
  529000       528500   -9784.7788    1213.8977   -10998.676    4410.5486   -15409.225    126.54988    469.99115    303.44289    332.72867   -147.59434    77.874911   -20.724886      46.7237      46.7237      46.7237           90           90           90     102002.7     368.7209 
  530000       529500   -9783.2596    1259.4821   -11042.742     4367.714   -15410.456     131.3021    211.34877    521.14016    224.32316   -161.59314    71.151829    180.04611      46.7237      46.7237      46.7237           90           90           90     102002.7    318.93736 
  531000       530500    -9767.716    1273.8203   -11041.536    4374.8308   -15416.367    132.79687    653.49551    1035.6803    98.124634    132.55807    266.79778   -168.29485      46.7237      46.7237      46.7237           90           90           90     102002.7    595.76682 
  532000       531500   -9746.3008    1258.0433   -11004.344    4368.5289   -15372.873     131.1521    474.25661    644.56592    862.52607   -5.2386724     15.91763   -188.88095      46.7237      46.7237      46.7237           90           90           90     102002.7    660.44954 
  533000       532500   -9817.9365     1202.712   -11020.648     4373.497   -15394.145    125.38376    4.9542936    408.96402    423.43697    180.01765   -58.476458   -320.68548      46.7237      46.7237      46.7237           90           90           90     102002.7    279.11843 
  534000       533500   -9746.7397     1251.348   -10998.088    4376.8632   -15374.951    130.45411    284.83046    523.55559    477.53162    -60.79152   -192.71432   -80.522729      46.7237      46.7237      46.7237           90           90           90     102002.7    428.63922 
  535000       534500   -9762.8824    1226.7236   -10989.606     4404.424    -15394.03    127.88699    389.55107    811.02822    795.46298    67.297313   -412.60213   -123.57854      46.7237      46.7237      46.7237           90           90           90     102002.7    665.34742 
  536000       535500   -9751.2737    1244.1767    -10995.45    4388.0086   -15383.459    129.70649    535.51504    466.80661     257.1555    107.24614   -227.76967    200.61866      46.7237      46.7237      46.7237           90           90           90     102002.7    419.82572 
  537000       536500   -9768.0821    1242.6362   -11010.718    4358.5131   -15369.231    129.54589    432.92255    815.39443    762.44276    -151.0889    17.095389   -324.84389      46.7237      46.7237      46.7237           90           90           90     102002.7    670.25325 
  538000       537500    -9785.017    1244.8562   -11029.873    4386.4784   -15416.352    129.77733    978.09806    138.39365    947.69602     469.0346    113.06517   -279.41812      46.7237      46.7237      46.7237           90           90           90     102002.7    688.06258 
  539000       538500   -9779.8832    1258.0273   -11037.911    4395.0625   -15432.973    131.15043    144.93196    146.65168    -186.5239    270.50647    -320.2285   -122.02579      46.7237      46.7237      46.7237           90           90           90     102002.7    35.019912 
  540000       539500   -9793.1821    1260.2666   -11053.449    4386.5197   -15439.968    131.38388    181.06437   -318.36571    434.40045    341.94799    144.98967   -19.468939      46.7237      46.7237      46.7237           90           90           90     102002.7    99.033034 
  541000       540500   -9820.3355    1223.8262   -11044.162     4362.002   -15406.164    127.58494    283.86722   -147.69253        523.2   -301.64965   -82.180075   -93.434005      46.7237      46.7237      46.7237           90           90           90     102002.7    219.79157 
  542000       541500   -9811.5258    1215.8562   -11027.382    4411.5812   -15438.963    126.75406    128.02783   -205.94606    425.09343   -56.219547   -197.78421   -63.926787      46.7237      46.7237      46.7237           90           90           90     102002.7    115.72507 
  543000       542500   -9768.5666    1231.7793   -11000.346    4407.6652   -15408.011    128.41406    685.32114    243.86917   -5.8756554    168.00065    82.529444   -76.194964      46.7237      46.7237      46.7237           90           90           90     102002.7    307.77155 
  544000       543500   -9804.7775    1254.2009   -11058.978    4347.5838   -15406.562    130.75153    321.80563    638.14881    856.39332   -36.691752    112.85879   -92.057676      46.7237      46.7237      46.7237           90           90           90     102002.7    605.44926 
  545000       544500   -9759.1147    1269.9249    -11029.04    4380.3384   -15409.378    132.39077    241.54275    744.70355    204.06288     79.90883    10.776778   -40.609981      46.7237      46.7237      46.7237           90           90           90     102002.7    396.76972 
  546000       545500   -9797.4973    1246.7456   -11044.243    4362.3612   -15406.604     129.9743    355.60522    -78.78241    403.19643   -199.48229   -15.496838    -216.0398      46.7237      46.7237      46.7237           90           90           90     102002.7    226.67308 
  547000       546500   -9770.1219    1260.4114   -11030.533    4357.0597   -15387.593    131.39898   -181.64881    433.89021    99.116958    216.37149    216.56705    76.562342      46.7237      46.7237      46.7237           90           90           90     102002.7    117.11945 
  548000       547500    -9821.644    1243.0967   -11064.741    4360.7395    -15425.48     129.5939    78.371777    126.52616    598.34498   -8.2117662   -119.92873   -37.833688      46.7237      46.7237      46.7237           90           90           90     102002.7    267.74764 
  549000       548500   -9798.3144    1247.2023   -11045.517    4388.6574   -15434.174    130.02192    480.05606     105.5569   -53.114223     100.4367   -92.158173   -23.259079      46.7237      46.7237      46.7237           90           90           90     102002.7    177.49958 
  550000       549500   -9793.6422       1226.4   -11020.042    4390.7019   -15410.744    127.85326    563.70338     326.0679    567.21428    161.89536   -25.381577    15.473234      46.7237      46.7237      46.7237           90           90           90     102002.7    485.66185 
  551000       550500   -9812.7766    1243.7224   -11056.499    4384.0175   -15440.516    129.65913    382.98524    12.309863    173.89819    295.11253     130.3899    -238.4023      46.7237      46.7237      46.7237           90           90           90     102002.7     189.7311 
  552000       551500   -9767.5118    1266.6481    -11034.16    4365.5847   -15399.745    132.04916    41.256758    165.41342     457.9947   -166.04388     105.4072   -260.07165      46.7237      46.7237      46.7237           90           90           90     102002.7    221.55496 
  553000       552500   -9785.0441    1247.2001   -11032.244    4384.4957    -15416.74    130.02169    156.63976    150.31897    357.20682    218.92305    14.237412    58.393915      46.7237      46.7237      46.7237           90           90           90     102002.7    221.38852 
  554000       553500    -9769.075    1263.1283   -11032.203    4374.3096   -15406.513    131.68221    136.49601   -85.851358    819.92627   -121.65527   -206.38644    143.48383      46.7237      46.7237      46.7237           90           90           90     102002.7    290.19031 
  555000       554500   -9733.1783    1280.1928   -11013.371    4377.2369   -15390.608     133.4612    690.36243    848.73606    130.55143    156.83232    131.04307    66.810359      46.7237      46.7237      46.7237           90           90           90     102002.7    556.54998 
[...]
  936000       935500   -9809.5259    1231.4424   -11040.968    4365.0933   -15406.062    128.37894    567.10257    408.81018    218.54359    173.17362   -81.819213   -250.55081      46.7237      46.7237      46.7237           90           90           90     102002.7    398.15211 
  937000       936500   -9811.3213    1250.0118   -11061.333    4370.8032   -15432.136    130.31481    489.21506    4.4316708     176.9896   -159.61053   -170.88488     131.3639      46.7237      46.7237      46.7237           90           90           90     102002.7    223.54544 
  938000       937500   -9783.4077    1234.3082   -11017.716    4394.5272   -15412.243     128.6777     171.0934    407.44981    506.71781     280.0047   -58.015294    144.30163      46.7237      46.7237      46.7237           90           90           90     102002.7    361.75367 
  939000       938500   -9767.4584    1266.4105   -11033.869    4366.8414    -15400.71    132.02439    546.52014    370.14124    251.48167   -92.693686   -10.418567   -228.13122      46.7237      46.7237      46.7237           90           90           90     102002.7    389.38101 
  940000       939500    -9780.116    1258.6857   -11038.802    4363.1402   -15401.942    131.21907    594.54422    552.62388    191.75494   -47.209303   -178.46916    210.97428      46.7237      46.7237      46.7237           90           90           90     102002.7    446.30768 
  941000       940500   -9830.5888    1228.2425   -11058.831    4355.5425   -15414.374    128.04534    504.07205     5.584921    343.35855   -311.91964    285.38146    20.596883      46.7237      46.7237      46.7237           90           90           90     102002.7    284.33851 
  942000       941500   -9808.5402     1233.189   -11041.729    4352.4945   -15394.224    128.56102    445.21837    423.58708    793.15152    59.590116    41.235396    124.33306      46.7237      46.7237      46.7237           90           90           90     102002.7    553.98566 
  943000       942500   -9775.8083    1261.0381   -11036.846    4349.9986   -15386.845    131.46431    349.39866    644.93935    746.42339    117.27031   -14.596068    101.84162      46.7237      46.7237      46.7237           90           90           90     102002.7     580.2538 
  944000       943500   -9773.4035    1250.2576   -11023.661    4360.3921   -15384.053    130.34044    485.98501    492.15722     264.1026    68.959045   -99.146557   -346.20215      46.7237      46.7237      46.7237           90           90           90     102002.7    414.08161 
  945000       944500   -9783.9055    1252.5466   -11036.452    4370.9312   -15407.383    130.57906    399.33095    793.39683   -119.86244     267.6102    94.188374    313.50693      46.7237      46.7237      46.7237           90           90           90     102002.7    357.62178 
  946000       945500   -9770.6339    1237.9295   -11008.563    4366.8965    -15375.46    129.05522    521.33823   -248.35056    496.35733   -182.46655    -27.51578    75.915897      46.7237      46.7237      46.7237           90           90           90     102002.7    256.44834 
  947000       946500    -9759.911    1259.5817   -11019.493    4359.4408   -15378.933    131.31248    677.33728   -110.39022    572.11172   -110.51681   -162.10666     77.16967      46.7237      46.7237      46.7237           90           90           90     102002.7    379.68626 
  948000       947500   -9793.5857    1271.0025   -11064.588    4338.2289   -15402.817    132.50311       101.39    585.31708    573.18995    354.92724    132.01931   -206.28035      46.7237      46.7237      46.7237           90           90           90     102002.7    419.96567 
  949000       948500   -9831.7272    1221.2276   -11052.955    4367.7377   -15420.692    127.31404   -21.842847    267.31098    400.74412   -164.47871    63.656221    -187.9322      46.7237      46.7237      46.7237           90           90           90     102002.7    215.40408 
  950000       949500   -9738.2462    1236.1186   -10974.365    4399.0308   -15373.396    128.86643     600.9078    346.10442    399.73534   -50.561633   -57.729524    95.585465      46.7237      46.7237      46.7237           90           90           90     102002.7    448.91585 
  951000       950500    -9804.679    1233.3453   -11038.024    4382.0219   -15420.046    128.57731    134.88929    479.16664     432.8944    46.204057   -275.36209     222.5704      46.7237      46.7237      46.7237           90           90           90     102002.7    348.98345 
  952000       951500   -9770.3233    1257.0688   -11027.392    4355.7248   -15383.117     131.0505    111.29505    351.48488    255.66643    489.67643   -155.58842    255.14902      46.7237      46.7237      46.7237           90           90           90     102002.7    239.48212 
  953000       952500   -9768.0111    1253.3229   -11021.334    4377.7694   -15399.103    130.65999    97.768029    724.50119    341.20213    110.24577    138.77704   -93.563521      46.7237      46.7237      46.7237           90           90           90     102002.7    387.82378 
  954000       953500   -9799.9747    1248.6364   -11048.611    4358.9112   -15407.522    130.17142   -8.0538033    705.38514    257.10661   -40.329846     246.0154    44.892513      46.7237      46.7237      46.7237           90           90           90     102002.7    318.14598 
  955000       954500   -9776.0043    1255.9734   -11031.978    4370.5683   -15402.546    130.93631    438.78739    639.84897    403.87135   -243.81595    237.41434    97.469475      46.7237      46.7237      46.7237           90           90           90     102002.7    494.16924 
  956000       955500   -9796.7359     1258.949   -11055.685    4369.0979   -15424.783    131.24652    431.48904    665.17455    414.60626    37.674266    217.58611    209.18653      46.7237      46.7237      46.7237           90           90           90     102002.7    503.75662 
  957000       956500   -9768.1249    1238.1343   -11006.259    4388.5506    -15394.81    129.07656    569.10587    169.98479    772.02491    65.525193   -120.00931    -125.2619      46.7237      46.7237      46.7237           90           90           90     102002.7    503.70519 
  958000       957500   -9771.8997    1245.0372   -11016.937    4396.1267   -15413.064    129.79621    352.67289    303.51843    523.77698   -175.64724    42.621484   -128.07301      46.7237      46.7237      46.7237           90           90           90     102002.7    393.32276 
  959000       958500   -9752.5808    1262.4822   -11015.063    4367.1449   -15382.208    131.61486    729.85273     85.25887    621.18585   -265.39675   -22.268246   -77.906888      46.7237      46.7237      46.7237           90           90           90     102002.7    478.76582 
  960000       959500   -9799.1385    1242.2126   -11041.351       4365.5   -15406.851    129.50174    478.53672    234.84638    826.29675     117.9147   -153.31984    66.883793      46.7237      46.7237      46.7237           90           90           90     102002.7    513.22662 
  961000       960500   -9722.8109    1286.7504   -11009.561     4371.371   -15380.932    134.14483    302.50017    206.71389     191.4285    249.67104    153.97434   -126.81732      46.7237      46.7237      46.7237           90           90           90     102002.7    233.54752 
  962000       961500   -9789.6313    1246.3119   -11035.943    4376.8542   -15412.797    129.92909    285.57584    91.558287    648.26568   -368.22975    8.2543425   -123.85711      46.7237      46.7237      46.7237           90           90           90     102002.7    341.79994 
  963000       962500   -9817.6854    1236.7749    -11054.46    4348.6653   -15403.126    128.93485    1050.4041    329.01216    462.93375   -276.14016    140.82459    22.864403      46.7237      46.7237      46.7237           90           90           90     102002.7    614.11666 
  964000       963500   -9815.8666    1250.8109   -11066.678    4339.4953   -15406.173    130.39812    121.68614    662.96118     733.4586   -173.98103   -299.48489    26.305013      46.7237      46.7237      46.7237           90           90           90     102002.7    506.03531 
  965000       964500   -9767.5153    1274.7874   -11042.303    4375.1806   -15417.483    132.89769    284.59407    873.95823    78.898747    115.76724   -86.232136   -110.02437      46.7237      46.7237      46.7237           90           90           90     102002.7    412.48368 
  966000       965500   -9807.0631     1240.342   -11047.405    4354.5982   -15402.003    129.30673   -30.744426    509.99079    271.65504    123.14133   -101.43493    119.71475      46.7237      46.7237      46.7237           90           90           90     102002.7    250.30047 
  967000       966500   -9812.3724    1254.0872    -11066.46    4372.5483   -15439.008    130.73967   -500.17977    101.10304    282.23898     148.6816    134.74518   -196.81012      46.7237      46.7237      46.7237           90           90           90     102002.7   -38.945915 
  968000       967500   -9785.6846    1259.2563   -11044.941     4389.409    -15434.35    131.27856    796.36763    925.66247    65.800377    19.678664    13.590281    65.652542      46.7237      46.7237      46.7237           90           90           90     102002.7    595.94349 
  969000       968500   -9773.7843    1262.4499   -11036.234    4376.4943   -15412.729     131.6115    564.94334    491.16722       583.98    21.278313    248.69162    259.02519      46.7237      46.7237      46.7237           90           90           90     102002.7    546.69685 
  970000       969500   -9767.2466    1248.1905   -11015.437    4373.5895   -15389.027    130.12494    635.10732    549.90646    685.64713   -16.806135    50.589116    131.44217      46.7237      46.7237      46.7237           90           90           90     102002.7    623.55364 
  971000       970500   -9797.0687    1219.8601   -11016.929    4399.9047   -15416.834    127.17147    278.36179    79.552312    198.04841   -44.591034    22.950352    44.750819      46.7237      46.7237      46.7237           90           90           90     102002.7    185.32084 
  972000       971500   -9832.4054    1219.7579   -11052.163      4381.36   -15433.523    127.16081    -81.74766    462.87953     435.0037    120.74556    236.93722   -195.51572      46.7237      46.7237      46.7237           90           90           90     102002.7    272.04519 
  973000       972500   -9803.6639    1236.7602   -11040.424    4370.7549   -15411.179    128.93331    532.76699    593.97008     167.9684    334.36872    79.795093    242.10696      46.7237      46.7237      46.7237           90           90           90     102002.7    431.56849 
  974000       973500   -9752.0225    1264.5207   -11016.543     4375.658   -15392.201    131.82737    618.49889    436.55098   -10.559363    147.11288    5.4092985   -30.256276      46.7237      46.7237      46.7237           90           90           90     102002.7    348.16351 
  975000       974500   -9819.9725    1224.7993   -11044.772    4390.6494   -15435.421    127.68638    82.700499     406.9773    324.23936    81.305676    162.78152    75.772252      46.7237      46.7237      46.7237           90           90           90     102002.7    271.30572 
  976000       975500   -9780.5879     1249.197   -11029.785    4420.7444   -15450.529    130.22987     283.4957    139.80762     38.41857    4.3162613   -39.868009   -113.22442      46.7237      46.7237      46.7237           90           90           90     102002.7     153.9073 
  977000       976500   -9762.8896    1245.9336   -11008.823    4410.4425   -15419.266    129.88966    632.61544    154.95093    474.50205    17.332798    21.814508    45.730414      46.7237      46.7237      46.7237           90           90           90     102002.7    420.68947 
  978000       977500   -9824.8781    1235.9317    -11060.81    4381.8906     -15442.7    128.84694   -69.674709    148.88181     478.9479    1.4144293    324.79285   -94.759011      46.7237      46.7237      46.7237           90           90           90     102002.7    186.05167 
  979000       978500   -9789.6172    1270.0756   -11059.693    4387.6523   -15447.345    132.40647    241.32327    856.27281    566.00961    96.019051    19.148561    110.56474      46.7237      46.7237      46.7237           90           90           90     102002.7    554.53523 
  980000       979500   -9794.3801    1255.2912   -11049.671    4376.7382    -15426.41    130.86519    306.59031    300.28886    580.88882   -164.99275   -170.22475   -188.57534      46.7237      46.7237      46.7237           90           90           90     102002.7    395.92266 
  981000       980500   -9763.2465    1271.2095   -11034.456    4373.1927   -15407.649    132.52469    412.10724    217.82711    222.82866    105.04253   -44.538875   -100.50221      46.7237      46.7237      46.7237           90           90           90     102002.7    284.25433 
  982000       981500   -9782.8295    1245.4336   -11028.263    4374.1021   -15402.365    129.83753    11.433257    409.83454    522.22897    256.48344    -267.2733    50.116859      46.7237      46.7237      46.7237           90           90           90     102002.7    314.49892 
  983000       982500   -9752.7861    1274.9022   -11027.688    4384.3452   -15412.034    132.90966     407.6098   -84.940809    733.67039   -204.79359   -3.3965001      179.723      46.7237      46.7237      46.7237           90           90           90     102002.7    352.11312 
  984000       983500   -9812.3621    1231.1314   -11043.493     4360.264   -15403.757    128.34651    178.78339     432.4568     720.2165    75.242233    -165.6166   -67.205048      46.7237      46.7237      46.7237           90           90           90     102002.7     443.8189 
  985000       984500    -9767.126    1246.7005   -11013.826    4382.1493   -15395.976     129.9696    227.95689   -402.94322    243.50135   -173.92908    82.718986   -15.661816      46.7237      46.7237      46.7237           90           90           90     102002.7    22.838337 
  986000       985500   -9738.2003    1252.8254   -10991.026    4395.9464   -15386.972    130.60812    588.26536    800.66554    276.52133    10.378811   -368.30595    156.36156      46.7237      46.7237      46.7237           90           90           90     102002.7    555.15074 
  987000       986500   -9806.6294    1226.8615   -11033.491    4370.6069   -15404.098    127.90137     831.2446   -443.01017    307.85451   -37.666556     36.88382   -13.444503      46.7237      46.7237      46.7237           90           90           90     102002.7    232.02965 
  988000       987500   -9772.7662    1270.0304   -11042.797    4367.4442   -15410.241    132.40177    129.75558    242.90315    682.98339    96.173299   -399.12608    45.067589      46.7237      46.7237      46.7237           90           90           90     102002.7    351.88071 
  989000       988500   -9786.7606    1240.4682   -11027.229    4352.3946   -15379.623    129.31988      717.353    180.52905     426.0417   -187.30552   -170.97322    58.494214      46.7237      46.7237      46.7237           90           90           90     102002.7    441.30792 
  990000       989500   -9806.4015    1241.0697   -11047.471    4347.3982   -15394.869    129.38259    68.058875    938.23794    162.98652    166.03055   -43.476097   -317.85869      46.7237      46.7237      46.7237           90           90           90     102002.7    389.76111 
  991000       990500   -9783.8022    1237.4492   -11021.251     4394.617   -15415.868    129.00515    192.56952     335.4405    404.09937    -86.86537    199.25635    249.36644      46.7237      46.7237      46.7237           90           90           90     102002.7    310.70313 
  992000       991500   -9802.6324    1222.7333   -11025.366    4392.1924   -15417.558      127.471    100.66705    830.58102    197.65058    112.05844   -15.538901    231.27131      46.7237      46.7237      46.7237           90           90           90     102002.7    376.29955 
  993000       992500   -9754.4004    1243.9548   -10998.355    4381.8929   -15380.248    129.68336    512.04327    436.51787    8.6136761    110.96959    16.914586    315.03938      46.7237      46.7237      46.7237           90           90           90     102002.7    319.05827 
  994000       993500   -9746.1747    1257.6616   -11003.836    4409.8291   -15413.665    131.11231    804.13434     567.1021    333.47791    230.91009    52.179749   -157.72088      46.7237      46.7237      46.7237           90           90           90     102002.7    568.23812 
  995000       994500   -9793.2759    1226.4839    -11019.76     4377.491   -15397.251    127.86201    544.44708    343.76953    378.77379   -101.39712    131.26309       369.36      46.7237      46.7237      46.7237           90           90           90     102002.7    422.33013 
  996000       995500   -9726.2566    1275.7373   -11001.994    4378.5921   -15380.586    132.99671   -60.871761    62.889727    104.33144    187.53877    234.34094    76.377976      46.7237      46.7237      46.7237           90           90           90     102002.7    35.449801 
  997000       996500   -9817.1494    1245.6152   -11062.765    4362.5338   -15425.298    129.85646    340.35703    71.691355    221.08668    39.401446   -49.616841   -193.59105      46.7237      46.7237      46.7237           90           90           90     102002.7    211.04502 
  998000       997500   -9764.7277    1268.7914   -11033.519    4377.8664   -15411.386     132.2726    76.338448     714.8203    417.57983   -28.376935   -65.708347   -9.1956185      46.7237      46.7237      46.7237           90           90           90     102002.7    402.91286 
  999000       998500   -9799.7457    1219.3926   -11019.138    4387.5476   -15406.686    127.12273    313.28331    780.88723    56.878046    -160.1523   -170.48335     84.44376      46.7237      46.7237      46.7237           90           90           90     102002.7    383.68286 
 1000000       999500   -9770.6583    1258.2353   -11028.894    4393.8648   -15422.758    131.17212    450.30609    627.82189    209.87109    63.010826    108.91914   -470.47469      46.7237      46.7237      46.7237           90           90           90     102002.7    429.33302 
 1000500      1000000   -9784.2628    1253.5975    -11037.86    4360.8279   -15398.688    130.68862    316.36807    888.88296    709.90969   -45.437247    146.53241    136.14033      46.7237      46.7237      46.7237           90           90           90     102002.7    638.38691 
Loop time of 2161.02 on 16 procs for 500000 steps with 3219 atoms

Performance: 19.991 ns/day, 1.201 hours/ns, 231.372 timesteps/s
99.8% CPU use with 16 MPI tasks x no OpenMP threads

MPI task timing breakdown:
Section |  min time  |  avg time  |  max time  |%varavg| %total
---------------------------------------------------------------
Pair    | 1199       | 1479.9     | 1608.1     | 275.7 | 68.48
Bond    | 123.16     | 183.82     | 231        | 302.5 |  8.51
Neigh   | 17.767     | 17.823     | 17.875     |   0.9 |  0.82
Comm    | 279.87     | 445.48     | 786.6      | 625.7 | 20.61
Output  | 0.15284    | 0.15988    | 0.16055    |   0.5 |  0.01
Modify  | 25.535     | 26.763     | 28.525     |  21.5 |  1.24
Other   |            | 7.052      |            |       |  0.33

Nlocal:    201.188 ave 242 max 159 min
Histogram: 4 0 0 2 2 1 1 2 2 2
Nghost:    4098.56 ave 4142 max 4061 min
Histogram: 5 0 1 2 1 2 1 0 0 4
Neighs:    11465.8 ave 14187 max 6340 min
Histogram: 1 0 1 1 2 0 3 3 1 4

Total # of neighbors = 183453
Ave neighs/atom = 56.9907
Ave special neighs/atom = 3.57875
Neighbor list builds = 5079
Dangerous builds = 0
Total wall time: 1:08:05
