LAMMPS (30 Mar 2018)
Reading data file ...
  orthogonal box = (0 0 0) to (46.7237 46.7237 46.7237)
  2 by 2 by 4 MPI processor grid
  reading atoms ...
  3203 atoms
  scanning bonds ...
  5 = max bonds/atom
  scanning angles ...
  10 = max angles/atom
  scanning dihedrals ...
  32 = max dihedrals/atom
  scanning impropers ...
  3 = max impropers/atom
  reading bonds ...
  2064 bonds
  reading angles ...
  3696 angles
  reading dihedrals ...
  6240 dihedrals
  reading impropers ...
  1008 impropers
Finding 1-2 1-3 1-4 neighbors ...
  special bond factors lj:   0          0          0         
  special bond factors coul: 0          0          0         
  5 = max # of 1-2 neighbors
  8 = max # of 1-3 neighbors
  20 = max # of 1-4 neighbors
  19 = max # of special neighbors
Finding 1-2 1-3 1-4 neighbors ...
  special bond factors lj:   0          0          1         
  special bond factors coul: 1          1          1         
  5 = max # of 1-2 neighbors
  8 = max # of 1-3 neighbors
  19 = max # of special neighbors
WARNING: Using 'neigh_modify every 1 delay 0 check yes' setting during minimization (../min.cpp:168)
Neighbor list info ...
  update every 1 steps, delay 0 steps, check yes
  max neighbors/atom: 2000, page size: 100000
  master list distance cutoff = 16
  ghost atom cutoff = 16
  binsize = 8, bins = 6 6 6
  3 neighbor lists, perpetual/occasional/extra = 3 0 0
  (1) pair buck6d/coul/gauss/dsf, perpetual, skip from (3)
      attributes: half, newton on
      pair build: skip
      stencil: none
      bin: none
  (2) pair lj/cut, perpetual, skip from (3)
      attributes: half, newton on
      pair build: skip
      stencil: none
      bin: none
  (3) neighbor class addition, perpetual
      attributes: half, newton on
      pair build: half/bin/newton
      stencil: half/bin/3d/newton
      bin: standard
Setting up cg style minimization ...
  Unit style    : real
  Current step  : 0
WARNING: Inconsistent image flags (../domain.cpp:786)
Per MPI rank memory allocation (min/avg/max) = 23.02 | 23.47 | 23.91 Mbytes
Step Temp E_pair E_mol TotEng Press 
       0            0   -15397.003    6482.8914   -8914.1115    6551.8958 
     500            0   -15906.226    3752.0476   -12154.178    -1925.397 
Loop time of 4.45238 on 16 procs for 500 steps with 3203 atoms

99.9% CPU use with 16 MPI tasks x no OpenMP threads

Minimization stats:
  Stopping criterion = max force evaluations
  Energy initial, next-to-last, final = 
        -8914.11149773     -12154.0917055      -12154.178177
  Force two-norm initial, final = 2575.67 13.8349
  Force max component initial, final = 152.246 1.70831
  Final line search alpha, max atom move = 0.00806251 0.0137733
  Iterations, force evaluations = 500 1000

MPI task timing breakdown:
Section |  min time  |  avg time  |  max time  |%varavg| %total
---------------------------------------------------------------
Pair    | 2.4801     | 2.9664     | 3.6515     |  19.7 | 66.63
Bond    | 0.29416    | 0.3602     | 0.43621    |   4.7 |  8.09
Neigh   | 0.034198   | 0.034335   | 0.03445    |   0.0 |  0.77
Comm    | 0.33517    | 1.0464     | 1.5446     |  34.2 | 23.50
Output  | 0          | 0          | 0          |   0.0 |  0.00
Modify  | 0          | 0          | 0          |   0.0 |  0.00
Other   |            | 0.04507    |            |       |  1.01

Nlocal:    200.188 ave 218 max 175 min
Histogram: 1 0 1 1 4 2 2 1 1 3
Nghost:    4005.25 ave 4027 max 3979 min
Histogram: 2 0 2 1 2 3 2 0 0 4
Neighs:    11493.9 ave 15866 max 8279 min
Histogram: 4 1 1 0 4 1 1 1 2 1

Total # of neighbors = 183903
Ave neighs/atom = 57.4159
Ave special neighs/atom = 3.59663
Neighbor list builds = 10
Dangerous builds = 0
Neighbor list info ...
  update every 1 steps, delay 10 steps, check yes
  max neighbors/atom: 2000, page size: 100000
  master list distance cutoff = 16
  ghost atom cutoff = 16
  binsize = 8, bins = 6 6 6
  3 neighbor lists, perpetual/occasional/extra = 3 0 0
  (1) pair buck6d/coul/gauss/dsf, perpetual, skip from (3)
      attributes: half, newton on
      pair build: skip
      stencil: none
      bin: none
  (2) pair lj/cut, perpetual, skip from (3)
      attributes: half, newton on
      pair build: skip
      stencil: none
      bin: none
  (3) neighbor class addition, perpetual
      attributes: half, newton on
      pair build: half/bin/newton
      stencil: half/bin/3d/newton
      bin: standard
Setting up Verlet run ...
  Unit style    : real
  Current step  : 500
  Time step     : 1
WARNING: Inconsistent image flags (../domain.cpp:786)
Per MPI rank memory allocation (min/avg/max) = 22.66 | 22.73 | 22.79 Mbytes
Step Temp PotEng TotEng Press Volume Lx Ly Lz 
     500          130   -12154.178   -10913.386   -1369.3389     102002.7      46.7237      46.7237      46.7237 
    1000    109.97493    -11130.52   -10080.858   -1.8824396     102002.7      46.7237      46.7237      46.7237 
    2000    128.68462    -10954.48    -9726.243    55.385751     102002.7      46.7237      46.7237      46.7237 
    3000    130.88778   -10962.642   -9713.3763    557.97643     102002.7      46.7237      46.7237      46.7237 
    4000    128.10674   -10985.699   -9762.9773    752.29211     102002.7      46.7237      46.7237      46.7237 
    5000    129.41299   -10977.198   -9742.0089    461.36555     102002.7      46.7237      46.7237      46.7237 
    6000    130.83252   -10988.442   -9739.7037    148.86699     102002.7      46.7237      46.7237      46.7237 
    7000     127.9853   -10974.396   -9752.8331    31.229031     102002.7      46.7237      46.7237      46.7237 
    8000    130.70393   -10992.054   -9744.5436     98.95302     102002.7      46.7237      46.7237      46.7237 
    9000    126.87256   -10946.296   -9735.3544    338.36973     102002.7      46.7237      46.7237      46.7237 
   10000    130.61849   -10965.217   -9718.5214    171.81682     102002.7      46.7237      46.7237      46.7237 
   11000    131.13552   -10997.615   -9745.9854    185.92563     102002.7      46.7237      46.7237      46.7237 
   12000    131.17172   -10962.104   -9710.1288    119.07292     102002.7      46.7237      46.7237      46.7237 
   13000    131.44897   -10977.992   -9723.3698    49.637137     102002.7      46.7237      46.7237      46.7237 
   14000    132.34605   -10971.915   -9708.7307    220.47906     102002.7      46.7237      46.7237      46.7237 
   15000    128.55387   -11003.202   -9776.2128     390.7737     102002.7      46.7237      46.7237      46.7237 
   16000    130.51643   -10971.509   -9725.7876    71.721624     102002.7      46.7237      46.7237      46.7237 
   17000    128.02316   -11002.499   -9780.5749    172.48566     102002.7      46.7237      46.7237      46.7237 
   18000    131.41287    -10972.66    -9718.383    345.82139     102002.7      46.7237      46.7237      46.7237 
   19000    128.75541   -10990.761   -9761.8483    324.30292     102002.7      46.7237      46.7237      46.7237 
   20000    127.25577   -11010.534   -9795.9341    434.89488     102002.7      46.7237      46.7237      46.7237 
   21000    128.84471   -11010.289    -9780.524    268.89343     102002.7      46.7237      46.7237      46.7237 
   22000    128.40428   -10959.365   -9733.8032     396.0509     102002.7      46.7237      46.7237      46.7237 
   23000    135.48067   -11005.512   -9712.4095    632.19332     102002.7      46.7237      46.7237      46.7237 
   24000    129.51593   -10998.447   -9762.2751    407.65432     102002.7      46.7237      46.7237      46.7237 
   25000    130.90358    -10985.48   -9736.0638    283.50013     102002.7      46.7237      46.7237      46.7237 
   26000    130.72083     -10986.5   -9738.8276     92.07618     102002.7      46.7237      46.7237      46.7237 
   27000    129.38016   -10976.943   -9742.0674    463.43027     102002.7      46.7237      46.7237      46.7237 
   28000      133.375   -10989.517   -9716.5122    267.00814     102002.7      46.7237      46.7237      46.7237 
   29000    131.00923   -10972.652   -9722.2271    148.77034     102002.7      46.7237      46.7237      46.7237 
   30000    132.33655   -10985.616   -9722.5225    471.78548     102002.7      46.7237      46.7237      46.7237 
   31000    130.08675   -10985.588   -9743.9679    380.07618     102002.7      46.7237      46.7237      46.7237 
   32000    130.24627   -10978.859   -9735.7166    300.71182     102002.7      46.7237      46.7237      46.7237 
   33000    127.57554   -10979.064   -9761.4123    142.69473     102002.7      46.7237      46.7237      46.7237 
   34000    128.66391   -10991.372   -9763.3326      568.105     102002.7      46.7237      46.7237      46.7237 
   35000    127.79582   -10988.466   -9768.7116    436.25086     102002.7      46.7237      46.7237      46.7237 
   36000    128.29732   -10978.471   -9753.9305      644.952     102002.7      46.7237      46.7237      46.7237 
   37000    130.15094   -10983.602   -9741.3691    243.29185     102002.7      46.7237      46.7237      46.7237 
   38000    129.55038   -10971.488    -9734.987     141.7919     102002.7      46.7237      46.7237      46.7237 
   39000    128.52155   -10994.131   -9767.4501    176.15916     102002.7      46.7237      46.7237      46.7237 
   40000    128.52952   -10980.391   -9753.6339    510.41077     102002.7      46.7237      46.7237      46.7237 
   41000    131.05214   -10993.678   -9742.8438    503.83817     102002.7      46.7237      46.7237      46.7237 
   42000    130.46246   -10988.714    -9743.508    188.70358     102002.7      46.7237      46.7237      46.7237 
   43000    132.88197   -10966.776   -9698.4771    336.85557     102002.7      46.7237      46.7237      46.7237 
   44000    126.82872   -10974.975   -9764.4511    605.58627     102002.7      46.7237      46.7237      46.7237 
   45000    131.81789   -10992.748   -9734.6055    163.10276     102002.7      46.7237      46.7237      46.7237 
   46000    129.64964   -11008.757   -9771.3095    110.09533     102002.7      46.7237      46.7237      46.7237 
   47000    127.74734   -10965.613   -9746.3221    492.26111     102002.7      46.7237      46.7237      46.7237 
   48000    129.93088    -10969.73    -9729.598    179.29921     102002.7      46.7237      46.7237      46.7237 
   49000    132.91886   -10985.137    -9716.486    33.826607     102002.7      46.7237      46.7237      46.7237 
   50000    129.17347   -10987.691   -9754.7884   -34.113593     102002.7      46.7237      46.7237      46.7237 
   51000     133.4261   -10961.902   -9688.4093    487.32844     102002.7      46.7237      46.7237      46.7237 
   52000    130.47949   -10972.191   -9726.8221    157.13698     102002.7      46.7237      46.7237      46.7237 
   53000    127.07681   -11001.367   -9788.4755    288.89833     102002.7      46.7237      46.7237      46.7237 
   54000    127.82013   -10954.773   -9734.7869    221.81266     102002.7      46.7237      46.7237      46.7237 
   55000    130.86933   -10975.308   -9726.2188    374.81267     102002.7      46.7237      46.7237      46.7237 
   56000    129.60617   -10989.893   -9752.8604    370.65945     102002.7      46.7237      46.7237      46.7237 
   57000    129.21533   -11006.976   -9773.6732    479.57865     102002.7      46.7237      46.7237      46.7237 
   58000    131.15846   -10994.938   -9743.0892    147.82198     102002.7      46.7237      46.7237      46.7237 
   59000    132.70813   -10994.484   -9727.8444    471.55773     102002.7      46.7237      46.7237      46.7237 
   60000    130.64123   -10961.553   -9714.6404     441.3763     102002.7      46.7237      46.7237      46.7237 
   61000    128.27496   -10968.767   -9744.4399    468.04218     102002.7      46.7237      46.7237      46.7237 
   62000    128.25311   -10997.062   -9772.9434   -96.784372     102002.7      46.7237      46.7237      46.7237 
   63000    131.26038   -10978.589   -9725.7668    143.53332     102002.7      46.7237      46.7237      46.7237 
   64000    128.66921   -11012.574   -9784.4836    230.74346     102002.7      46.7237      46.7237      46.7237 
   65000     127.9195   -10981.963   -9761.0281    666.98129     102002.7      46.7237      46.7237      46.7237 
   66000    128.58133   -11015.539   -9788.2871    259.20847     102002.7      46.7237      46.7237      46.7237 
   67000    130.47906   -11000.988   -9755.6232     344.0557     102002.7      46.7237      46.7237      46.7237 
   68000    129.80273   -10972.653   -9733.7438    269.05784     102002.7      46.7237      46.7237      46.7237 
   69000    130.12324   -10980.572   -9738.6035    321.53263     102002.7      46.7237      46.7237      46.7237 
   70000    129.28832   -10965.992   -9731.9926    610.52803     102002.7      46.7237      46.7237      46.7237 
   71000    129.56708   -11014.784    -9778.124    304.52152     102002.7      46.7237      46.7237      46.7237 
   72000    131.17626   -10978.229     -9726.21    183.53989     102002.7      46.7237      46.7237      46.7237 
   73000    132.35755   -11000.013    -9736.719    427.32434     102002.7      46.7237      46.7237      46.7237 
   74000    128.43012   -11016.895   -9791.0866    392.37877     102002.7      46.7237      46.7237      46.7237 
   75000    130.31534   -10958.476   -9714.6739    631.55659     102002.7      46.7237      46.7237      46.7237 
   76000    129.31427   -10971.548   -9737.3012    349.69833     102002.7      46.7237      46.7237      46.7237 
   77000    130.02056   -10984.265   -9743.2763    203.98825     102002.7      46.7237      46.7237      46.7237 
   78000    127.38955   -11024.625   -9808.7483    450.24037     102002.7      46.7237      46.7237      46.7237 
   79000    129.40776   -10970.395   -9735.2554    336.02683     102002.7      46.7237      46.7237      46.7237 
   80000    130.98858   -11006.254   -9756.0261     287.3197     102002.7      46.7237      46.7237      46.7237 
   81000    129.70054   -10999.799    -9761.865    554.60453     102002.7      46.7237      46.7237      46.7237 
   82000    128.16304    -10987.59   -9764.3311    36.791349     102002.7      46.7237      46.7237      46.7237 
   83000    129.02563   -10941.763   -9710.2714    304.72289     102002.7      46.7237      46.7237      46.7237 
   84000     132.6375   -10978.968   -9713.0022    530.95454     102002.7      46.7237      46.7237      46.7237 
   85000    131.14949   -10998.216    -9746.453    259.55986     102002.7      46.7237      46.7237      46.7237 
   86000    128.64678   -11025.044   -9797.1679    336.22488     102002.7      46.7237      46.7237      46.7237 
   87000    130.38552   -10987.116   -9742.6444    497.37752     102002.7      46.7237      46.7237      46.7237 
   88000    128.81803   -10964.906   -9735.3952     621.4789     102002.7      46.7237      46.7237      46.7237 
   89000    130.39772   -10963.086   -9718.4976    402.01232     102002.7      46.7237      46.7237      46.7237 
   90000    131.94878   -11005.332   -9745.9401    440.34146     102002.7      46.7237      46.7237      46.7237 
   91000    125.50225   -10990.073   -9792.2102    38.609844     102002.7      46.7237      46.7237      46.7237 
   92000    126.97959   -11011.881   -9799.9177     158.3858     102002.7      46.7237      46.7237      46.7237 
   93000     130.0296   -10989.355   -9748.2808    320.65729     102002.7      46.7237      46.7237      46.7237 
   94000    125.61357    -10989.98   -9791.0546     385.3494     102002.7      46.7237      46.7237      46.7237 
   95000     133.2808   -11007.782   -9735.6767     35.82266     102002.7      46.7237      46.7237      46.7237 
   96000    132.26346   -10994.197   -9731.8015     385.8017     102002.7      46.7237      46.7237      46.7237 
   97000    130.55721   -10992.865   -9746.7548    110.45251     102002.7      46.7237      46.7237      46.7237 
   98000    127.33363   -10968.288   -9752.9454    223.97074     102002.7      46.7237      46.7237      46.7237 
   99000     127.4956   -10953.491   -9736.6026    270.23809     102002.7      46.7237      46.7237      46.7237 
  100000    127.56391   -10996.169   -9778.6288    185.46934     102002.7      46.7237      46.7237      46.7237 
  101000    131.37587   -10981.265   -9727.3411    447.31012     102002.7      46.7237      46.7237      46.7237 
  102000    129.43375   -10987.689   -9752.3013    296.25703     102002.7      46.7237      46.7237      46.7237 
  103000    129.44048   -10984.902   -9749.4504    387.57808     102002.7      46.7237      46.7237      46.7237 
  104000     129.8382    -11004.48   -9765.2321    267.70048     102002.7      46.7237      46.7237      46.7237 
  105000    128.98513   -11049.141   -9818.0358    360.50215     102002.7      46.7237      46.7237      46.7237 
  106000    132.92188   -10986.928   -9718.2484    565.98607     102002.7      46.7237      46.7237      46.7237 
  107000    128.24142   -11002.743   -9778.7364     -16.1496     102002.7      46.7237      46.7237      46.7237 
  108000    131.78085   -10997.681   -9739.8921    260.78899     102002.7      46.7237      46.7237      46.7237 
  109000    128.39152   -11004.507   -9779.0673    -131.2283     102002.7      46.7237      46.7237      46.7237 
  110000    132.80461   -10984.532   -9716.9713     161.7228     102002.7      46.7237      46.7237      46.7237 
  111000    129.57613   -11000.511    -9763.765    70.242202     102002.7      46.7237      46.7237      46.7237 
  112000    131.17352   -10978.256   -9726.2637    365.29006     102002.7      46.7237      46.7237      46.7237 
  113000    131.50435    -10982.16   -9727.0094    164.43313     102002.7      46.7237      46.7237      46.7237 
  114000    131.67881   -10996.976   -9740.1601    350.36054     102002.7      46.7237      46.7237      46.7237 
  115000    126.98651   -10987.178   -9775.1487    574.85898     102002.7      46.7237      46.7237      46.7237 
  116000    131.66259   -10969.331   -9712.6701    612.36257     102002.7      46.7237      46.7237      46.7237 
  117000    127.86843   -11012.744   -9792.2965    583.02112     102002.7      46.7237      46.7237      46.7237 
  118000    129.56743   -11016.487   -9779.8235    69.792142     102002.7      46.7237      46.7237      46.7237 
  119000    129.62458   -10972.653   -9735.4445     26.03919     102002.7      46.7237      46.7237      46.7237 
  120000    126.75863   -11008.136   -9798.2812    199.11912     102002.7      46.7237      46.7237      46.7237 
  121000     132.7586   -10992.041   -9724.9192   -11.781366     102002.7      46.7237      46.7237      46.7237 
  122000    128.03328   -11003.521   -9781.5006   -47.198017     102002.7      46.7237      46.7237      46.7237 
  123000    132.50769   -10977.799   -9713.0727    889.88023     102002.7      46.7237      46.7237      46.7237 
  124000    126.10631   -10962.838   -9759.2098     128.5198     102002.7      46.7237      46.7237      46.7237 
  125000    129.73321   -10973.057    -9734.811    287.29721     102002.7      46.7237      46.7237      46.7237 
  126000     126.4291   -10997.475   -9790.7661    467.01925     102002.7      46.7237      46.7237      46.7237 
  127000    129.08555   -10969.442   -9737.3785    108.42539     102002.7      46.7237      46.7237      46.7237 
  128000      128.952   -11000.374   -9769.5847     230.6102     102002.7      46.7237      46.7237      46.7237 
  129000    132.64137   -10995.895   -9729.8923      349.059     102002.7      46.7237      46.7237      46.7237 
  130000    127.46104    -11008.25   -9791.6908    234.17196     102002.7      46.7237      46.7237      46.7237 
  131000    129.35938   -10988.082   -9753.4044    473.18661     102002.7      46.7237      46.7237      46.7237 
  132000    129.36547   -10998.139   -9763.4036    220.77922     102002.7      46.7237      46.7237      46.7237 
  133000    132.17046    -10986.66   -9725.1518    398.85259     102002.7      46.7237      46.7237      46.7237 
  134000    129.07935   -10953.619   -9721.6138    101.71947     102002.7      46.7237      46.7237      46.7237 
  135000    131.43238   -10978.728   -9724.2647    378.12177     102002.7      46.7237      46.7237      46.7237 
  136000    126.31846   -10993.452   -9787.7992    119.89621     102002.7      46.7237      46.7237      46.7237 
  137000    128.87558    -10961.85   -9731.7899    239.83545     102002.7      46.7237      46.7237      46.7237 
  138000    130.03494   -11033.014   -9791.8885    87.437934     102002.7      46.7237      46.7237      46.7237 
  139000    131.71224   -11010.911   -9753.7761    371.42618     102002.7      46.7237      46.7237      46.7237 
  140000    129.96765    -10997.37   -9756.8872    381.13961     102002.7      46.7237      46.7237      46.7237 
  141000    128.18335   -10982.162   -9758.7095    277.37703     102002.7      46.7237      46.7237      46.7237 
  142000     134.3809   -10993.863   -9711.2577    415.79877     102002.7      46.7237      46.7237      46.7237 
  143000    129.25063   -10982.786    -9749.146    144.44956     102002.7      46.7237      46.7237      46.7237 
  144000    128.99353   -11007.108   -9775.9219    134.53252     102002.7      46.7237      46.7237      46.7237 
  145000    129.77556   -10983.525   -9744.8753       274.56     102002.7      46.7237      46.7237      46.7237 
  146000    132.86095   -10937.184    -9669.086     542.9076     102002.7      46.7237      46.7237      46.7237 
  147000    131.58005   -11009.571   -9753.6979    207.39839     102002.7      46.7237      46.7237      46.7237 
  148000    128.92129   -10971.552    -9741.056    525.69587     102002.7      46.7237      46.7237      46.7237 
  149000     127.9966   -10979.865   -9758.1946    193.10546     102002.7      46.7237      46.7237      46.7237 
  150000    128.86003   -10969.272   -9739.3602    256.76965     102002.7      46.7237      46.7237      46.7237 
  151000    128.15909   -10994.024   -9770.8029    471.68992     102002.7      46.7237      46.7237      46.7237 
  152000    129.35663   -10953.405    -9718.754    595.63314     102002.7      46.7237      46.7237      46.7237 
  153000    127.24295   -11005.436   -9790.9584    347.87895     102002.7      46.7237      46.7237      46.7237 
  154000     128.3521   -10997.691   -9772.6277    240.44634     102002.7      46.7237      46.7237      46.7237 
  155000    131.15131   -10986.906   -9735.1257    490.33447     102002.7      46.7237      46.7237      46.7237 
  156000    130.32523   -10985.747   -9741.8505     250.0621     102002.7      46.7237      46.7237      46.7237 
  157000    129.67392   -10975.143    -9737.463    630.45059     102002.7      46.7237      46.7237      46.7237 
  158000    128.97408   -10965.199    -9734.199    549.85262     102002.7      46.7237      46.7237      46.7237 
  159000    127.34654    -10958.83   -9743.3643    779.74044     102002.7      46.7237      46.7237      46.7237 
  160000    129.58687   -10992.618   -9755.7695    310.38073     102002.7      46.7237      46.7237      46.7237 
  161000    130.85282   -10974.793   -9725.8608    18.485645     102002.7      46.7237      46.7237      46.7237 
  162000    133.15884   -11001.995   -9731.0533    218.71533     102002.7      46.7237      46.7237      46.7237 
  163000    129.01346   -10957.392   -9726.0163    365.77879     102002.7      46.7237      46.7237      46.7237 
  164000     128.3538   -10961.944   -9736.8642    557.97619     102002.7      46.7237      46.7237      46.7237 
  165000    130.51384   -10966.781   -9721.0845    735.23459     102002.7      46.7237      46.7237      46.7237 
  166000    129.56132   -10996.179   -9759.5737    592.16291     102002.7      46.7237      46.7237      46.7237 
  167000    128.18111   -10994.597   -9771.1651    602.35446     102002.7      46.7237      46.7237      46.7237 
  168000    128.84542   -10991.897   -9762.1246    492.63854     102002.7      46.7237      46.7237      46.7237 
  169000    127.34194   -11011.215   -9795.7934    17.585113     102002.7      46.7237      46.7237      46.7237 
  170000    133.95185   -10990.231   -9711.7204    192.78405     102002.7      46.7237      46.7237      46.7237 
  171000    131.89113   -10992.729   -9733.8865    617.33557     102002.7      46.7237      46.7237      46.7237 
  172000    128.33929   -10981.558   -9756.6164    53.889106     102002.7      46.7237      46.7237      46.7237 
  173000    131.77788   -10974.501   -9716.7398    92.599418     102002.7      46.7237      46.7237      46.7237 
  174000    129.80803   -10988.649   -9749.6893     33.87682     102002.7      46.7237      46.7237      46.7237 
  175000    129.90456    -10997.64   -9757.7589    328.27221     102002.7      46.7237      46.7237      46.7237 
  176000    128.38244   -10999.735   -9774.3815    42.956362     102002.7      46.7237      46.7237      46.7237 
  177000    128.84229   -11006.802   -9777.0599     513.5422     102002.7      46.7237      46.7237      46.7237 
  178000    132.13317   -11000.323   -9739.1711    617.57647     102002.7      46.7237      46.7237      46.7237 
  179000    127.25064    -10957.72   -9743.1694    511.52412     102002.7      46.7237      46.7237      46.7237 
  180000    132.50214   -10954.295   -9689.6214    237.40874     102002.7      46.7237      46.7237      46.7237 
  181000    128.90146   -11009.744   -9779.4373    515.69255     102002.7      46.7237      46.7237      46.7237 
  182000    132.04659   -10993.113   -9732.7872    531.87354     102002.7      46.7237      46.7237      46.7237 
  183000    129.67124   -10976.755   -9739.1008    359.51567     102002.7      46.7237      46.7237      46.7237 
  184000    133.21721    -10987.28   -9715.7808    524.73633     102002.7      46.7237      46.7237      46.7237 
  185000    128.86496   -11015.778   -9785.8199    339.99487     102002.7      46.7237      46.7237      46.7237 
  186000    128.92593   -10967.923   -9737.3829     509.4813     102002.7      46.7237      46.7237      46.7237 
  187000    131.13239    -11018.55   -9766.9499    27.955354     102002.7      46.7237      46.7237      46.7237 
  188000    127.29767   -11020.231   -9805.2317    406.24039     102002.7      46.7237      46.7237      46.7237 
  189000    130.75567   -10978.395   -9730.3906    213.90462     102002.7      46.7237      46.7237      46.7237 
  190000    130.68175   -11000.015   -9752.7162    135.18133     102002.7      46.7237      46.7237      46.7237 
  191000    129.43137   -10989.769   -9754.4041    295.67843     102002.7      46.7237      46.7237      46.7237 
  192000    132.67226   -10982.585   -9716.2878     346.1977     102002.7      46.7237      46.7237      46.7237 
  193000    131.04739   -11005.555   -9754.7665    286.67276     102002.7      46.7237      46.7237      46.7237 
  194000    133.80863    -10980.13   -9702.9858    157.44172     102002.7      46.7237      46.7237      46.7237 
  195000    133.18256   -10999.821   -9728.6529    352.06356     102002.7      46.7237      46.7237      46.7237 
  196000    132.13522   -10975.373   -9714.2016    329.30298     102002.7      46.7237      46.7237      46.7237 
  197000    132.05807   -11006.415   -9745.9792    592.10013     102002.7      46.7237      46.7237      46.7237 
  198000    128.91056   -11011.892   -9781.4985    373.06062     102002.7      46.7237      46.7237      46.7237 
  199000    129.10237   -10997.762   -9765.5371    342.53455     102002.7      46.7237      46.7237      46.7237 
  200000    131.70852   -10997.401   -9740.3017    250.48033     102002.7      46.7237      46.7237      46.7237 
  201000     127.9123   -10960.658    -9739.792    231.65448     102002.7      46.7237      46.7237      46.7237 
  202000    128.34656   -10990.768   -9765.7572    196.09286     102002.7      46.7237      46.7237      46.7237 
  203000    132.33062   -11017.865   -9754.8281    29.420368     102002.7      46.7237      46.7237      46.7237 
  204000    130.70198    -11006.85   -9759.3584     89.76186     102002.7      46.7237      46.7237      46.7237 
  205000    132.03176   -10971.646   -9711.4619    123.22421     102002.7      46.7237      46.7237      46.7237 
  206000    129.63558   -10966.527   -9729.2132     -99.6274     102002.7      46.7237      46.7237      46.7237 
  207000    128.48004    -11000.66   -9774.3752    81.446423     102002.7      46.7237      46.7237      46.7237 
  208000     129.4425   -10992.269    -9756.798    362.89284     102002.7      46.7237      46.7237      46.7237 
  209000    132.26872   -11003.956   -9741.5098    395.80036     102002.7      46.7237      46.7237      46.7237 
  210000    130.93918   -10944.113   -9694.3567    332.92513     102002.7      46.7237      46.7237      46.7237 
  211000     131.2019   -10981.538   -9729.2741     468.2171     102002.7      46.7237      46.7237      46.7237 
  212000    130.61494   -11010.347   -9763.6852     188.1168     102002.7      46.7237      46.7237      46.7237 
  213000    131.13506   -10994.062   -9742.4366    170.06174     102002.7      46.7237      46.7237      46.7237 
  214000    129.45379   -10988.821    -9753.242     256.2167     102002.7      46.7237      46.7237      46.7237 
  215000    126.87823   -10992.212    -9781.216    213.25412     102002.7      46.7237      46.7237      46.7237 
  216000    130.40245   -11010.226   -9765.5933    212.44647     102002.7      46.7237      46.7237      46.7237 
  217000     129.1573   -10979.171   -9746.4217    55.668704     102002.7      46.7237      46.7237      46.7237 
  218000    131.33636   -10970.811   -9717.2636    240.97849     102002.7      46.7237      46.7237      46.7237 
  219000     127.6455   -10985.247   -9766.9275    188.37888     102002.7      46.7237      46.7237      46.7237 
  220000    128.74857   -10967.305   -9738.4575     368.2405     102002.7      46.7237      46.7237      46.7237 
  221000    131.21842   -10976.893   -9724.4717     354.3012     102002.7      46.7237      46.7237      46.7237 
  222000    129.87969   -10986.645   -9747.0015      313.967     102002.7      46.7237      46.7237      46.7237 
  223000    131.00358     -10972.8   -9722.4291    193.13982     102002.7      46.7237      46.7237      46.7237 
  224000    132.95907   -10976.018   -9706.9828    60.596551     102002.7      46.7237      46.7237      46.7237 
  225000    128.17125   -10978.265   -9754.9276    315.62461     102002.7      46.7237      46.7237      46.7237 
  226000      128.978   -11012.391   -9781.3536    53.534181     102002.7      46.7237      46.7237      46.7237 
  227000    127.47407   -10986.189   -9769.5061     505.9617     102002.7      46.7237      46.7237      46.7237 
  228000    129.92833   -10989.015    -9748.907    309.20654     102002.7      46.7237      46.7237      46.7237 
  229000    129.49014   -10986.765   -9750.8398    198.63084     102002.7      46.7237      46.7237      46.7237 
  230000    128.87584   -10967.163    -9737.101    75.141252     102002.7      46.7237      46.7237      46.7237 
  231000    127.96599   -10983.126    -9761.748    25.739587     102002.7      46.7237      46.7237      46.7237 
  232000    132.05399    -10961.89    -9701.494    334.82598     102002.7      46.7237      46.7237      46.7237 
  233000    129.79291   -10952.904   -9714.0891   -24.535161     102002.7      46.7237      46.7237      46.7237 
  234000    133.01991   -10977.176   -9707.5599    309.39018     102002.7      46.7237      46.7237      46.7237 
  235000    132.98926   -10994.122   -9724.7994     315.1862     102002.7      46.7237      46.7237      46.7237 
  236000    129.51943    -11018.12   -9781.9145    359.58921     102002.7      46.7237      46.7237      46.7237 
  237000    133.04788   -10978.171   -9708.2884    210.05614     102002.7      46.7237      46.7237      46.7237 
  238000    130.85673   -11000.028   -9751.0589     161.5274     102002.7      46.7237      46.7237      46.7237 
  239000    129.71156   -10978.568   -9740.5287    555.41238     102002.7      46.7237      46.7237      46.7237 
  240000    129.11835   -10980.115   -9747.7375    454.11185     102002.7      46.7237      46.7237      46.7237 
  241000    129.50782   -10984.912   -9748.8179    209.71514     102002.7      46.7237      46.7237      46.7237 
  242000    131.17575    -10932.89   -9680.8761    724.53488     102002.7      46.7237      46.7237      46.7237 
  243000     127.0676   -10992.955   -9780.1517    441.44111     102002.7      46.7237      46.7237      46.7237 
  244000    131.17798   -10976.759   -9724.7238     243.4568     102002.7      46.7237      46.7237      46.7237 
  245000    127.77634   -10974.641   -9755.0725    246.53396     102002.7      46.7237      46.7237      46.7237 
  246000    129.93984   -10984.607   -9744.3895    301.62025     102002.7      46.7237      46.7237      46.7237 
  247000    128.41771   -10962.119   -9736.4289    211.33212     102002.7      46.7237      46.7237      46.7237 
  248000     130.6338   -10984.481   -9737.6396    113.89391     102002.7      46.7237      46.7237      46.7237 
  249000    131.62403   -10995.183   -9738.8905   -146.75737     102002.7      46.7237      46.7237      46.7237 
  250000    128.72234   -10983.262   -9754.6645   -10.515132     102002.7      46.7237      46.7237      46.7237 
  251000    127.09187   -10978.274   -9765.2391    153.11059     102002.7      46.7237      46.7237      46.7237 
  252000    128.27905   -11002.141   -9777.7748    10.911624     102002.7      46.7237      46.7237      46.7237 
  253000     131.2467   -10984.578   -9731.8864    430.01491     102002.7      46.7237      46.7237      46.7237 
  254000    129.98594   -11000.335   -9759.6776    122.47565     102002.7      46.7237      46.7237      46.7237 
  255000    129.22864   -11003.051   -9769.6213   -18.244901     102002.7      46.7237      46.7237      46.7237 
  256000    128.83903   -10977.714    -9748.003    259.39464     102002.7      46.7237      46.7237      46.7237 
  257000    127.04893   -10990.961   -9778.3355    256.91568     102002.7      46.7237      46.7237      46.7237 
  258000    130.19575   -10980.809   -9738.1484    518.79095     102002.7      46.7237      46.7237      46.7237 
  259000    128.23026   -10949.611   -9725.7108    634.30269     102002.7      46.7237      46.7237      46.7237 
  260000    129.87032   -10979.576   -9740.0221    90.973582     102002.7      46.7237      46.7237      46.7237 
  261000    130.14726   -10952.031   -9709.8337    480.48456     102002.7      46.7237      46.7237      46.7237 
  262000    130.06155   -11000.995   -9759.6154    10.927873     102002.7      46.7237      46.7237      46.7237 
  263000    130.15748   -10989.388   -9747.0927    82.752106     102002.7      46.7237      46.7237      46.7237 
  264000    131.83194   -10959.859   -9701.5823    305.90391     102002.7      46.7237      46.7237      46.7237 
  265000      127.813   -10947.022   -9727.1039   -87.148678     102002.7      46.7237      46.7237      46.7237 
  266000    125.92519   -11016.141   -9814.2412   -214.74906     102002.7      46.7237      46.7237      46.7237 
  267000    127.85957   -10970.329   -9749.9664    393.04885     102002.7      46.7237      46.7237      46.7237 
  268000    129.08287   -10996.963   -9764.9251    232.81636     102002.7      46.7237      46.7237      46.7237 
  269000    128.01547   -10995.469   -9773.6184    370.43568     102002.7      46.7237      46.7237      46.7237 
  270000    131.63632   -10984.195   -9727.7854    -34.70898     102002.7      46.7237      46.7237      46.7237 
  271000    127.42377   -10985.514   -9769.3109    92.613706     102002.7      46.7237      46.7237      46.7237 
  272000    128.92381   -10977.853    -9747.333    447.14801     102002.7      46.7237      46.7237      46.7237 
  273000    132.66592   -11016.075   -9749.8377    293.18982     102002.7      46.7237      46.7237      46.7237 
  274000    130.82021   -10981.446   -9732.8256     330.4712     102002.7      46.7237      46.7237      46.7237 
  275000    130.01066   -10958.059   -9717.1652    525.19975     102002.7      46.7237      46.7237      46.7237 
  276000    131.27402   -11002.387   -9749.4346    697.64416     102002.7      46.7237      46.7237      46.7237 
  277000     131.6486   -10992.877   -9736.3495    162.86741     102002.7      46.7237      46.7237      46.7237 
  278000    129.74275   -10964.938   -9726.6012    555.56097     102002.7      46.7237      46.7237      46.7237 
  279000    131.43068   -10970.235   -9715.7876    411.18699     102002.7      46.7237      46.7237      46.7237 
  280000    128.62841   -10969.569   -9741.8687    380.75026     102002.7      46.7237      46.7237      46.7237 
  281000    136.08603   -10946.276   -9647.3956    590.57319     102002.7      46.7237      46.7237      46.7237 
  282000    131.60688   -11005.602   -9749.4733    319.46089     102002.7      46.7237      46.7237      46.7237 
  283000    129.87551   -10981.772   -9742.1683    153.57527     102002.7      46.7237      46.7237      46.7237 
  284000    130.70599   -11034.612   -9787.0819    159.28836     102002.7      46.7237      46.7237      46.7237 
  285000    130.97013   -10982.997   -9732.9459    230.15027     102002.7      46.7237      46.7237      46.7237 
  286000     129.9997   -10971.616   -9730.8272    551.45762     102002.7      46.7237      46.7237      46.7237 
  287000    130.36979   -10972.403   -9728.0811    333.82659     102002.7      46.7237      46.7237      46.7237 
  288000    129.61388   -10990.576   -9753.4691    644.99213     102002.7      46.7237      46.7237      46.7237 
  289000    130.71558   -11000.291   -9752.6696    349.96498     102002.7      46.7237      46.7237      46.7237 
  290000    132.18872   -10958.054   -9696.3714    435.82978     102002.7      46.7237      46.7237      46.7237 
  291000    132.25875   -10968.581   -9706.2307    315.16484     102002.7      46.7237      46.7237      46.7237 
  292000     129.6863   -10990.982   -9753.1838      295.685     102002.7      46.7237      46.7237      46.7237 
  293000     127.2179   -10984.982    -9770.744    249.02122     102002.7      46.7237      46.7237      46.7237 
  294000    129.54233   -10964.846   -9728.4222    629.43049     102002.7      46.7237      46.7237      46.7237 
  295000    128.78293   -10996.109   -9766.9332    448.24408     102002.7      46.7237      46.7237      46.7237 
  296000    131.22161   -10979.661   -9727.2095    87.676371     102002.7      46.7237      46.7237      46.7237 
  297000    128.58641   -10956.509   -9729.2088    160.53733     102002.7      46.7237      46.7237      46.7237 
  298000    129.44281   -10974.179   -9738.7048     296.5752     102002.7      46.7237      46.7237      46.7237 
  299000    129.94449    -10963.87   -9723.6077    391.73955     102002.7      46.7237      46.7237      46.7237 
  300000    128.62174   -11011.651   -9784.0139    328.84584     102002.7      46.7237      46.7237      46.7237 
  301000    130.17977   -10965.485   -9722.9772    355.67313     102002.7      46.7237      46.7237      46.7237 
  302000    130.68721   -10992.937   -9745.5855    8.0156135     102002.7      46.7237      46.7237      46.7237 
  303000    126.93415   -10977.206   -9765.6766    326.50281     102002.7      46.7237      46.7237      46.7237 
  304000    130.57767   -10998.986   -9752.6807    409.39169     102002.7      46.7237      46.7237      46.7237 
  305000    130.02685   -10988.231    -9747.183    313.54451     102002.7      46.7237      46.7237      46.7237 
  306000    131.19596   -10976.121   -9723.9142    348.41959     102002.7      46.7237      46.7237      46.7237 
  307000    126.66342    -11026.83   -9817.8842    229.60573     102002.7      46.7237      46.7237      46.7237 
  308000    127.68136   -10952.102   -9733.4404   -67.160775     102002.7      46.7237      46.7237      46.7237 
  309000    129.59048    -10987.81   -9750.9269      157.173     102002.7      46.7237      46.7237      46.7237 
  310000    129.65728   -10949.814   -9712.2932    417.89027     102002.7      46.7237      46.7237      46.7237 
  311000    130.45679   -10958.632   -9713.4804    359.31785     102002.7      46.7237      46.7237      46.7237 
  312000    128.59491   -11013.499   -9786.1183    122.16315     102002.7      46.7237      46.7237      46.7237 
  313000    126.75836   -10969.607   -9759.7549    439.29342     102002.7      46.7237      46.7237      46.7237 
  314000    128.60576   -10947.915   -9720.4306    43.394402     102002.7      46.7237      46.7237      46.7237 
  315000     127.6252    -10961.45   -9743.3244    19.962304     102002.7      46.7237      46.7237      46.7237 
  316000    133.09348   -11004.146   -9733.8284    118.36794     102002.7      46.7237      46.7237      46.7237 
  317000    131.30646    -10978.41   -9725.1482   -11.494175     102002.7      46.7237      46.7237      46.7237 
  318000    129.20352   -10984.816    -9751.626   -74.424016     102002.7      46.7237      46.7237      46.7237 
  319000    127.96714    -10987.71    -9766.321    92.467336     102002.7      46.7237      46.7237      46.7237 
  320000    129.57195   -10984.189   -9747.4829    100.40936     102002.7      46.7237      46.7237      46.7237 
  321000    129.17835   -10972.631   -9739.6811    387.24685     102002.7      46.7237      46.7237      46.7237 
  322000    130.50206   -10996.234   -9750.6501    338.45546     102002.7      46.7237      46.7237      46.7237 
  323000    132.95032    -10972.16   -9703.2086    391.25789     102002.7      46.7237      46.7237      46.7237 
  324000    126.71667   -10996.165   -9786.7109   -50.586059     102002.7      46.7237      46.7237      46.7237 
  325000    130.46599   -10987.858   -9742.6179    172.25958     102002.7      46.7237      46.7237      46.7237 
  326000    131.40218   -11016.875   -9762.7001     482.3293     102002.7      46.7237      46.7237      46.7237 
  327000    130.16712   -10994.161   -9751.7741    357.98811     102002.7      46.7237      46.7237      46.7237 
  328000    130.69409   -10998.089   -9750.6719     210.5325     102002.7      46.7237      46.7237      46.7237 
  329000     127.3256    -10998.77   -9783.5035    431.72323     102002.7      46.7237      46.7237      46.7237 
  330000    130.80591   -11011.663   -9763.1791    851.16907     102002.7      46.7237      46.7237      46.7237 
  331000    133.07912   -11007.288   -9737.1071    260.09155     102002.7      46.7237      46.7237      46.7237 
  332000    130.84895   -10980.593   -9731.6979    495.18142     102002.7      46.7237      46.7237      46.7237 
  333000    128.38021   -11006.683   -9781.3511    380.81434     102002.7      46.7237      46.7237      46.7237 
  334000    128.20545   -10970.482   -9746.8182    295.73344     102002.7      46.7237      46.7237      46.7237 
  335000    128.00511    -10998.71   -9776.9582    255.49587     102002.7      46.7237      46.7237      46.7237 
  336000    132.49152   -10954.155   -9689.5827    458.91696     102002.7      46.7237      46.7237      46.7237 
  337000    129.78713   -11004.621   -9765.8605    411.13691     102002.7      46.7237      46.7237      46.7237 
  338000    130.61056    -10973.67     -9727.05    432.01938     102002.7      46.7237      46.7237      46.7237 
  339000    127.19431   -10993.798    -9779.785    83.231006     102002.7      46.7237      46.7237      46.7237 
  340000    129.88322   -11006.159   -9766.4814    277.76687     102002.7      46.7237      46.7237      46.7237 
  341000    130.72429   -10960.997   -9713.2919    36.701694     102002.7      46.7237      46.7237      46.7237 
  342000    129.54596   -11001.973   -9765.5143    108.43726     102002.7      46.7237      46.7237      46.7237 
  343000    134.15099   -10961.425   -9681.0138    312.51545     102002.7      46.7237      46.7237      46.7237 
  344000    129.61831   -10986.564   -9749.4154    104.69678     102002.7      46.7237      46.7237      46.7237 
  345000      131.124   -10983.475   -9731.9552    355.61691     102002.7      46.7237      46.7237      46.7237 
  346000    128.91589   -10959.851   -9729.4063     191.8766     102002.7      46.7237      46.7237      46.7237 
  347000     131.4652   -10975.699   -9720.9228    523.06137     102002.7      46.7237      46.7237      46.7237 
  348000    131.45617   -10969.278   -9714.5878    436.28117     102002.7      46.7237      46.7237      46.7237 
  349000    129.73662   -10974.379   -9736.1006    194.97226     102002.7      46.7237      46.7237      46.7237 
  350000    130.57702   -10969.634   -9723.3349    257.05214     102002.7      46.7237      46.7237      46.7237 
  351000    133.94832   -10980.815   -9702.3385    402.02849     102002.7      46.7237      46.7237      46.7237 
  352000    130.14613   -10968.121   -9725.9345    217.17926     102002.7      46.7237      46.7237      46.7237 
  353000    128.01247   -10961.339   -9739.5169   -57.663724     102002.7      46.7237      46.7237      46.7237 
  354000    127.35871   -10979.049   -9763.4665     18.04422     102002.7      46.7237      46.7237      46.7237 
  355000    133.85726   -10991.464   -9713.8563    569.75565     102002.7      46.7237      46.7237      46.7237 
  356000    127.37026   -10954.923   -9739.2306    181.88955     102002.7      46.7237      46.7237      46.7237 
  357000    127.12761   -10979.966   -9766.5893    40.837748     102002.7      46.7237      46.7237      46.7237 
  358000    130.76433    -10956.07   -9707.9831    225.59399     102002.7      46.7237      46.7237      46.7237 
  359000    133.55073   -10980.491   -9705.8084    89.940482     102002.7      46.7237      46.7237      46.7237 
  360000    130.88243   -11000.573   -9751.3591   -53.854538     102002.7      46.7237      46.7237      46.7237 
  361000    128.29301   -10962.041   -9737.5416    552.72311     102002.7      46.7237      46.7237      46.7237 
  362000    129.12905   -10953.185   -9720.7057    245.94997     102002.7      46.7237      46.7237      46.7237 
  363000    131.14913   -10982.271   -9730.5107    391.10473     102002.7      46.7237      46.7237      46.7237 
  364000    129.31151   -10983.017   -9748.7963    51.011088     102002.7      46.7237      46.7237      46.7237 
  365000    128.82598   -10982.045   -9752.4583    436.93098     102002.7      46.7237      46.7237      46.7237 
  366000     128.3219   -10971.902    -9747.127    580.93686     102002.7      46.7237      46.7237      46.7237 
  367000    131.26057   -11015.158   -9762.3342   -34.125269     102002.7      46.7237      46.7237      46.7237 
  368000    131.33041   -10975.082   -9721.5915    742.20161     102002.7      46.7237      46.7237      46.7237 
  369000     130.3108    -10971.54   -9727.7818    585.14162     102002.7      46.7237      46.7237      46.7237 
  370000    127.39844    -10989.88   -9773.9183    241.40891     102002.7      46.7237      46.7237      46.7237 
  371000    130.06822   -10968.422   -9726.9793       440.18     102002.7      46.7237      46.7237      46.7237 
  372000    131.14912   -10967.772   -9716.0121    502.74681     102002.7      46.7237      46.7237      46.7237 
  373000    130.41751   -10977.825   -9733.0479      345.679     102002.7      46.7237      46.7237      46.7237 
  374000    129.67352   -11006.471   -9768.7947    192.13066     102002.7      46.7237      46.7237      46.7237 
  375000    129.96659   -10942.587   -9702.1137    276.87727     102002.7      46.7237      46.7237      46.7237 
  376000    129.66839   -10978.562   -9740.9352    364.70606     102002.7      46.7237      46.7237      46.7237 
  377000    130.61126   -10982.355   -9735.7288    326.39474     102002.7      46.7237      46.7237      46.7237 
  378000    130.13305   -10937.002   -9694.9397    355.51459     102002.7      46.7237      46.7237      46.7237 
  379000    129.18464   -11003.564   -9770.5541    361.10525     102002.7      46.7237      46.7237      46.7237 
  380000    129.37946   -10964.405   -9729.5354    21.235482     102002.7      46.7237      46.7237      46.7237 
  381000    128.85443   -10964.846   -9734.9879    95.672451     102002.7      46.7237      46.7237      46.7237 
  382000    125.88057   -10974.092   -9772.6179    167.22937     102002.7      46.7237      46.7237      46.7237 
  383000    131.07609   -10972.346    -9721.283    102.18439     102002.7      46.7237      46.7237      46.7237 
  384000    127.88606   -10986.569   -9765.9538    228.46174     102002.7      46.7237      46.7237      46.7237 
  385000    132.87408   -10987.263   -9719.0394    226.21969     102002.7      46.7237      46.7237      46.7237 
  386000     128.5721    -10964.93   -9737.7669    193.94437     102002.7      46.7237      46.7237      46.7237 
  387000    129.76833   -10989.188   -9750.6069    190.40672     102002.7      46.7237      46.7237      46.7237 
  388000    131.15898   -11004.404   -9752.5497    432.41446     102002.7      46.7237      46.7237      46.7237 
  389000    130.19969    -10981.09   -9738.3923    354.14254     102002.7      46.7237      46.7237      46.7237 
  390000    132.04271   -10973.588   -9713.2993    177.02522     102002.7      46.7237      46.7237      46.7237 
  391000    126.90163   -10985.986   -9774.7668    194.08508     102002.7      46.7237      46.7237      46.7237 
  392000    130.17305   -11001.671   -9759.2275    440.96701     102002.7      46.7237      46.7237      46.7237 
  393000     132.1065    -10964.97   -9704.0728    441.63915     102002.7      46.7237      46.7237      46.7237 
  394000     130.6155   -10969.782   -9723.1155    405.82202     102002.7      46.7237      46.7237      46.7237 
  395000    129.63538   -11009.452   -9772.1397    175.32271     102002.7      46.7237      46.7237      46.7237 
  396000    131.11647   -10990.731   -9739.2832    131.94368     102002.7      46.7237      46.7237      46.7237 
  397000    130.68764   -10995.329   -9747.9742     111.9755     102002.7      46.7237      46.7237      46.7237 
  398000    128.33191   -10983.319   -9758.4481    242.06904     102002.7      46.7237      46.7237      46.7237 
  399000     129.2679   -10984.308   -9750.5038    392.68918     102002.7      46.7237      46.7237      46.7237 
  400000    128.70242   -10978.359   -9749.9522     569.7188     102002.7      46.7237      46.7237      46.7237 
  401000    128.19471   -10974.265   -9750.7033    257.24308     102002.7      46.7237      46.7237      46.7237 
  402000    129.41778   -11013.633   -9778.3981    299.10011     102002.7      46.7237      46.7237      46.7237 
  403000    129.48576   -10981.144   -9745.2605    465.84933     102002.7      46.7237      46.7237      46.7237 
  404000    129.90599   -10980.403   -9740.5083    129.37787     102002.7      46.7237      46.7237      46.7237 
  405000    131.12188   -10969.909   -9718.4089    398.93316     102002.7      46.7237      46.7237      46.7237 
  406000    130.04744   -10966.034   -9724.7891    695.64161     102002.7      46.7237      46.7237      46.7237 
  407000    128.73342   -10983.037   -9754.3342    351.67377     102002.7      46.7237      46.7237      46.7237 
  408000    127.58666   -10975.937   -9758.1796    330.12081     102002.7      46.7237      46.7237      46.7237 
  409000    129.25196   -10964.697   -9731.0447    218.18334     102002.7      46.7237      46.7237      46.7237 
  410000    127.86907   -10983.543   -9763.0903    343.65786     102002.7      46.7237      46.7237      46.7237 
  411000    133.16082    -10974.11   -9703.1492    430.09467     102002.7      46.7237      46.7237      46.7237 
  412000    132.24181   -10988.898   -9726.7092    361.24189     102002.7      46.7237      46.7237      46.7237 
  413000    129.05361   -11001.439   -9769.6802    459.84366     102002.7      46.7237      46.7237      46.7237 
  414000      130.407   -10982.515   -9737.8388    205.56476     102002.7      46.7237      46.7237      46.7237 
  415000    129.68706   -10991.309   -9753.5037    470.71431     102002.7      46.7237      46.7237      46.7237 
  416000    132.44214   -10999.101   -9734.9999     606.4935     102002.7      46.7237      46.7237      46.7237 
  417000    127.45244   -11002.911   -9786.4345    165.62598     102002.7      46.7237      46.7237      46.7237 
  418000    131.00677   -10990.669   -9740.2677    393.12417     102002.7      46.7237      46.7237      46.7237 
  419000    132.20189   -10960.017   -9698.2089    789.01267     102002.7      46.7237      46.7237      46.7237 
  420000    128.49351   -10982.392   -9755.9791    405.52888     102002.7      46.7237      46.7237      46.7237 
  421000    127.81583   -10966.161   -9746.2162    383.10921     102002.7      46.7237      46.7237      46.7237 
  422000    130.54726   -10988.114   -9742.0985    237.92481     102002.7      46.7237      46.7237      46.7237 
  423000    126.41445   -10958.014   -9751.4441    152.13988     102002.7      46.7237      46.7237      46.7237 
  424000    130.89442   -10986.113   -9736.7839    417.88358     102002.7      46.7237      46.7237      46.7237 
  425000    131.17318   -10946.508   -9694.5183    156.49043     102002.7      46.7237      46.7237      46.7237 
  426000    130.30686   -10964.059   -9720.3386    159.96848     102002.7      46.7237      46.7237      46.7237 
  427000    131.40591   -10995.453   -9741.2422    304.29701     102002.7      46.7237      46.7237      46.7237 
  428000    132.62045   -10983.765   -9717.9624    86.784108     102002.7      46.7237      46.7237      46.7237 
  429000    127.25399   -10992.076   -9777.4939    444.80149     102002.7      46.7237      46.7237      46.7237 
  430000    130.86505   -10981.612   -9732.5631    511.64465     102002.7      46.7237      46.7237      46.7237 
  431000    130.32366   -10990.074   -9746.1924    155.37704     102002.7      46.7237      46.7237      46.7237 
  432000    128.61914   -10989.355    -9761.743    308.47528     102002.7      46.7237      46.7237      46.7237 
  433000     128.9592   -11008.994   -9778.1355    196.30172     102002.7      46.7237      46.7237      46.7237 
  434000     130.1667   -10991.244   -9748.8611    320.56358     102002.7      46.7237      46.7237      46.7237 
  435000    132.35337   -10980.719   -9717.4653    330.20729     102002.7      46.7237      46.7237      46.7237 
  436000    130.04505    -10999.63   -9758.4076    62.897069     102002.7      46.7237      46.7237      46.7237 
  437000    127.48481   -10945.508   -9728.7222    217.70049     102002.7      46.7237      46.7237      46.7237 
  438000    126.58482   -11012.532   -9804.3364    737.09392     102002.7      46.7237      46.7237      46.7237 
  439000    130.47764   -11014.325   -9768.9742    148.37786     102002.7      46.7237      46.7237      46.7237 
  440000     132.1709   -11025.573    -9764.061    262.43444     102002.7      46.7237      46.7237      46.7237 
  441000    130.23255   -10989.101   -9746.0897    547.96693     102002.7      46.7237      46.7237      46.7237 
  442000    131.92397   -10996.286   -9737.1301    413.45968     102002.7      46.7237      46.7237      46.7237 
  443000    127.96344   -10992.873   -9771.5187    739.08124     102002.7      46.7237      46.7237      46.7237 
  444000    128.97338   -10960.692   -9729.6982    719.35007     102002.7      46.7237      46.7237      46.7237 
  445000    131.11093   -10975.089    -9723.694    256.87518     102002.7      46.7237      46.7237      46.7237 
  446000     131.6928   -10974.075    -9717.126    520.93697     102002.7      46.7237      46.7237      46.7237 
  447000     129.9106   -11017.415   -9777.4765    337.82852     102002.7      46.7237      46.7237      46.7237 
  448000    130.42561   -11004.885   -9760.0311    456.44697     102002.7      46.7237      46.7237      46.7237 
  449000     129.0508   -10973.338   -9741.6055    741.97922     102002.7      46.7237      46.7237      46.7237 
  450000     130.4974   -10973.997   -9728.4575    471.94925     102002.7      46.7237      46.7237      46.7237 
  451000     132.2403   -10977.696   -9715.5212   -22.708316     102002.7      46.7237      46.7237      46.7237 
  452000     130.7545   -10965.948    -9717.955   -54.818659     102002.7      46.7237      46.7237      46.7237 
  453000    129.61736   -11000.592   -9763.4517    500.20601     102002.7      46.7237      46.7237      46.7237 
  454000    132.46589   -10983.532   -9719.2045    276.82229     102002.7      46.7237      46.7237      46.7237 
  455000    131.35869    -10968.91   -9715.1495    355.45633     102002.7      46.7237      46.7237      46.7237 
  456000    133.54578   -11000.971   -9726.3358    288.46234     102002.7      46.7237      46.7237      46.7237 
  457000    126.66563   -10968.957   -9759.9898    50.849482     102002.7      46.7237      46.7237      46.7237 
  458000    128.62694   -11005.446   -9777.7595    59.686311     102002.7      46.7237      46.7237      46.7237 
  459000     130.0298   -10972.724   -9731.6479    347.64265     102002.7      46.7237      46.7237      46.7237 
  460000    129.88223   -10984.512   -9744.8443    139.87263     102002.7      46.7237      46.7237      46.7237 
  461000    127.65254    -10985.65   -9767.2637    573.48676     102002.7      46.7237      46.7237      46.7237 
  462000    130.76015   -10975.932   -9727.8851    541.47618     102002.7      46.7237      46.7237      46.7237 
  463000    128.79967   -10994.835   -9765.4999    496.28494     102002.7      46.7237      46.7237      46.7237 
  464000    127.13201   -10968.857   -9755.4388    615.81934     102002.7      46.7237      46.7237      46.7237 
  465000    129.55324   -10964.432   -9727.9043    455.76457     102002.7      46.7237      46.7237      46.7237 
  466000    128.79506   -10994.099   -9764.8077    303.58036     102002.7      46.7237      46.7237      46.7237 
  467000    129.76352   -10960.012    -9721.477    365.24891     102002.7      46.7237      46.7237      46.7237 
  468000    131.53043   -10984.148   -9728.7488    306.55562     102002.7      46.7237      46.7237      46.7237 
  469000    128.05534   -11014.277   -9792.0458     404.4562     102002.7      46.7237      46.7237      46.7237 
  470000    130.22387    -10977.38   -9734.4513    521.64396     102002.7      46.7237      46.7237      46.7237 
  471000    132.24333   -10965.954     -9703.75    581.92009     102002.7      46.7237      46.7237      46.7237 
  472000    126.88012   -10999.774   -9788.7595    263.12886     102002.7      46.7237      46.7237      46.7237 
  473000    129.11309   -10972.243   -9739.9163    573.33251     102002.7      46.7237      46.7237      46.7237 
  474000    131.15077   -11000.514   -9748.7387    148.73607     102002.7      46.7237      46.7237      46.7237 
  475000    132.88579   -10983.725   -9715.3892    72.560463     102002.7      46.7237      46.7237      46.7237 
  476000    131.48482   -10989.632   -9734.6683    242.93029     102002.7      46.7237      46.7237      46.7237 
  477000    129.27506    -10985.99   -9752.1174    285.04229     102002.7      46.7237      46.7237      46.7237 
  478000    128.46854   -10993.839   -9767.6638    554.86351     102002.7      46.7237      46.7237      46.7237 
  479000    131.95873   -10993.483   -9733.9958    387.47849     102002.7      46.7237      46.7237      46.7237 
  480000    129.44037   -10983.965   -9748.5143    260.11062     102002.7      46.7237      46.7237      46.7237 
  481000    132.20729   -10951.087   -9689.2278    420.27839     102002.7      46.7237      46.7237      46.7237 
  482000    129.13697   -10998.464   -9765.9093    491.73344     102002.7      46.7237      46.7237      46.7237 
  483000     126.7501    -10992.38   -9782.6067    427.23303     102002.7      46.7237      46.7237      46.7237 
  484000    126.91923   -10976.769   -9765.3817     254.4074     102002.7      46.7237      46.7237      46.7237 
  485000    129.62557   -10959.863    -9722.645    375.33748     102002.7      46.7237      46.7237      46.7237 
  486000    130.26618   -10999.739    -9756.406    31.514821     102002.7      46.7237      46.7237      46.7237 
  487000    128.37486   -10982.858   -9757.5769    343.53813     102002.7      46.7237      46.7237      46.7237 
  488000    129.67731   -10965.154   -9727.4416    81.678645     102002.7      46.7237      46.7237      46.7237 
  489000    132.66435   -10987.767   -9721.5448    327.30219     102002.7      46.7237      46.7237      46.7237 
  490000    129.07725   -11019.225   -9787.2403    -179.8034     102002.7      46.7237      46.7237      46.7237 
  491000     127.6304   -10980.989   -9762.8142   -171.22564     102002.7      46.7237      46.7237      46.7237 
  492000    130.93918   -10974.457   -9724.7006    303.50649     102002.7      46.7237      46.7237      46.7237 
  493000    130.80558   -10974.378    -9725.897     132.8913     102002.7      46.7237      46.7237      46.7237 
  494000    128.33172   -10996.591   -9771.7223    56.588944     102002.7      46.7237      46.7237      46.7237 
  495000    130.27776   -11015.054   -9771.6105    299.38615     102002.7      46.7237      46.7237      46.7237 
  496000    132.41013   -10965.022   -9701.2259    278.73701     102002.7      46.7237      46.7237      46.7237 
  497000    128.52195   -10988.289   -9761.6042    323.16152     102002.7      46.7237      46.7237      46.7237 
  498000    128.92371   -10949.565   -9719.0456    154.18845     102002.7      46.7237      46.7237      46.7237 
  499000     132.5728   -10979.771    -9714.423    115.62549     102002.7      46.7237      46.7237      46.7237 
  500000    130.50621   -10983.099   -9737.4756     425.1602     102002.7      46.7237      46.7237      46.7237 
  500500    130.63716    -10924.34   -9677.4662    602.93155     102002.7      46.7237      46.7237      46.7237 
Loop time of 1815.39 on 16 procs for 500000 steps with 3203 atoms

Performance: 23.797 ns/day, 1.009 hours/ns, 275.423 timesteps/s
99.8% CPU use with 16 MPI tasks x no OpenMP threads

MPI task timing breakdown:
Section |  min time  |  avg time  |  max time  |%varavg| %total
---------------------------------------------------------------
Pair    | 1042.6     | 1166.2     | 1330.3     | 228.3 | 64.24
Bond    | 134.64     | 174.65     | 212.15     | 223.6 |  9.62
Neigh   | 17.866     | 17.922     | 17.978     |   0.9 |  0.99
Comm    | 275.33     | 438.94     | 580.29     | 406.2 | 24.18
Output  | 0.021579   | 0.022174   | 0.025862   |   0.7 |  0.00
Modify  | 8.9965     | 10.801     | 12.013     |  27.6 |  0.59
Other   |            | 6.823      |            |       |  0.38

Nlocal:    200.188 ave 224 max 164 min
Histogram: 1 1 0 2 1 3 1 2 2 3
Nghost:    4072 ave 4099 max 4041 min
Histogram: 1 0 2 2 3 2 2 1 0 3
Neighs:    11463.2 ave 14008 max 9379 min
Histogram: 1 3 2 3 1 1 1 2 0 2

Total # of neighbors = 183411
Ave neighs/atom = 57.2623
Ave special neighs/atom = 3.59663
Neighbor list builds = 5119
Dangerous builds = 0
Neighbor list info ...
  update every 1 steps, delay 10 steps, check yes
  max neighbors/atom: 2000, page size: 100000
  master list distance cutoff = 16
  ghost atom cutoff = 16
  binsize = 8, bins = 6 6 6
  3 neighbor lists, perpetual/occasional/extra = 3 0 0
  (1) pair buck6d/coul/gauss/dsf, perpetual, skip from (3)
      attributes: half, newton on
      pair build: skip
      stencil: none
      bin: none
  (2) pair lj/cut, perpetual, skip from (3)
      attributes: half, newton on
      pair build: skip
      stencil: none
      bin: none
  (3) neighbor class addition, perpetual
      attributes: half, newton on
      pair build: half/bin/newton
      stencil: half/bin/3d/newton
      bin: standard
Setting up Verlet run ...
  Unit style    : real
  Current step  : 500500
  Time step     : 1
WARNING: Inconsistent image flags (../domain.cpp:786)
Per MPI rank memory allocation (min/avg/max) = 22.79 | 23.29 | 23.44 Mbytes
Step Time TotEng KinEng PotEng E_mol E_pair Temp Pxx Pyy Pzz Pxy Pxz Pyz Cella Cellb Cellc CellAlpha CellBeta CellGamma Volume Press 
  500500       500000   -9677.4662    1246.8734    -10924.34    4401.6481   -15325.988    130.63716    980.15599    212.60156    616.03711   -182.59504    1.5533917    56.237145      46.7237      46.7237      46.7237           90           90           90     102002.7    602.93155 
  501000       500500   -9742.6273    1229.1386   -10971.766    4366.4458   -15338.212    128.77905    432.52647    366.67179    697.13892    146.72595    146.11576    22.202211      46.7237      46.7237      46.7237           90           90           90     102002.7    498.77906 
  502000       501500   -9755.1619    1234.9919   -10990.154    4348.9293   -15339.083    129.39232    163.08789    31.504141    563.84863   -17.942517   -215.77364   -122.42869      46.7237      46.7237      46.7237           90           90           90     102002.7    252.81355 
  503000       502500   -9760.2468    1246.0972   -11006.344    4356.3288   -15362.673    130.55583    331.34271    220.00259    154.82941   -95.357375   -217.95262   -119.69628      46.7237      46.7237      46.7237           90           90           90     102002.7    235.39157 
  504000       503500   -9717.3022    1256.7156   -10974.018    4367.0309   -15341.049    131.66835    480.11407    212.46919    585.20776   -23.482178   -193.61165     35.96458      46.7237      46.7237      46.7237           90           90           90     102002.7    425.93034 
  505000       504500   -9782.5572    1222.5102   -11005.067    4324.3537   -15329.421    128.08458    457.97579    625.48412    391.51344    405.33196   -117.15627    96.515305      46.7237      46.7237      46.7237           90           90           90     102002.7    491.65779 
  506000       505500   -9741.0794    1238.9544   -10980.034    4337.8616   -15317.895    129.80747    739.86489    625.00347    132.51574    203.82171    270.34483    119.04462      46.7237      46.7237      46.7237           90           90           90     102002.7    499.12804 
  507000       506500   -9723.7181    1254.9556   -10978.674     4368.402   -15347.076    131.48395     151.1344    603.65571    247.98028   -128.23016   -44.985714    94.102709      46.7237      46.7237      46.7237           90           90           90     102002.7     334.2568 
  508000       507500   -9666.9946    1272.6775   -10939.672    4397.1072   -15336.779    133.34071     304.7227     649.4444    63.936648    112.05575   -54.916483    154.99641      46.7237      46.7237      46.7237           90           90           90     102002.7    339.36792 
  509000       508500   -9753.7401    1257.8451   -11011.585    4366.7543    -15378.34    131.78669    455.83456   -77.314535    108.50976    191.95843    -307.8793     76.12449      46.7237      46.7237      46.7237           90           90           90     102002.7    162.34326 
  510000       509500   -9768.7781    1208.3001   -10977.078    4384.1505   -15361.229    126.59577   -242.71289   -64.983569    278.20895   -207.58879   -40.778141    25.669168      46.7237      46.7237      46.7237           90           90           90     102002.7   -9.8291706 
  511000       510500   -9764.4632    1212.4316   -10976.895    4371.4169   -15348.312    127.02863   -400.73808    53.378984     -89.8214    -241.9074    204.23602   -83.420309      46.7237      46.7237      46.7237           90           90           90     102002.7   -145.72683 
  512000       511500   -9755.3377    1250.0687   -11005.406    4338.4639    -15343.87    130.97194    656.26016    555.33144    458.70872   -339.58802    98.961259   -129.10781      46.7237      46.7237      46.7237           90           90           90     102002.7    556.76677 
  513000       512500   -9725.7491    1240.9962   -10966.745    4372.5454   -15339.291     130.0214    204.85187    88.709869    326.78469    20.894373    105.26578    94.710025      46.7237      46.7237      46.7237           90           90           90     102002.7    206.78214 
  514000       513500    -9727.274    1249.2686   -10976.543    4366.7142   -15343.257    130.88811    51.242675    172.40362    180.76037    79.333494   -23.702278    150.57171      46.7237      46.7237      46.7237           90           90           90     102002.7    134.80222 
  515000       514500   -9756.4041    1230.1927   -10986.597    4369.5232    -15356.12     128.8895    196.67985   -370.33499      112.157   -49.446645    246.42458   -125.74887      46.7237      46.7237      46.7237           90           90           90     102002.7    -20.49938 
  516000       515500    -9732.741    1268.2863   -11001.027    4380.9133   -15381.941    132.88063    185.19139    -80.49578    237.17656    225.79953    89.208849    235.33086      46.7237      46.7237      46.7237           90           90           90     102002.7    113.95739 
  517000       516500   -9725.2601    1249.3147   -10974.575    4372.3302   -15346.905    130.89294    703.76112    395.62304    237.90865    -228.2356   -13.319613   -116.91658      46.7237      46.7237      46.7237           90           90           90     102002.7    445.76427 
  518000       517500   -9759.6856    1240.9949    -11000.68    4344.4534   -15345.134    130.02126   -103.98433    -266.1648    157.56377   -56.773996    207.01858    31.633094      46.7237      46.7237      46.7237           90           90           90     102002.7   -70.861787 
  519000       518500   -9768.3725    1232.2153   -11000.588    4377.9471   -15378.535    129.10141   -52.204415   -333.28144    167.60034    42.910495    113.05063    10.164607      46.7237      46.7237      46.7237           90           90           90     102002.7   -72.628507 
  520000       519500   -9736.0766    1223.8702   -10959.947    4387.6168   -15347.564    128.22708    356.29798    618.12156     396.9551   -210.22899   -51.361966   -53.084455      46.7237      46.7237      46.7237           90           90           90     102002.7    457.12488 
  521000       520500   -9729.3663    1224.7958   -10954.162    4404.6299   -15358.792    128.32405   -6.9631068   -28.610275   -68.603506    55.769092    168.50817    17.503477      46.7237      46.7237      46.7237           90           90           90     102002.7   -34.725629 
  522000       521500   -9732.6004    1229.6621   -10962.263    4383.1758   -15345.438     128.8339    327.76516    303.98946    1158.5841    143.51198   -287.49028   -125.97645      46.7237      46.7237      46.7237           90           90           90     102002.7    596.77956 
  523000       522500   -9759.9652         1238   -10997.965    4366.4086   -15364.374    129.70748    243.29964    680.74676    308.59432   -114.15058    496.14108   -218.16934      46.7237      46.7237      46.7237           90           90           90     102002.7    410.88024 
  524000       523500   -9761.3189    1238.2315    -10999.55    4363.0652   -15362.616    129.73174    201.60381    129.15505    451.36177   -29.046511    48.035245    78.968084      46.7237      46.7237      46.7237           90           90           90     102002.7    260.70687 
  525000       524500    -9764.323    1213.9967    -10978.32    4393.1929   -15371.513    127.19261   -92.860199    136.02509    360.49132    221.24656    -407.2694   -142.65984      46.7237      46.7237      46.7237           90           90           90     102002.7    134.55207 
  526000       525500   -9749.5475     1248.249   -10997.797    4360.8868   -15358.683    130.78129    284.90829    186.79065    259.12874    72.711892     173.1866   -30.759337      46.7237      46.7237      46.7237           90           90           90     102002.7    243.60922 
  527000       526500   -9729.6763    1222.7072   -10952.383    4371.6365    -15324.02    128.10522    337.56933    365.15815     949.6951    168.48945    196.22123    191.50913      46.7237      46.7237      46.7237           90           90           90     102002.7    550.80753 
  528000       527500   -9772.8083    1207.2266   -10980.035    4376.5752    -15356.61    126.48329    345.12466     444.6676    890.47774     77.02589   -263.87646    339.82361      46.7237      46.7237      46.7237           90           90           90     102002.7       560.09 
  529000       528500   -9756.6571    1217.0114   -10973.668    4384.1921   -15357.861    127.50846    537.52947     457.5532     220.1528    209.50449    162.53611    348.34294      46.7237      46.7237      46.7237           90           90           90     102002.7    405.07849 
  530000       529500   -9750.8711    1238.0556   -10988.927    4344.9371   -15333.864     129.7133   -202.82158    472.25184    390.81363    51.071557    84.361394   -78.950352      46.7237      46.7237      46.7237           90           90           90     102002.7     220.0813 
  531000       530500    -9732.151    1233.7184   -10965.869    4344.0605    -15309.93    129.25889     717.2096    427.41292    811.29332   -118.49866   -38.259241   -113.46205      46.7237      46.7237      46.7237           90           90           90     102002.7    651.97195 
  532000       531500    -9744.255    1254.8375   -10999.092    4350.6129   -15349.705    131.47157    546.73559   -89.684967    234.65399    129.71105   -193.58452   -84.813267      46.7237      46.7237      46.7237           90           90           90     102002.7     230.5682 
  533000       532500   -9724.3179     1243.464   -10967.782    4374.1883    -15341.97    130.27995    206.33146    347.85772    92.059737    178.39071    260.61578    270.92901      46.7237      46.7237      46.7237           90           90           90     102002.7     215.4163 
  534000       533500   -9723.4343    1249.9825   -10973.417    4361.3894   -15334.806     130.9629    306.44254    661.49692    504.80416    57.449553    -148.4803   -37.510094      46.7237      46.7237      46.7237           90           90           90     102002.7    490.91454 
  535000       534500   -9745.7585    1225.6321   -10971.391    4353.4723   -15324.863    128.41167    393.09268    790.31361    152.76821    122.62049   -136.16908    49.894827      46.7237      46.7237      46.7237           90           90           90     102002.7     445.3915 
  536000       535500   -9774.9497    1223.1407    -10998.09    4336.9983   -15335.089    128.15064    572.81579    -164.0342    331.80171    139.75169    -120.1956   -72.237733      46.7237      46.7237      46.7237           90           90           90     102002.7     246.8611 
  537000       536500   -9737.3194    1231.5016   -10968.821    4386.2144   -15355.035    129.02663     223.3702    541.76346    488.87737    476.53663   -374.00314      282.656      46.7237      46.7237      46.7237           90           90           90     102002.7    418.00368 
  538000       537500   -9690.5651    1263.5336   -10954.099    4394.1637   -15348.262    132.38267    176.69376    573.68688    221.37757   -95.172625    5.0755905    370.08244      46.7237      46.7237      46.7237           90           90           90     102002.7     323.9194 
  539000       538500   -9734.7253    1248.8259   -10983.551    4351.3968   -15334.948    130.84173    601.72367    216.73578    428.53253   -168.22205   -80.772467    134.75956      46.7237      46.7237      46.7237           90           90           90     102002.7    415.66399 
  540000       539500   -9724.3661     1287.494    -11011.86    4340.4623   -15352.322    134.89305    354.24747    532.70712    212.52159    336.63942    240.25988   -194.89702      46.7237      46.7237      46.7237           90           90           90     102002.7    366.49206 
  541000       540500   -9728.0563    1271.2525   -10999.309    4341.8098   -15341.119     133.1914   -55.130204    221.01442    265.35093   -155.05347   -2.9089044   -204.06388      46.7237      46.7237      46.7237           90           90           90     102002.7    143.74505 
  542000       541500   -9707.0692    1257.7312     -10964.8    4364.7056   -15329.506    131.77475    189.19671    -185.4356    330.00312    76.028192    45.714021     123.6914      46.7237      46.7237      46.7237           90           90           90     102002.7    111.25474 
  543000       542500   -9760.7177    1211.9165   -10972.634    4350.8551   -15323.489    126.97466    586.05819    104.10418    226.54564   -187.63401    454.06374   -127.60824      46.7237      46.7237      46.7237           90           90           90     102002.7    305.56934 
  544000       543500   -9719.1588    1222.4446   -10941.603    4380.2409   -15321.844    128.07771    210.51212    717.68359    272.61875   -59.384949   -125.11687    22.350796      46.7237      46.7237      46.7237           90           90           90     102002.7    400.27149 
  545000       544500   -9724.4127    1252.9302   -10977.343     4384.651   -15361.994    131.27174    2.1233723     288.6198    382.35011    6.8581096    177.61686    93.218702      46.7237      46.7237      46.7237           90           90           90     102002.7    224.36443 
  546000       545500   -9776.6056    1232.2991   -11008.905    4339.2428   -15348.147    129.11018    27.338375    168.11986   -37.471348    384.02827   -155.13063   -50.587171      46.7237      46.7237      46.7237           90           90           90     102002.7    52.662295 
  547000       546500   -9742.5429    1234.4175    -10976.96    4372.4142   -15349.375    129.33213    378.45113   -15.309999    616.46437   -316.78343   -132.88239    61.850659      46.7237      46.7237      46.7237           90           90           90     102002.7    326.53517 
  548000       547500   -9746.3692    1246.2484   -10992.618    4376.3429   -15368.961    130.57168    383.79585    291.70765    370.27698    52.647081   -127.92946    257.26984      46.7237      46.7237      46.7237           90           90           90     102002.7    348.59349 
  549000       548500    -9745.231    1250.1443   -10995.375    4369.1784   -15364.554    130.97985    197.36183   -62.297392    161.87996   -370.40136   -240.84843    62.401813      46.7237      46.7237      46.7237           90           90           90     102002.7    98.981467 
  550000       549500   -9715.0787    1259.4782   -10974.557    4378.2292   -15352.786    131.95778    659.07864    703.06984    376.67269   -2.0153047    144.09076   -116.64677      46.7237      46.7237      46.7237           90           90           90     102002.7    579.60706 
  551000       550500   -9734.9349    1244.0312   -10978.966    4362.1935    -15341.16    130.33938    74.345578   -9.2334582      213.077     43.20999   -229.40882    -121.3553      46.7237      46.7237      46.7237           90           90           90     102002.7    92.729706 
  552000       551500   -9743.3869     1244.454   -10987.841    4346.0835   -15333.924    130.38368    167.42245    428.89766    390.52417     47.20312    -231.1535    131.24336      46.7237      46.7237      46.7237           90           90           90     102002.7    328.94809 
  553000       552500   -9710.9788    1271.2545   -10982.233    4372.8021   -15355.035    133.19161    185.12848     801.9376    474.34909    2.5087452   -140.56551    185.75538      46.7237      46.7237      46.7237           90           90           90     102002.7    487.13839 
  554000       553500   -9736.6053    1235.1471   -10971.752    4382.6087   -15354.361    129.40858    237.34337    38.822704    974.10872    8.0113834     322.6067       185.49      46.7237      46.7237      46.7237           90           90           90     102002.7    416.75827 
  555000       554500   -9722.1894    1248.1411   -10970.331    4368.9673   -15339.298    130.76998    97.287535    445.59257   -386.92124    255.58044    38.257629   -165.55231      46.7237      46.7237      46.7237           90           90           90     102002.7    51.986287 
[...]
  936000       935500   -9722.3442    1242.1922   -10964.536    4377.5276   -15342.064     130.1467    230.81389    47.132696    591.11577   -12.009168    89.088598    145.76084      46.7237      46.7237      46.7237           90           90           90     102002.7    289.68745 
  937000       936500    -9732.046    1238.0642    -10970.11    4377.2906   -15347.401     129.7142   -111.56316     612.9095    25.566434   -153.68588    18.146624   -104.40369      46.7237      46.7237      46.7237           90           90           90     102002.7    175.63759 
  938000       937500   -9696.7876    1249.7073   -10946.495    4385.8301   -15332.325    130.93407    418.41424    574.10534    377.87955    319.74547    -154.3045    346.47562      46.7237      46.7237      46.7237           90           90           90     102002.7    456.79971 
  939000       938500   -9715.0265    1259.3818   -10974.408    4361.4646   -15335.873    131.94769    619.99404    770.41568    518.61924   -39.194379    137.26345    38.121505      46.7237      46.7237      46.7237           90           90           90     102002.7    636.34299 
  940000       939500   -9780.3024    1239.4515   -11019.754    4350.4068   -15370.161    129.85955   -189.82947    25.408633     406.0427   -204.70246   -21.659178     58.38342      46.7237      46.7237      46.7237           90           90           90     102002.7    80.540623 
  941000       940500   -9729.0706     1245.278   -10974.349     4358.207   -15332.555       130.47    535.38422    255.79105    497.41768    180.81138    160.28992    60.934772      46.7237      46.7237      46.7237           90           90           90     102002.7    429.53099 
  942000       941500   -9782.5723    1214.6497   -10997.222    4346.9964   -15344.218    127.26103     352.0132    243.76827   -127.40467    32.762254   -54.498308    14.929391      46.7237      46.7237      46.7237           90           90           90     102002.7     156.1256 
  943000       942500   -9741.1434    1227.7255   -10968.869    4376.2799   -15345.149      128.631    553.53088    -191.9467    78.726304   -170.81765    208.31187   -165.65213      46.7237      46.7237      46.7237           90           90           90     102002.7    146.77016 
  944000       943500   -9741.1947    1244.1567   -10985.351    4363.2921   -15348.643    130.35252     421.0519   -72.869724    409.55683    37.048906    83.301101    217.92339      46.7237      46.7237      46.7237           90           90           90     102002.7    252.57967 
  945000       944500   -9703.7208     1256.034   -10959.755    4357.2405   -15316.995    131.59693    287.90194    239.86519    694.60774   -42.716537    136.33979    192.52134      46.7237      46.7237      46.7237           90           90           90     102002.7    407.45829 
  946000       945500   -9748.4207    1237.0797     -10985.5    4370.3331   -15355.834    129.61106    212.12458   -89.814461    345.42836    174.70884    369.35866    61.509629      46.7237      46.7237      46.7237           90           90           90     102002.7    155.91283 
  947000       946500   -9751.7294    1250.1472   -11001.877    4351.1556   -15353.032    130.98016    88.257526   -126.89088    609.63587    126.59301   -208.29056   -260.08251      46.7237      46.7237      46.7237           90           90           90     102002.7    190.33417 
  948000       947500   -9731.5527    1254.0711   -10985.624    4379.8644   -15365.488    131.39127    157.89617    330.14529    345.74929    199.96868    23.936984   -12.456845      46.7237      46.7237      46.7237           90           90           90     102002.7    277.93025 
  949000       948500   -9739.9646    1230.5816   -10970.546    4376.7404   -15347.287    128.93024    193.74267    394.86729   -263.36623   -182.58173   -140.66627   -167.40321      46.7237      46.7237      46.7237           90           90           90     102002.7    108.41458 
  950000       949500   -9743.0648    1237.2463   -10980.311    4358.4288    -15338.74    129.62851      654.912    564.78284    123.97282    145.52342   -10.718505    55.617611      46.7237      46.7237      46.7237           90           90           90     102002.7    447.88922 
  951000       950500   -9743.9615     1252.943   -10996.905    4359.3616   -15356.266    131.27309    47.036969    410.52801    211.07253    10.394313   -49.486444   -173.24345      46.7237      46.7237      46.7237           90           90           90     102002.7    222.87917 
  952000       951500   -9702.7301    1269.1296    -10971.86    4363.0026   -15334.862    132.96898    356.85379    21.761365     228.1742    99.299746    -146.2444    497.60743      46.7237      46.7237      46.7237           90           90           90     102002.7    202.26312 
  953000       952500   -9735.6029    1234.0195   -10969.622    4374.1878    -15343.81    129.29044     44.35925    226.46049    48.242967    51.045811   -118.29642   -30.958316      46.7237      46.7237      46.7237           90           90           90     102002.7    106.35424 
  954000       953500   -9771.3045    1253.9929   -11025.297    4356.9192   -15382.217    131.38308    559.38486    749.77138    790.58623    52.945107   -136.81287    -53.04453      46.7237      46.7237      46.7237           90           90           90     102002.7    699.91416 
  955000       954500   -9724.1161    1255.3936    -10979.51    4376.4023   -15355.912    131.52984    389.97057     187.9676   -46.881983   -270.85813   -297.24971    246.00878      46.7237      46.7237      46.7237           90           90           90     102002.7    177.01873 
  956000       955500   -9818.5317    1218.0543   -11036.586    4347.3136     -15383.9    127.61773    90.809673    312.29509    41.121888     88.43763    242.64175    8.7479181      46.7237      46.7237      46.7237           90           90           90     102002.7    148.07555 
  957000       956500   -9742.1893    1246.7636   -10988.953     4375.178   -15364.131    130.62565    460.99962    481.48818    263.35081   -89.121017    217.98831    43.221082      46.7237      46.7237      46.7237           90           90           90     102002.7     401.9462 
  958000       957500   -9760.2378    1245.0166   -11005.254    4345.9659    -15351.22    130.44262    893.37368   -182.26917    276.21891    64.366204    299.56512    181.09646      46.7237      46.7237      46.7237           90           90           90     102002.7     329.1078 
  959000       958500    -9738.059    1268.8683   -11006.927    4338.1594   -15345.087     132.9416    8.0954879    434.42836    67.363577    4.4466911   -304.03618    14.115363      46.7237      46.7237      46.7237           90           90           90     102002.7    169.96247 
  960000       959500   -9716.5085    1245.3343   -10961.843    4399.5648   -15361.408     130.4759   -18.782973   -81.379857    321.44699    77.590967     51.85622    -207.3887      46.7237      46.7237      46.7237           90           90           90     102002.7    73.761387 
  961000       960500   -9723.4845    1269.1854    -10992.67    4374.1496    -15366.82    132.97483    104.35176    454.98892   -146.72593    202.14133   -156.22247    338.99951      46.7237      46.7237      46.7237           90           90           90     102002.7    137.53825 
  962000       961500   -9761.2424    1240.8782   -11002.121    4361.8179   -15363.938    130.00903    8.0449382    426.35742   -250.19308    43.619515    253.60791    178.11287      46.7237      46.7237      46.7237           90           90           90     102002.7    61.403093 
  963000       962500   -9749.1734     1235.184   -10984.357    4367.4691   -15351.826    129.41244    18.792701   -74.082792    166.57699   -379.75199   -111.29039    119.76811      46.7237      46.7237      46.7237           90           90           90     102002.7    37.095633 
  964000       963500   -9741.2962    1242.2978   -10983.594    4365.7111   -15349.305    130.15776    417.31993     229.4112    123.79621    278.36698   -94.722102   -26.116959      46.7237      46.7237      46.7237           90           90           90     102002.7    256.84245 
  965000       964500   -9704.7313    1246.8872   -10951.619    4396.0046   -15347.623     130.6386    246.13499    495.51678   -196.72655    129.33126   -213.35783    23.042584      46.7237      46.7237      46.7237           90           90           90     102002.7    181.64174 
  966000       965500   -9718.7202    1264.0009   -10982.721    4391.0103   -15373.731    132.43164    506.95159   -92.701903    838.47008    108.25105   -38.509574   -494.76691      46.7237      46.7237      46.7237           90           90           90     102002.7    417.57326 
  967000       966500   -9772.3691    1214.6005    -10986.97    4369.4849   -15356.454    127.25587    16.692409   -271.28736    143.64559   -1.4978627    -148.1849   -91.345825      46.7237      46.7237      46.7237           90           90           90     102002.7   -36.983119 
  968000       967500   -9769.6272    1238.4655   -11008.093    4359.1284   -15367.221    129.75625    192.22577   -255.85542    111.67863    13.422648    80.461633    132.35544      46.7237      46.7237      46.7237           90           90           90     102002.7    16.016325 
  969000       968500   -9701.9284    1275.5775   -10977.506    4367.3957   -15344.901    133.64454    481.67883    655.59724    674.60712   -163.05847   -177.90333   -26.525078      46.7237      46.7237      46.7237           90           90           90     102002.7    603.96106 
  970000       969500   -9759.3981    1230.4994   -10989.897     4363.399   -15353.297    128.92163    662.10019    304.02955    172.95997    -22.78161    145.51886     164.6392      46.7237      46.7237      46.7237           90           90           90     102002.7    379.69657 
  971000       970500   -9758.2026    1225.0936   -10983.296    4375.3794   -15358.676    128.35525     313.9543    225.58556    299.02426     86.05701   -4.6950301   -154.76579      46.7237      46.7237      46.7237           90           90           90     102002.7    279.52137 
  972000       971500   -9742.5835    1241.4705   -10984.054    4365.2405   -15349.294    130.07108    242.84176   -57.852263     182.0827   -164.01185   -323.11242   -202.65069      46.7237      46.7237      46.7237           90           90           90     102002.7     122.3574 
  973000       972500   -9778.4147     1217.836   -10996.251    4373.4738   -15369.725    127.59486    163.42985    335.79055    318.58775    8.3295288   -188.02962     13.54956      46.7237      46.7237      46.7237           90           90           90     102002.7    272.60272 
  974000       973500   -9766.6754    1204.5864   -10971.262    4385.8022   -15357.064    126.20667    662.12191    262.64966    699.62019   -89.579052   -247.24282    -187.5811      46.7237      46.7237      46.7237           90           90           90     102002.7    541.46392 
  975000       974500   -9712.3978    1253.3679   -10965.766     4383.175   -15348.941     131.3176    411.23796    55.458237   -111.35142    350.23541    -148.8453    31.357792      46.7237      46.7237      46.7237           90           90           90     102002.7    118.44826 
  976000       975500   -9767.4632    1230.2974   -10997.761    4364.8513   -15362.612    128.90046   -396.21852    195.05907   -75.985941    372.40451    120.80902   -165.07878      46.7237      46.7237      46.7237           90           90           90     102002.7   -92.381798 
  977000       976500   -9776.3865    1235.0466   -11011.433    4370.1069    -15381.54    129.39805   -86.765029      362.431     559.7135   -11.481766    52.002094   -174.11974      46.7237      46.7237      46.7237           90           90           90     102002.7    278.45982 
  978000       977500   -9755.5975    1231.8628    -10987.46    4367.6379   -15355.098    129.06447    127.26534   -136.09278   -323.00123    184.20342    15.194268   -105.30527      46.7237      46.7237      46.7237           90           90           90     102002.7   -110.60955 
  979000       978500   -9711.1119    1283.1556   -10994.268    4381.2182   -15375.486    134.43852   -199.42273   -185.15534    148.61462   -21.401296    -244.7188     87.85962      46.7237      46.7237      46.7237           90           90           90     102002.7   -78.654485 
  980000       979500   -9721.0107    1235.8985   -10956.909    4407.3229   -15364.232     129.4873   -122.33834    95.620008   -14.281641    115.75517   -32.399883   -45.721587      46.7237      46.7237      46.7237           90           90           90     102002.7   -13.666659 
  981000       980500   -9758.2282     1222.233   -10980.461    4403.1348   -15383.596    128.05554    73.742592   -82.204167   -2.1530732    17.436126    270.56648    65.126481      46.7237      46.7237      46.7237           90           90           90     102002.7   -3.5382158 
  982000       981500   -9767.9371    1239.1193   -11007.056     4374.109   -15381.165    129.82475    252.75116    598.68195    222.35095    24.468191    289.50318    261.75297      46.7237      46.7237      46.7237           90           90           90     102002.7    357.92802 
  983000       982500   -9751.3826    1241.4156   -10992.798    4360.2621    -15353.06    130.06534    382.01366    242.80252    302.59904    200.30352     28.61143    26.680252      46.7237      46.7237      46.7237           90           90           90     102002.7    309.13841 
  984000       983500   -9753.7845    1247.4236   -11001.208    4344.8676   -15346.076     130.6948     135.5822    171.31708    158.42336   -128.06847    47.182327   -93.392204      46.7237      46.7237      46.7237           90           90           90     102002.7    155.10755 
  985000       984500   -9726.5356    1260.1586   -10986.694    4376.0543   -15362.749    132.02908    212.15571    62.518506    352.20041   -50.679011   -103.65611     290.4022      46.7237      46.7237      46.7237           90           90           90     102002.7    208.95821 
  986000       985500   -9778.4522    1222.7704   -11001.223     4375.326   -15376.549    128.11184   -55.739124   -52.395558     136.4522   -91.274255    250.16584    63.749691      46.7237      46.7237      46.7237           90           90           90     102002.7    9.4391728 
  987000       986500   -9755.5625     1241.378    -10996.94    4393.7481   -15390.689     130.0614    377.76957   -168.93202    114.03317    247.66035   -92.392089   -95.402414      46.7237      46.7237      46.7237           90           90           90     102002.7    107.62357 
  988000       987500   -9760.6025    1217.7362   -10978.339    4372.6972   -15351.036     127.5844    621.77624    371.31406    57.456398    163.29601   -13.411952   -112.93878      46.7237      46.7237      46.7237           90           90           90     102002.7    350.18223 
  989000       988500   -9717.2285    1246.9639   -10964.192    4379.2374    -15343.43    130.64664   -80.102789   -72.132191     22.63507    -155.1925    104.78412    30.486635      46.7237      46.7237      46.7237           90           90           90     102002.7    -43.19997 
  990000       989500   -9737.9337     1250.324   -10988.258    4356.5028    -15344.76    130.99868    593.21736    372.29784    546.18972   -155.67998    25.183901    69.733728      46.7237      46.7237      46.7237           90           90           90     102002.7    503.90164 
  991000       990500   -9765.5008    1224.1202   -10989.621    4358.9642   -15348.585    128.25327   -148.44785    272.72429   0.11899233   -1.0091546    154.47318    141.82278      46.7237      46.7237      46.7237           90           90           90     102002.7    41.465143 
  992000       991500   -9778.2187    1221.7723   -10999.991    4358.6936   -15358.685    128.00727   -224.72865   -436.55669    487.69579    339.35071    123.03968   -165.60739      46.7237      46.7237      46.7237           90           90           90     102002.7   -57.863182 
  993000       992500   -9745.1219    1250.3908   -10995.513    4344.2225   -15339.735    131.00568   -80.334651    95.114312     652.2275    146.74622    137.01751    61.658593      46.7237      46.7237      46.7237           90           90           90     102002.7    222.33572 
  994000       993500   -9765.7408    1229.5438   -10995.285    4355.6045   -15350.889    128.82151    158.60364    334.12866    155.66031   -311.19544   -71.469412   -99.867481      46.7237      46.7237      46.7237           90           90           90     102002.7    216.13087 
  995000       994500   -9780.8551    1226.7874   -11007.642    4358.3973    -15366.04    128.53271   -18.823491    153.20432    735.25504   -108.62945   -114.66216    195.78844      46.7237      46.7237      46.7237           90           90           90     102002.7    289.87862 
  996000       995500   -9730.9921    1247.6496   -10978.642    4361.9926   -15340.634    130.71848    247.90464     84.13239    232.03611   -49.456672   -228.79605   -241.66878      46.7237      46.7237      46.7237           90           90           90     102002.7    188.02438 
  997000       996500   -9758.1866    1238.6605   -10996.847    4355.1728    -15352.02    129.77668   -108.99236    265.34774    450.53268   -76.589047     241.6306    48.747554      46.7237      46.7237      46.7237           90           90           90     102002.7    202.29602 
  998000       997500   -9734.4354    1250.9726   -10985.408    4358.6903   -15344.098    131.06664    2.7810164    632.60965    444.90236   -388.15854    -23.90369   -37.741346      46.7237      46.7237      46.7237           90           90           90     102002.7    360.09767 
  999000       998500   -9756.4148    1227.6679   -10984.083    4360.9094   -15344.992    128.62496    524.71589    53.608177    299.17883    280.93479    77.674694   -203.03803      46.7237      46.7237      46.7237           90           90           90     102002.7    292.50096 
 1000000       999500   -9747.3849    1225.0958   -10972.481    4353.3211   -15325.802    128.35548    741.52806      872.492    460.01894   -145.47771   -77.548581   -143.41151      46.7237      46.7237      46.7237           90           90           90     102002.7    691.34634 
 1000500      1000000   -9744.8478    1234.7331   -10979.581    4379.9294    -15359.51     129.3652    175.81446    141.51261    223.72334   -86.654692   -98.925488   -247.10997      46.7237      46.7237      46.7237           90           90           90     102002.7    180.35014 
Loop time of 2194.84 on 16 procs for 500000 steps with 3203 atoms

Performance: 19.683 ns/day, 1.219 hours/ns, 227.807 timesteps/s
99.8% CPU use with 16 MPI tasks x no OpenMP threads

MPI task timing breakdown:
Section |  min time  |  avg time  |  max time  |%varavg| %total
---------------------------------------------------------------
Pair    | 1282.1     | 1468.2     | 1678.3     | 323.3 | 66.89
Bond    | 125.44     | 183.79     | 250.96     | 370.3 |  8.37
Neigh   | 18.071     | 18.127     | 18.171     |   0.8 |  0.83
Comm    | 233.64     | 491.06     | 732.57     | 744.2 | 22.37
Output  | 0.13203    | 0.13985    | 0.14056    |   0.5 |  0.01
Modify  | 24.042     | 26.437     | 28.125     |  27.2 |  1.20
Other   |            | 7.051      |            |       |  0.32

Nlocal:    200.188 ave 250 max 155 min
Histogram: 2 2 1 0 3 2 3 1 1 1
Nghost:    4071.19 ave 4128 max 4025 min
Histogram: 3 1 2 1 3 1 0 3 1 1
Neighs:    11479.6 ave 16012 max 7350 min
Histogram: 1 1 1 4 1 4 2 1 0 1

Total # of neighbors = 183673
Ave neighs/atom = 57.3441
Ave special neighs/atom = 3.59663
Neighbor list builds = 5106
Dangerous builds = 0
Total wall time: 1:06:55
