LAMMPS (30 Mar 2018)
Reading data file ...
  orthogonal box = (0 0 0) to (46.7237 46.7237 46.7237)
  2 by 3 by 4 MPI processor grid
  reading atoms ...
  1919 atoms
  scanning bonds ...
  5 = max bonds/atom
  scanning angles ...
  10 = max angles/atom
  scanning dihedrals ...
  32 = max dihedrals/atom
  scanning impropers ...
  3 = max impropers/atom
  reading bonds ...
  2064 bonds
  reading angles ...
  3696 angles
  reading dihedrals ...
  6240 dihedrals
  reading impropers ...
  1008 impropers
Finding 1-2 1-3 1-4 neighbors ...
  special bond factors lj:   0          0          0         
  special bond factors coul: 0          0          0         
  5 = max # of 1-2 neighbors
  8 = max # of 1-3 neighbors
  20 = max # of 1-4 neighbors
  19 = max # of special neighbors
Finding 1-2 1-3 1-4 neighbors ...
  special bond factors lj:   0          0          1         
  special bond factors coul: 1          1          1         
  5 = max # of 1-2 neighbors
  8 = max # of 1-3 neighbors
  19 = max # of special neighbors
WARNING: Using 'neigh_modify every 1 delay 0 check yes' setting during minimization (../min.cpp:168)
Neighbor list info ...
  update every 1 steps, delay 0 steps, check yes
  max neighbors/atom: 2000, page size: 100000
  master list distance cutoff = 16
  ghost atom cutoff = 16
  binsize = 8, bins = 6 6 6
  3 neighbor lists, perpetual/occasional/extra = 3 0 0
  (1) pair buck6d/coul/gauss/dsf, perpetual, skip from (3)
      attributes: half, newton on
      pair build: skip
      stencil: none
      bin: none
  (2) pair lj/cut, perpetual, skip from (3)
      attributes: half, newton on
      pair build: skip
      stencil: none
      bin: none
  (3) neighbor class addition, perpetual
      attributes: half, newton on
      pair build: half/bin/newton
      stencil: half/bin/3d/newton
      bin: standard
Setting up cg style minimization ...
  Unit style    : real
  Current step  : 0
WARNING: Inconsistent image flags (../domain.cpp:786)
Per MPI rank memory allocation (min/avg/max) = 22.88 | 23.29 | 24.43 Mbytes
Step Temp E_pair E_mol TotEng Press 
       0            0   -12080.296    6482.8914   -5597.4042    6110.8173 
     502            0   -12158.689    3719.2245   -8439.4642   -604.33919 
Loop time of 1.25187 on 24 procs for 502 steps with 1919 atoms

99.6% CPU use with 24 MPI tasks x no OpenMP threads

Minimization stats:
  Stopping criterion = max force evaluations
  Energy initial, next-to-last, final = 
        -5597.40418331     -8439.44096317     -8439.46417564
  Force two-norm initial, final = 2576.32 6.98634
  Force max component initial, final = 152.139 1.15478
  Final line search alpha, max atom move = 0.00547256 0.00631962
  Iterations, force evaluations = 502 1000

MPI task timing breakdown:
Section |  min time  |  avg time  |  max time  |%varavg| %total
---------------------------------------------------------------
Pair    | 0.46466    | 0.65916    | 0.86034    |  12.4 | 52.65
Bond    | 0.11911    | 0.15735    | 0.19471    |   4.6 | 12.57
Neigh   | 0.0088559  | 0.009864   | 0.011072   |   0.9 |  0.79
Comm    | 0.20202    | 0.40391    | 0.57977    |  15.3 | 32.26
Output  | 0          | 0          | 0          |   0.0 |  0.00
Modify  | 0          | 0          | 0          |   0.0 |  0.00
Other   |            | 0.02158    |            |       |  1.72

Nlocal:    79.9583 ave 94 max 62 min
Histogram: 1 2 2 2 4 1 3 3 3 3
Nghost:    2149.42 ave 2326 max 2057 min
Histogram: 13 3 0 0 0 0 0 0 2 6
Neighs:    7639.88 ave 11836 max 4973 min
Histogram: 3 3 5 5 2 0 2 2 1 1

Total # of neighbors = 183357
Ave neighs/atom = 95.5482
Ave special neighs/atom = 6.00313
Neighbor list builds = 14
Dangerous builds = 0
Neighbor list info ...
  update every 1 steps, delay 10 steps, check yes
  max neighbors/atom: 2000, page size: 100000
  master list distance cutoff = 16
  ghost atom cutoff = 16
  binsize = 8, bins = 6 6 6
  3 neighbor lists, perpetual/occasional/extra = 3 0 0
  (1) pair buck6d/coul/gauss/dsf, perpetual, skip from (3)
      attributes: half, newton on
      pair build: skip
      stencil: none
      bin: none
  (2) pair lj/cut, perpetual, skip from (3)
      attributes: half, newton on
      pair build: skip
      stencil: none
      bin: none
  (3) neighbor class addition, perpetual
      attributes: half, newton on
      pair build: half/bin/newton
      stencil: half/bin/3d/newton
      bin: standard
Setting up Verlet run ...
  Unit style    : real
  Current step  : 502
  Time step     : 1
WARNING: Inconsistent image flags (../domain.cpp:786)
Per MPI rank memory allocation (min/avg/max) = 22.53 | 22.71 | 23.31 Mbytes
Step Temp PotEng TotEng Press Volume Lx Ly Lz 
     502          110   -8439.4642   -7810.5729     -322.503     102002.7      46.7237      46.7237      46.7237 
    1000    95.520392    -7880.487   -7334.3784   -576.41932     102002.7      46.7237      46.7237      46.7237 
    2000    119.19925   -7811.0778   -7129.5926   -911.42847     102002.7      46.7237      46.7237      46.7237 
    3000    105.28891   -7764.3437   -7162.3866    -712.7064     102002.7      46.7237      46.7237      46.7237 
    4000    109.76323   -7762.2917   -7134.7541   -786.53045     102002.7      46.7237      46.7237      46.7237 
    5000    106.50087   -7779.2403   -7170.3542   -1221.7429     102002.7      46.7237      46.7237      46.7237 
    6000    111.07355   -7795.2226   -7160.1936   -662.50792     102002.7      46.7237      46.7237      46.7237 
    7000    111.64809   -7770.2771   -7131.9633   -701.17778     102002.7      46.7237      46.7237      46.7237 
    8000    110.42642   -7780.6278   -7149.2986   -841.82097     102002.7      46.7237      46.7237      46.7237 
    9000    109.25217   -7799.2751   -7174.6593   -904.90677     102002.7      46.7237      46.7237      46.7237 
   10000    112.61753   -7774.2751   -7130.4188   -775.22182     102002.7      46.7237      46.7237      46.7237 
   11000    108.39109   -7785.2946   -7165.6018   -987.23204     102002.7      46.7237      46.7237      46.7237 
   12000    108.44045   -7768.8667   -7148.8916   -597.75923     102002.7      46.7237      46.7237      46.7237 
   13000    108.28851   -7774.1865   -7155.0801   -721.99975     102002.7      46.7237      46.7237      46.7237 
   14000    107.90492   -7782.6258   -7165.7125   -691.44338     102002.7      46.7237      46.7237      46.7237 
   15000    110.97433   -7768.9546   -7134.4929   -401.74529     102002.7      46.7237      46.7237      46.7237 
   16000    108.95164   -7771.5516    -7148.654   -853.14649     102002.7      46.7237      46.7237      46.7237 
   17000    108.86755    -7772.909   -7150.4921   -881.71062     102002.7      46.7237      46.7237      46.7237 
   18000    111.95067    -7752.101   -7112.0573   -700.74195     102002.7      46.7237      46.7237      46.7237 
   19000    108.50233   -7783.8506   -7163.5218   -931.50098     102002.7      46.7237      46.7237      46.7237 
   20000    111.07238   -7758.6812   -7123.6588   -758.47113     102002.7      46.7237      46.7237      46.7237 
   21000     112.7528   -7794.0011   -7149.3715   -919.82562     102002.7      46.7237      46.7237      46.7237 
   22000    110.28451   -7781.4147   -7150.8968   -1033.7618     102002.7      46.7237      46.7237      46.7237 
   23000    111.66823   -7787.1539    -7148.725   -867.50573     102002.7      46.7237      46.7237      46.7237 
   24000    109.79686   -7786.8465   -7159.1166   -656.45606     102002.7      46.7237      46.7237      46.7237 
   25000    109.66881   -7769.7676   -7142.7698   -826.31364     102002.7      46.7237      46.7237      46.7237 
   26000    109.89978    -7776.869   -7148.5507   -885.54815     102002.7      46.7237      46.7237      46.7237 
   27000    108.68202   -7765.5428   -7144.1867   -550.66146     102002.7      46.7237      46.7237      46.7237 
   28000    109.24073   -7765.0685   -7140.5181   -511.57529     102002.7      46.7237      46.7237      46.7237 
   29000    112.49389   -7793.4702   -7150.3209   -742.98046     102002.7      46.7237      46.7237      46.7237 
   30000    111.02191   -7748.4456   -7113.7118   -630.57884     102002.7      46.7237      46.7237      46.7237 
   31000    112.41357   -7777.1783   -7134.4881   -610.04069     102002.7      46.7237      46.7237      46.7237 
   32000    110.15401   -7790.2701   -7160.4983   -781.58944     102002.7      46.7237      46.7237      46.7237 
   33000    109.51286   -7775.1494   -7149.0431   -841.23523     102002.7      46.7237      46.7237      46.7237 
   34000    114.27369   -7742.9246   -7089.5998   -842.19651     102002.7      46.7237      46.7237      46.7237 
   35000    111.92115   -7760.4419   -7120.5669   -850.48115     102002.7      46.7237      46.7237      46.7237 
   36000    107.18316   -7754.6653   -7141.8784   -897.86693     102002.7      46.7237      46.7237      46.7237 
   37000    107.31328   -7806.8598    -7193.329    -461.4185     102002.7      46.7237      46.7237      46.7237 
   38000    115.12282   -7784.7786   -7126.5992   -1108.2371     102002.7      46.7237      46.7237      46.7237 
   39000    110.08031   -7790.6756   -7161.3252   -701.01746     102002.7      46.7237      46.7237      46.7237 
   40000    110.81506   -7751.2982    -7117.747   -1032.4739     102002.7      46.7237      46.7237      46.7237 
   41000    110.87275   -7765.3977   -7131.5167   -699.47232     102002.7      46.7237      46.7237      46.7237 
   42000    107.65743   -7759.6802   -7144.1818   -779.05724     102002.7      46.7237      46.7237      46.7237 
   43000    109.24484   -7780.3066   -7155.7327   -847.25385     102002.7      46.7237      46.7237      46.7237 
   44000     111.2781   -7766.8879   -7130.6895   -875.38496     102002.7      46.7237      46.7237      46.7237 
   45000    111.73363   -7771.5713   -7132.7685   -875.40977     102002.7      46.7237      46.7237      46.7237 
   46000    108.62899   -7777.0054   -7155.9524   -789.48003     102002.7      46.7237      46.7237      46.7237 
   47000    107.15607   -7808.3901   -7195.7581   -664.24188     102002.7      46.7237      46.7237      46.7237 
   48000    112.36099   -7776.4046   -7134.0151   -605.50545     102002.7      46.7237      46.7237      46.7237 
   49000    111.91015   -7790.7851   -7150.9731   -768.75886     102002.7      46.7237      46.7237      46.7237 
   50000    110.22956    -7777.687   -7147.4832   -533.11612     102002.7      46.7237      46.7237      46.7237 
   51000    110.86655   -7776.1142   -7142.2687   -783.07092     102002.7      46.7237      46.7237      46.7237 
   52000    109.59123   -7772.0416   -7145.4873   -893.66869     102002.7      46.7237      46.7237      46.7237 
   53000    110.63935   -7779.4064   -7146.8598   -1024.6989     102002.7      46.7237      46.7237      46.7237 
   54000     111.1443   -7774.8989   -7139.4654    -688.7735     102002.7      46.7237      46.7237      46.7237 
   55000    112.02998   -7766.8291    -7126.332   -680.40891     102002.7      46.7237      46.7237      46.7237 
   56000    108.04713   -7752.1171   -7134.3907   -970.58767     102002.7      46.7237      46.7237      46.7237 
   57000    111.14739   -7766.9299   -7131.4788   -794.96363     102002.7      46.7237      46.7237      46.7237 
   58000    112.96907   -7750.3714   -7104.5054   -833.90503     102002.7      46.7237      46.7237      46.7237 
   59000    109.10048   -7768.0023   -7144.2537   -961.09747     102002.7      46.7237      46.7237      46.7237 
   60000      114.241   -7782.5347   -7129.3968   -732.34651     102002.7      46.7237      46.7237      46.7237 
   61000    111.56731   -7801.3052   -7163.4533   -676.85906     102002.7      46.7237      46.7237      46.7237 
   62000    106.34897   -7775.4429   -7167.4253   -677.93223     102002.7      46.7237      46.7237      46.7237 
   63000    109.90757   -7769.7797   -7141.4168   -730.42027     102002.7      46.7237      46.7237      46.7237 
   64000    111.92086   -7796.1015   -7156.2283   -685.61385     102002.7      46.7237      46.7237      46.7237 
   65000    109.18688   -7768.4865    -7144.244    -900.7847     102002.7      46.7237      46.7237      46.7237 
   66000    104.57022   -7767.3198   -7169.4716   -1026.1492     102002.7      46.7237      46.7237      46.7237 
   67000    108.67392   -7770.9276   -7149.6178   -801.46312     102002.7      46.7237      46.7237      46.7237 
   68000    110.89857   -7773.3085   -7139.2799   -648.98242     102002.7      46.7237      46.7237      46.7237 
   69000    107.61379   -7762.5941   -7147.3452   -759.34071     102002.7      46.7237      46.7237      46.7237 
   70000    111.08802    -7748.777   -7113.6653   -670.70245     102002.7      46.7237      46.7237      46.7237 
   71000    111.82148   -7774.3985   -7135.0935   -1129.3764     102002.7      46.7237      46.7237      46.7237 
   72000     109.6176   -7765.2934   -7138.5883   -647.13451     102002.7      46.7237      46.7237      46.7237 
   73000    111.88544   -7778.3047   -7138.6339   -1005.4176     102002.7      46.7237      46.7237      46.7237 
   74000    110.47975   -7784.7246   -7153.0904   -908.20004     102002.7      46.7237      46.7237      46.7237 
   75000    109.38482   -7746.5445   -7121.1703   -405.64248     102002.7      46.7237      46.7237      46.7237 
   76000    108.73067    -7777.132   -7155.4978   -576.81936     102002.7      46.7237      46.7237      46.7237 
   77000    106.70724   -7769.8978   -7159.8318   -743.17434     102002.7      46.7237      46.7237      46.7237 
   78000    113.52561   -7767.6036   -7118.5557   -784.72734     102002.7      46.7237      46.7237      46.7237 
   79000    111.64032   -7781.6952   -7143.4259   -882.76627     102002.7      46.7237      46.7237      46.7237 
   80000    110.91605   -7777.3752   -7143.2467   -774.52722     102002.7      46.7237      46.7237      46.7237 
   81000     114.0146   -7764.9527   -7113.1091   -655.73856     102002.7      46.7237      46.7237      46.7237 
   82000    113.07557   -7746.4555   -7099.9806   -500.46626     102002.7      46.7237      46.7237      46.7237 
   83000     107.5148   -7765.4327   -7150.7498   -896.65626     102002.7      46.7237      46.7237      46.7237 
   84000    112.84108   -7769.7499   -7124.6156   -812.74957     102002.7      46.7237      46.7237      46.7237 
   85000    109.43856   -7763.5606   -7137.8791   -526.28189     102002.7      46.7237      46.7237      46.7237 
   86000    108.26851   -7756.7485   -7137.7565   -808.09706     102002.7      46.7237      46.7237      46.7237 
   87000    106.86913   -7758.1483   -7147.1568   -829.58798     102002.7      46.7237      46.7237      46.7237 
   88000    110.57776   -7752.6088   -7120.4143   -860.89158     102002.7      46.7237      46.7237      46.7237 
   89000    109.51241   -7746.2716    -7120.168   -589.94303     102002.7      46.7237      46.7237      46.7237 
   90000    108.15474   -7776.0788   -7157.7372   -567.70963     102002.7      46.7237      46.7237      46.7237 
   91000    105.98929   -7745.3489   -7139.3876   -950.32159     102002.7      46.7237      46.7237      46.7237 
   92000    106.43586    -7742.345   -7133.8306   -735.72119     102002.7      46.7237      46.7237      46.7237 
   93000    108.83971   -7775.5112   -7153.2534   -779.76949     102002.7      46.7237      46.7237      46.7237 
   94000    106.33876   -7791.8087   -7183.8494   -835.96713     102002.7      46.7237      46.7237      46.7237 
   95000    110.40451   -7765.7882   -7134.5842   -547.43406     102002.7      46.7237      46.7237      46.7237 
   96000    110.58268   -7768.4345   -7136.2119   -636.17703     102002.7      46.7237      46.7237      46.7237 
   97000    107.18838   -7781.8808   -7169.0641   -682.66958     102002.7      46.7237      46.7237      46.7237 
   98000    108.34135   -7780.0773   -7160.6689   -523.41293     102002.7      46.7237      46.7237      46.7237 
   99000    111.31684   -7762.8169    -7126.397   -469.03119     102002.7      46.7237      46.7237      46.7237 
  100000     106.6455    -7782.326   -7172.6131   -573.34201     102002.7      46.7237      46.7237      46.7237 
  101000    109.07554   -7769.0568   -7145.4507   -676.38613     102002.7      46.7237      46.7237      46.7237 
  102000    110.33929   -7769.1855   -7138.3545   -685.53998     102002.7      46.7237      46.7237      46.7237 
  103000    109.13819   -7774.0947   -7150.1306   -535.75916     102002.7      46.7237      46.7237      46.7237 
  104000    110.85828   -7786.8675   -7153.0693   -426.92131     102002.7      46.7237      46.7237      46.7237 
  105000    109.00249   -7764.1793   -7140.9909   -943.75278     102002.7      46.7237      46.7237      46.7237 
  106000    109.44265   -7784.6026   -7158.8978   -651.80808     102002.7      46.7237      46.7237      46.7237 
  107000    110.23964    -7768.355   -7138.0936   -684.72034     102002.7      46.7237      46.7237      46.7237 
  108000    111.90605   -7780.5503   -7140.7618   -828.67263     102002.7      46.7237      46.7237      46.7237 
  109000    109.33095   -7773.4577   -7148.3915   -814.05867     102002.7      46.7237      46.7237      46.7237 
  110000    111.92033   -7768.0443   -7128.1741   -476.50025     102002.7      46.7237      46.7237      46.7237 
  111000    109.42474   -7770.3237   -7144.7213    -820.7684     102002.7      46.7237      46.7237      46.7237 
  112000    111.46336   -7748.4007   -7111.1431   -931.58623     102002.7      46.7237      46.7237      46.7237 
  113000    110.17463   -7759.4226   -7129.5329   -694.15006     102002.7      46.7237      46.7237      46.7237 
  114000    108.11941    -7753.908   -7135.7684   -901.63546     102002.7      46.7237      46.7237      46.7237 
  115000    109.31139   -7714.1159   -7089.1615   -871.09727     102002.7      46.7237      46.7237      46.7237 
  116000    110.75674   -7772.6012   -7139.3835   -747.77168     102002.7      46.7237      46.7237      46.7237 
  117000    106.15204   -7765.8195   -7158.9277   -1131.5587     102002.7      46.7237      46.7237      46.7237 
  118000    110.41458   -7768.0757   -7136.8141   -1008.5396     102002.7      46.7237      46.7237      46.7237 
  119000    111.83196   -7765.9064   -7126.5414   -678.87106     102002.7      46.7237      46.7237      46.7237 
  120000    108.19025   -7789.0991   -7170.5544   -759.01719     102002.7      46.7237      46.7237      46.7237 
  121000     109.9682   -7785.6321   -7156.9226   -772.08065     102002.7      46.7237      46.7237      46.7237 
  122000    111.10218   -7763.7251   -7128.5324   -569.91421     102002.7      46.7237      46.7237      46.7237 
  123000    106.65697   -7782.6163   -7172.8378   -848.07593     102002.7      46.7237      46.7237      46.7237 
  124000    108.32298   -7770.3856   -7151.0821   -608.09039     102002.7      46.7237      46.7237      46.7237 
  125000    111.51893   -7760.8799   -7123.3046   -1128.9724     102002.7      46.7237      46.7237      46.7237 
  126000    110.07068    -7773.755   -7144.4596   -712.97969     102002.7      46.7237      46.7237      46.7237 
  127000    112.59634   -7771.0415   -7127.3064   -908.39052     102002.7      46.7237      46.7237      46.7237 
  128000    108.89454   -7778.7522    -7156.181   -759.22356     102002.7      46.7237      46.7237      46.7237 
  129000    111.12753    -7803.201   -7167.8634   -768.12744     102002.7      46.7237      46.7237      46.7237 
  130000    108.91258   -7763.7309   -7141.0566   -742.62183     102002.7      46.7237      46.7237      46.7237 
  131000      109.247   -7773.3783   -7148.7921   -554.32657     102002.7      46.7237      46.7237      46.7237 
  132000    107.85221   -7807.4665   -7190.8546   -797.76664     102002.7      46.7237      46.7237      46.7237 
  133000    111.03538   -7794.9327    -7160.122   -735.98679     102002.7      46.7237      46.7237      46.7237 
  134000    111.04015   -7785.3587   -7150.5207   -670.06409     102002.7      46.7237      46.7237      46.7237 
  135000    113.56158   -7763.4821   -7114.2285   -1034.2419     102002.7      46.7237      46.7237      46.7237 
  136000      107.281   -7761.5115   -7148.1652   -1080.9351     102002.7      46.7237      46.7237      46.7237 
  137000    110.75347   -7763.3341   -7130.1351   -879.88717     102002.7      46.7237      46.7237      46.7237 
  138000     107.6975   -7796.5673   -7180.8398   -994.36454     102002.7      46.7237      46.7237      46.7237 
  139000    109.63184   -7783.8932   -7157.1067   -719.29726     102002.7      46.7237      46.7237      46.7237 
  140000    108.56587   -7784.5728   -7163.8806   -666.55921     102002.7      46.7237      46.7237      46.7237 
  141000     108.8236   -7758.9966    -7136.831   -889.96037     102002.7      46.7237      46.7237      46.7237 
  142000    107.31118   -7786.0257   -7172.5069   -772.15948     102002.7      46.7237      46.7237      46.7237 
  143000     107.6817   -7771.5046   -7155.8675   -732.97145     102002.7      46.7237      46.7237      46.7237 
  144000    113.48493   -7767.6013    -7118.786   -913.39643     102002.7      46.7237      46.7237      46.7237 
  145000    108.56085   -7779.3427   -7158.6793   -741.24288     102002.7      46.7237      46.7237      46.7237 
  146000    112.08682   -7782.8168   -7141.9948   -761.30474     102002.7      46.7237      46.7237      46.7237 
  147000    106.22935    -7763.172   -7155.8382   -716.24891     102002.7      46.7237      46.7237      46.7237 
  148000    108.34905   -7773.6225     -7154.17   -884.78284     102002.7      46.7237      46.7237      46.7237 
  149000    105.87636   -7786.9123   -7181.5966    -880.0876     102002.7      46.7237      46.7237      46.7237 
  150000    109.33162   -7792.0022   -7166.9322   -574.01138     102002.7      46.7237      46.7237      46.7237 
  151000    113.94201   -7777.6475   -7126.2189    -592.1454     102002.7      46.7237      46.7237      46.7237 
  152000    109.13994   -7772.5432   -7148.5691   -593.22706     102002.7      46.7237      46.7237      46.7237 
  153000    110.11831   -7783.9165   -7154.3488   -477.01925     102002.7      46.7237      46.7237      46.7237 
  154000    112.35645   -7767.5632   -7125.1997   -792.77343     102002.7      46.7237      46.7237      46.7237 
  155000    110.70311   -7774.9615   -7142.0503   -1022.5717     102002.7      46.7237      46.7237      46.7237 
  156000    108.68611   -7762.4739   -7141.0943   -1119.9499     102002.7      46.7237      46.7237      46.7237 
  157000    110.30792   -7785.1323   -7154.4806    -726.1861     102002.7      46.7237      46.7237      46.7237 
  158000    110.76948   -7749.1585   -7115.8679    -828.2517     102002.7      46.7237      46.7237      46.7237 
  159000    111.63667   -7777.5585     -7139.31   -842.82621     102002.7      46.7237      46.7237      46.7237 
  160000     106.2133   -7783.7246   -7176.4826   -934.17187     102002.7      46.7237      46.7237      46.7237 
  161000     111.0877   -7774.0637   -7138.9538   -863.34436     102002.7      46.7237      46.7237      46.7237 
  162000     109.0779   -7772.2465   -7148.6271     -978.549     102002.7      46.7237      46.7237      46.7237 
  163000     108.0725   -7771.6164    -7153.745   -735.31358     102002.7      46.7237      46.7237      46.7237 
  164000    107.85973   -7774.5779   -7157.9229   -935.27997     102002.7      46.7237      46.7237      46.7237 
  165000     111.4803   -7773.7127   -7136.3582   -853.02575     102002.7      46.7237      46.7237      46.7237 
  166000    109.25213   -7785.5641   -7160.9485   -705.86251     102002.7      46.7237      46.7237      46.7237 
  167000     106.7236   -7795.0393   -7184.8799   -1061.0197     102002.7      46.7237      46.7237      46.7237 
  168000    110.49683   -7781.2114   -7149.4796   -1188.7815     102002.7      46.7237      46.7237      46.7237 
  169000    111.33506   -7778.5633   -7142.0392   -749.52057     102002.7      46.7237      46.7237      46.7237 
  170000    113.41604   -7771.1157   -7122.6943   -787.34674     102002.7      46.7237      46.7237      46.7237 
  171000    111.46474   -7784.8565    -7147.591   -903.38123     102002.7      46.7237      46.7237      46.7237 
  172000    108.84828   -7786.2431   -7163.9364   -747.25065     102002.7      46.7237      46.7237      46.7237 
  173000    112.99103    -7778.486   -7132.4944   -753.51187     102002.7      46.7237      46.7237      46.7237 
  174000    106.38509   -7769.6853   -7161.4611   -459.46757     102002.7      46.7237      46.7237      46.7237 
  175000     108.6902   -7775.6921   -7154.2891   -798.51158     102002.7      46.7237      46.7237      46.7237 
  176000    109.71045   -7770.7857   -7143.5499   -620.03433     102002.7      46.7237      46.7237      46.7237 
  177000    109.85694   -7780.8581   -7152.7847    -594.1654     102002.7      46.7237      46.7237      46.7237 
  178000    108.60245   -7764.6937   -7143.7924    -795.4636     102002.7      46.7237      46.7237      46.7237 
  179000    110.63079   -7795.2357    -7162.738   -603.80388     102002.7      46.7237      46.7237      46.7237 
  180000    109.55199   -7815.0981   -7188.7682   -769.26973     102002.7      46.7237      46.7237      46.7237 
  181000    109.67711   -7773.1766   -7146.1313   -970.24529     102002.7      46.7237      46.7237      46.7237 
  182000    106.09136   -7769.9145   -7163.3697    -989.0975     102002.7      46.7237      46.7237      46.7237 
  183000    108.75915   -7788.6069   -7166.8098   -907.23509     102002.7      46.7237      46.7237      46.7237 
  184000    112.01452   -7780.8722   -7140.4635   -891.40625     102002.7      46.7237      46.7237      46.7237 
  185000    107.71261   -7769.6031   -7153.7892   -704.02165     102002.7      46.7237      46.7237      46.7237 
  186000    109.86316   -7787.8636   -7159.7546   -613.79236     102002.7      46.7237      46.7237      46.7237 
  187000    109.16035   -7784.7887   -7160.6979   -691.20242     102002.7      46.7237      46.7237      46.7237 
  188000    110.16344   -7775.8617    -7146.036   -670.68181     102002.7      46.7237      46.7237      46.7237 
  189000    108.62679   -7770.4163   -7149.3759   -706.99484     102002.7      46.7237      46.7237      46.7237 
  190000    114.10803   -7764.4946   -7112.1169    -383.3925     102002.7      46.7237      46.7237      46.7237 
  191000    109.20839   -7768.3325    -7143.967   -1167.0596     102002.7      46.7237      46.7237      46.7237 
  192000    110.55597   -7763.9805   -7131.9106   -741.21016     102002.7      46.7237      46.7237      46.7237 
  193000    112.99982   -7789.1291   -7143.0872   -753.37117     102002.7      46.7237      46.7237      46.7237 
  194000    108.57074   -7760.9924   -7140.2724   -989.68331     102002.7      46.7237      46.7237      46.7237 
  195000    110.78397   -7779.1842   -7145.8109   -737.14974     102002.7      46.7237      46.7237      46.7237 
  196000    110.09809    -7783.907   -7154.4549    -765.8418     102002.7      46.7237      46.7237      46.7237 
  197000    114.74539   -7749.2793   -7093.2577   -723.25199     102002.7      46.7237      46.7237      46.7237 
  198000    106.65101   -7760.7669   -7151.0224   -791.08426     102002.7      46.7237      46.7237      46.7237 
  199000    109.17073   -7776.0093   -7151.8591   -956.68516     102002.7      46.7237      46.7237      46.7237 
  200000    111.29617   -7745.3685   -7109.0667   -800.68996     102002.7      46.7237      46.7237      46.7237 
  201000    113.50618   -7778.4272   -7129.4903   -815.03587     102002.7      46.7237      46.7237      46.7237 
  202000    110.64507   -7758.1838   -7125.6045    -618.5384     102002.7      46.7237      46.7237      46.7237 
  203000    111.41863   -7781.4776   -7144.4758   -1052.4879     102002.7      46.7237      46.7237      46.7237 
  204000    111.28316   -7761.3163    -7125.089   -875.34279     102002.7      46.7237      46.7237      46.7237 
  205000    106.85065   -7752.9654   -7142.0795    -766.6807     102002.7      46.7237      46.7237      46.7237 
  206000    107.84113     -7775.51   -7158.9614   -1104.7272     102002.7      46.7237      46.7237      46.7237 
  207000    106.67925   -7775.3509    -7165.445   -978.24266     102002.7      46.7237      46.7237      46.7237 
  208000    109.15021   -7763.0498    -7139.017   -1172.2402     102002.7      46.7237      46.7237      46.7237 
  209000    109.94474   -7785.0844    -7156.509   -827.75944     102002.7      46.7237      46.7237      46.7237 
  210000    111.40731   -7762.3499   -7125.4127   -628.46495     102002.7      46.7237      46.7237      46.7237 
  211000    108.86387   -7803.4762   -7181.0804   -600.38497     102002.7      46.7237      46.7237      46.7237 
  212000    109.16214    -7765.838   -7141.7369   -434.54002     102002.7      46.7237      46.7237      46.7237 
  213000    109.12649   -7762.7363    -7138.839    -662.4777     102002.7      46.7237      46.7237      46.7237 
  214000    111.10752   -7767.1379   -7131.9147   -566.37261     102002.7      46.7237      46.7237      46.7237 
  215000    105.56111   -7776.3767   -7172.8634   -819.39839     102002.7      46.7237      46.7237      46.7237 
  216000    109.97977   -7773.2604   -7144.4848   -678.90132     102002.7      46.7237      46.7237      46.7237 
  217000    108.93737   -7750.5751   -7127.7591   -457.84577     102002.7      46.7237      46.7237      46.7237 
  218000    112.87211   -7757.2066   -7111.8949   -566.24162     102002.7      46.7237      46.7237      46.7237 
  219000    108.37801   -7776.5643   -7156.9462   -544.89955     102002.7      46.7237      46.7237      46.7237 
  220000    111.94873   -7785.1407   -7145.1081   -651.38402     102002.7      46.7237      46.7237      46.7237 
  221000    110.12603    -7758.407   -7128.7952   -719.03025     102002.7      46.7237      46.7237      46.7237 
  222000    109.62303   -7778.5032   -7151.7671   -664.14939     102002.7      46.7237      46.7237      46.7237 
  223000    110.28614   -7772.9485   -7142.4213   -654.31746     102002.7      46.7237      46.7237      46.7237 
  224000    109.28979   -7775.3295   -7150.4986   -539.45402     102002.7      46.7237      46.7237      46.7237 
  225000    110.40616   -7775.4957   -7144.2823   -543.87929     102002.7      46.7237      46.7237      46.7237 
  226000     110.1741   -7757.5569   -7127.6703   -677.91836     102002.7      46.7237      46.7237      46.7237 
  227000    110.01824   -7776.0207   -7147.0251   -788.84228     102002.7      46.7237      46.7237      46.7237 
  228000    109.46237   -7770.4546    -7144.637    -1011.102     102002.7      46.7237      46.7237      46.7237 
  229000    110.54607   -7767.2789   -7135.2656   -602.18591     102002.7      46.7237      46.7237      46.7237 
  230000    108.67058   -7778.2156   -7156.9249   -618.30777     102002.7      46.7237      46.7237      46.7237 
  231000    111.74681   -7785.2087   -7146.3306   -997.52545     102002.7      46.7237      46.7237      46.7237 
  232000     109.4713   -7756.8737   -7131.0051   -861.11118     102002.7      46.7237      46.7237      46.7237 
  233000    110.22808    -7754.795   -7124.5997   -722.38365     102002.7      46.7237      46.7237      46.7237 
  234000    109.85798   -7777.3362   -7149.2569   -629.44443     102002.7      46.7237      46.7237      46.7237 
  235000    107.69306   -7768.1653   -7152.4632   -886.37151     102002.7      46.7237      46.7237      46.7237 
  236000    111.40224   -7780.0673   -7143.1591   -453.13773     102002.7      46.7237      46.7237      46.7237 
  237000    111.35297   -7760.8348   -7124.2083   -633.47975     102002.7      46.7237      46.7237      46.7237 
  238000    109.09611   -7785.2145   -7161.4909   -1088.1689     102002.7      46.7237      46.7237      46.7237 
  239000     108.9587   -7762.9923   -7140.0543   -832.98307     102002.7      46.7237      46.7237      46.7237 
  240000    110.86831   -7765.7621   -7131.9065   -779.25314     102002.7      46.7237      46.7237      46.7237 
  241000    107.65166   -7764.3111   -7148.8457   -789.96075     102002.7      46.7237      46.7237      46.7237 
  242000    106.84467   -7759.0107    -7148.159   -656.88522     102002.7      46.7237      46.7237      46.7237 
  243000    109.64536   -7743.0151   -7116.1513   -747.53005     102002.7      46.7237      46.7237      46.7237 
  244000    110.14309   -7778.5007   -7148.7913   -418.12128     102002.7      46.7237      46.7237      46.7237 
  245000    108.58659   -7770.1771   -7149.3665   -778.75109     102002.7      46.7237      46.7237      46.7237 
  246000     111.3306   -7753.2714   -7116.7728   -924.75809     102002.7      46.7237      46.7237      46.7237 
  247000    109.84123   -7767.4427   -7139.4591   -613.62922     102002.7      46.7237      46.7237      46.7237 
  248000    107.52108    -7781.901   -7167.1821   -692.01712     102002.7      46.7237      46.7237      46.7237 
  249000    114.61108   -7772.2283   -7116.9745   -713.72513     102002.7      46.7237      46.7237      46.7237 
  250000     110.9797   -7756.9181   -7122.4256   -855.69328     102002.7      46.7237      46.7237      46.7237 
  251000    108.94631   -7766.4005   -7143.5334   -579.50381     102002.7      46.7237      46.7237      46.7237 
  252000    106.52919   -7762.4622   -7153.4141   -679.79653     102002.7      46.7237      46.7237      46.7237 
  253000    108.58859   -7753.6512   -7132.8292    -921.8443     102002.7      46.7237      46.7237      46.7237 
  254000    111.20838   -7790.4448   -7154.6449   -749.43691     102002.7      46.7237      46.7237      46.7237 
  255000    109.95205   -7765.0988   -7136.4816   -718.40531     102002.7      46.7237      46.7237      46.7237 
  256000    107.45091   -7780.4052   -7166.0875   -562.83644     102002.7      46.7237      46.7237      46.7237 
  257000    110.34126   -7776.0122   -7145.1698    -550.9783     102002.7      46.7237      46.7237      46.7237 
  258000     112.2947   -7764.0576    -7122.047    -764.6556     102002.7      46.7237      46.7237      46.7237 
  259000    109.60291   -7773.8503   -7147.2292   -551.89704     102002.7      46.7237      46.7237      46.7237 
  260000    110.75911   -7750.3194   -7117.0881   -786.22293     102002.7      46.7237      46.7237      46.7237 
  261000    107.91775   -7760.0919   -7143.1052   -1100.7836     102002.7      46.7237      46.7237      46.7237 
  262000    110.19167   -7810.8182   -7180.8311   -805.49978     102002.7      46.7237      46.7237      46.7237 
  263000    108.79022   -7777.1167   -7155.1419   -537.32551     102002.7      46.7237      46.7237      46.7237 
  264000    109.65906   -7763.9406   -7136.9985   -668.44175     102002.7      46.7237      46.7237      46.7237 
  265000     104.4564   -7786.6497   -7189.4522   -855.02714     102002.7      46.7237      46.7237      46.7237 
  266000    110.21192   -7779.1159    -7149.013    -909.5975     102002.7      46.7237      46.7237      46.7237 
  267000    109.70239   -7773.8614   -7146.6716    -929.6954     102002.7      46.7237      46.7237      46.7237 
  268000    110.28383   -7793.9578   -7163.4438   -801.98498     102002.7      46.7237      46.7237      46.7237 
  269000    112.48429   -7776.7342   -7133.6397    -833.0078     102002.7      46.7237      46.7237      46.7237 
  270000    111.94488   -7799.6595   -7159.6489   -660.17214     102002.7      46.7237      46.7237      46.7237 
  271000     108.8496   -7750.6202    -7128.306   -975.42231     102002.7      46.7237      46.7237      46.7237 
  272000     113.0655   -7775.3315   -7128.9141   -843.47615     102002.7      46.7237      46.7237      46.7237 
  273000    110.22329   -7767.8857   -7137.7178   -935.58763     102002.7      46.7237      46.7237      46.7237 
  274000    107.81033   -7759.1765   -7142.8039   -695.95611     102002.7      46.7237      46.7237      46.7237 
  275000    108.77833   -7763.4377   -7141.5309   -667.50848     102002.7      46.7237      46.7237      46.7237 
  276000    111.94518   -7772.2236   -7132.2113   -959.09408     102002.7      46.7237      46.7237      46.7237 
  277000    107.89982    -7790.004   -7173.1199   -912.60238     102002.7      46.7237      46.7237      46.7237 
  278000    111.09549   -7751.9527   -7116.7982   -1243.6298     102002.7      46.7237      46.7237      46.7237 
  279000    115.21665   -7773.3485   -7114.6326   -1035.2218     102002.7      46.7237      46.7237      46.7237 
  280000    107.10732   -7768.5201   -7156.1668   -1002.0512     102002.7      46.7237      46.7237      46.7237 
  281000    109.68901   -7766.0844   -7138.9711   -763.26056     102002.7      46.7237      46.7237      46.7237 
  282000    110.64204    -7770.722     -7138.16   -592.42434     102002.7      46.7237      46.7237      46.7237 
  283000    110.07988   -7779.4267   -7150.0786   -801.95814     102002.7      46.7237      46.7237      46.7237 
  284000     104.5582   -7761.6513   -7163.8718   -858.66404     102002.7      46.7237      46.7237      46.7237 
  285000    106.74545     -7786.04   -7175.7556   -704.70732     102002.7      46.7237      46.7237      46.7237 
  286000    107.53703   -7751.9087   -7137.0987    -508.1301     102002.7      46.7237      46.7237      46.7237 
  287000    109.98547   -7759.4259   -7130.6176   -736.22647     102002.7      46.7237      46.7237      46.7237 
  288000    109.02181   -7743.0479   -7119.7491   -622.26896     102002.7      46.7237      46.7237      46.7237 
  289000    109.19648   -7774.6708   -7150.3734   -684.44082     102002.7      46.7237      46.7237      46.7237 
  290000    107.16745   -7779.5838   -7166.8867   -541.37478     102002.7      46.7237      46.7237      46.7237 
  291000    108.40762   -7772.3825   -7152.5951   -297.09538     102002.7      46.7237      46.7237      46.7237 
  292000    107.24157   -7757.7979   -7144.6771    -698.4105     102002.7      46.7237      46.7237      46.7237 
  293000     109.0833   -7766.2716   -7142.6213   -503.77791     102002.7      46.7237      46.7237      46.7237 
  294000    112.02902   -7766.1504   -7125.6588   -646.48487     102002.7      46.7237      46.7237      46.7237 
  295000    108.51978   -7777.8999   -7157.4713   -816.54038     102002.7      46.7237      46.7237      46.7237 
  296000    110.99081   -7759.6766   -7125.1207   -672.20236     102002.7      46.7237      46.7237      46.7237 
  297000    110.93764   -7766.6756   -7132.4237   -848.49137     102002.7      46.7237      46.7237      46.7237 
  298000    108.79028   -7768.0023   -7146.0272   -673.95278     102002.7      46.7237      46.7237      46.7237 
  299000    107.11794   -7754.4176   -7142.0036   -1083.9942     102002.7      46.7237      46.7237      46.7237 
  300000    107.63308   -7758.3031   -7142.9439    -915.9734     102002.7      46.7237      46.7237      46.7237 
  301000    110.01595   -7788.8685    -7159.886   -1003.5589     102002.7      46.7237      46.7237      46.7237 
  302000    111.29657   -7767.1133   -7130.8092   -889.48448     102002.7      46.7237      46.7237      46.7237 
  303000    107.84446   -7785.7953   -7169.2277   -611.90104     102002.7      46.7237      46.7237      46.7237 
  304000    110.22272   -7767.0468   -7136.8821   -983.19147     102002.7      46.7237      46.7237      46.7237 
  305000    110.51252   -7787.2891   -7155.4677   -756.45424     102002.7      46.7237      46.7237      46.7237 
  306000    106.65094   -7747.1725   -7137.4285   -890.74781     102002.7      46.7237      46.7237      46.7237 
  307000    107.65657   -7761.3688   -7145.8754   -910.44339     102002.7      46.7237      46.7237      46.7237 
  308000    109.20986   -7791.6023   -7167.2284   -667.42169     102002.7      46.7237      46.7237      46.7237 
  309000    109.51638   -7798.0063   -7171.8799   -633.52981     102002.7      46.7237      46.7237      46.7237 
  310000      109.203    -7774.184   -7149.8493    -619.6521     102002.7      46.7237      46.7237      46.7237 
  311000    111.65536   -7795.2735   -7156.9181   -581.33339     102002.7      46.7237      46.7237      46.7237 
  312000    111.77566   -7768.1951    -7129.152   -705.15784     102002.7      46.7237      46.7237      46.7237 
  313000    108.51615   -7797.8644   -7177.4565   -602.18559     102002.7      46.7237      46.7237      46.7237 
  314000    109.65172   -7765.3532   -7138.4531   -539.98166     102002.7      46.7237      46.7237      46.7237 
  315000    110.15302   -7767.9415   -7138.1753   -678.67714     102002.7      46.7237      46.7237      46.7237 
  316000    110.17737   -7771.2735   -7141.3682   -703.05161     102002.7      46.7237      46.7237      46.7237 
  317000    107.98673   -7779.3902   -7162.0091   -859.51995     102002.7      46.7237      46.7237      46.7237 
  318000      106.653   -7780.1805   -7170.4247   -620.89988     102002.7      46.7237      46.7237      46.7237 
  319000    110.84175   -7768.5217    -7134.818   -679.07949     102002.7      46.7237      46.7237      46.7237 
  320000    109.53532   -7765.1519   -7138.9173   -725.59539     102002.7      46.7237      46.7237      46.7237 
  321000     107.3718   -7773.4853   -7159.6199    -839.5864     102002.7      46.7237      46.7237      46.7237 
  322000    108.32583   -7766.8838    -7147.564   -624.03894     102002.7      46.7237      46.7237      46.7237 
  323000     112.9109   -7778.0073   -7132.4739   -504.64271     102002.7      46.7237      46.7237      46.7237 
  324000    111.89782   -7772.5325    -7132.791    -644.7899     102002.7      46.7237      46.7237      46.7237 
  325000    109.63966   -7778.1926   -7151.3614   -790.39455     102002.7      46.7237      46.7237      46.7237 
  326000    109.40608   -7770.9749   -7145.4792   -770.90718     102002.7      46.7237      46.7237      46.7237 
  327000    113.19708   -7764.4919   -7117.3223   -600.41516     102002.7      46.7237      46.7237      46.7237 
  328000    109.87241   -7765.5005   -7137.3386   -648.45766     102002.7      46.7237      46.7237      46.7237 
  329000    112.29663   -7789.9277   -7147.9061   -843.41855     102002.7      46.7237      46.7237      46.7237 
  330000     105.5348   -7786.2089    -7182.846   -847.30234     102002.7      46.7237      46.7237      46.7237 
  331000    111.09073    -7762.987   -7127.8598    -701.7588     102002.7      46.7237      46.7237      46.7237 
  332000     108.9439   -7751.3513    -7128.498   -771.13765     102002.7      46.7237      46.7237      46.7237 
  333000    110.88401   -7778.3833   -7144.4379   -869.21146     102002.7      46.7237      46.7237      46.7237 
  334000    111.14452   -7754.2484   -7118.8137   -667.35138     102002.7      46.7237      46.7237      46.7237 
  335000    114.12805   -7766.6608   -7114.1686   -526.05548     102002.7      46.7237      46.7237      46.7237 
  336000    108.21851   -7764.1791   -7145.4729   -1011.3461     102002.7      46.7237      46.7237      46.7237 
  337000    110.42318   -7784.0588   -7152.7481   -824.39594     102002.7      46.7237      46.7237      46.7237 
  338000    109.02813   -7756.5841   -7133.2492   -586.86867     102002.7      46.7237      46.7237      46.7237 
  339000    110.28224   -7786.9462   -7156.4412   -663.43508     102002.7      46.7237      46.7237      46.7237 
  340000    112.15629    -7783.823   -7142.6038   -766.61026     102002.7      46.7237      46.7237      46.7237 
  341000    108.21345   -7752.0061   -7133.3288   -736.67378     102002.7      46.7237      46.7237      46.7237 
  342000    111.20961    -7772.201   -7136.3941    -787.1761     102002.7      46.7237      46.7237      46.7237 
  343000    111.90718   -7748.5347   -7108.7397   -900.64828     102002.7      46.7237      46.7237      46.7237 
  344000    110.03737   -7753.1358   -7124.0308    -589.6514     102002.7      46.7237      46.7237      46.7237 
  345000     110.1133   -7795.6657   -7166.1267   -1030.6349     102002.7      46.7237      46.7237      46.7237 
  346000    109.17814   -7777.7355   -7153.5429    -612.0983     102002.7      46.7237      46.7237      46.7237 
  347000    108.53187   -7751.2476   -7130.7499   -926.07608     102002.7      46.7237      46.7237      46.7237 
  348000    107.72829   -7783.3468   -7167.4433   -864.17596     102002.7      46.7237      46.7237      46.7237 
  349000    110.60116   -7754.4942   -7122.1659   -977.00117     102002.7      46.7237      46.7237      46.7237 
  350000    110.17902   -7792.0751   -7162.1603   -917.11914     102002.7      46.7237      46.7237      46.7237 
  351000    109.48195    -7770.469   -7144.5395    -703.3436     102002.7      46.7237      46.7237      46.7237 
  352000    108.27975   -7772.5456   -7153.4893    -484.1116     102002.7      46.7237      46.7237      46.7237 
  353000     112.4629   -7758.5358   -7115.5636   -832.53017     102002.7      46.7237      46.7237      46.7237 
  354000    108.61121   -7766.9586   -7146.0073   -809.16898     102002.7      46.7237      46.7237      46.7237 
  355000    109.93014   -7783.1526   -7154.6607   -649.37009     102002.7      46.7237      46.7237      46.7237 
  356000     108.8047   -7765.3871   -7143.3295   -939.67353     102002.7      46.7237      46.7237      46.7237 
  357000    114.34684   -7764.9325   -7111.1895   -645.80161     102002.7      46.7237      46.7237      46.7237 
  358000    107.73452   -7768.1007   -7152.1615   -757.09685     102002.7      46.7237      46.7237      46.7237 
  359000    111.67757   -7763.4523   -7124.9701   -875.56241     102002.7      46.7237      46.7237      46.7237 
  360000    109.44833   -7752.3929   -7126.6557   -1106.7874     102002.7      46.7237      46.7237      46.7237 
  361000     107.4705   -7771.5596     -7157.13   -812.06805     102002.7      46.7237      46.7237      46.7237 
  362000    115.09548   -7749.2375   -7091.2144   -751.27618     102002.7      46.7237      46.7237      46.7237 
  363000    108.98116   -7764.8897   -7141.8233   -811.64902     102002.7      46.7237      46.7237      46.7237 
  364000    108.66846   -7776.1502   -7154.8716   -602.21904     102002.7      46.7237      46.7237      46.7237 
  365000    108.68311   -7804.9025   -7183.5401   -946.13694     102002.7      46.7237      46.7237      46.7237 
  366000    108.55167    -7768.899   -7148.2881   -1043.0434     102002.7      46.7237      46.7237      46.7237 
  367000    109.69976   -7758.1645   -7130.9897   -608.52077     102002.7      46.7237      46.7237      46.7237 
  368000    110.01472   -7756.6693   -7127.6938   -587.41481     102002.7      46.7237      46.7237      46.7237 
  369000    109.21799   -7788.1484    -7163.728    -605.1574     102002.7      46.7237      46.7237      46.7237 
  370000    111.19983   -7781.1671   -7145.4161   -548.26179     102002.7      46.7237      46.7237      46.7237 
  371000    112.85883   -7750.9493   -7105.7135   -730.40411     102002.7      46.7237      46.7237      46.7237 
  372000    112.44304   -7772.1609   -7129.3022   -749.93153     102002.7      46.7237      46.7237      46.7237 
  373000    111.87321   -7771.8788    -7132.278   -709.48418     102002.7      46.7237      46.7237      46.7237 
  374000    109.06691   -7780.9203   -7157.3636   -869.57724     102002.7      46.7237      46.7237      46.7237 
  375000    108.87183   -7780.0475   -7157.6061    -998.0006     102002.7      46.7237      46.7237      46.7237 
  376000    111.71423   -7762.8139    -7124.122   -887.94416     102002.7      46.7237      46.7237      46.7237 
  377000    111.96102   -7801.6043   -7161.5015   -680.55674     102002.7      46.7237      46.7237      46.7237 
  378000    108.94834   -7771.4508    -7148.572   -992.35207     102002.7      46.7237      46.7237      46.7237 
  379000     109.5012   -7758.3242   -7132.2846    -1100.397     102002.7      46.7237      46.7237      46.7237 
  380000    107.68943   -7772.1773   -7156.4959   -877.57971     102002.7      46.7237      46.7237      46.7237 
  381000    109.72046   -7775.3435   -7148.0503   -736.16868     102002.7      46.7237      46.7237      46.7237 
  382000    110.47104   -7773.2365   -7141.6522   -942.53662     102002.7      46.7237      46.7237      46.7237 
  383000    114.22395   -7764.4938   -7111.4534   -841.57312     102002.7      46.7237      46.7237      46.7237 
  384000    109.90775   -7788.1097   -7159.7458   -931.88919     102002.7      46.7237      46.7237      46.7237 
  385000    112.00306   -7791.4382    -7151.095   -920.69899     102002.7      46.7237      46.7237      46.7237 
  386000    106.51313   -7772.5394   -7163.5832   -843.23738     102002.7      46.7237      46.7237      46.7237 
  387000    112.96971   -7754.6141   -7108.7444   -595.40041     102002.7      46.7237      46.7237      46.7237 
  388000    110.14438   -7789.3276   -7159.6109   -832.63245     102002.7      46.7237      46.7237      46.7237 
  389000      109.629   -7760.7367   -7133.9665    -839.7248     102002.7      46.7237      46.7237      46.7237 
  390000     105.9885   -7761.3542   -7155.3975   -885.29551     102002.7      46.7237      46.7237      46.7237 
  391000    110.44594   -7750.8845   -7119.4437   -772.85576     102002.7      46.7237      46.7237      46.7237 
  392000    111.57366   -7766.0195   -7128.1312   -931.16169     102002.7      46.7237      46.7237      46.7237 
  393000    107.61448   -7765.7372   -7150.4844   -1004.8841     102002.7      46.7237      46.7237      46.7237 
  394000    114.80311   -7769.5063   -7113.1547   -948.38337     102002.7      46.7237      46.7237      46.7237 
  395000     111.7958    -7767.791   -7128.6327   -656.99957     102002.7      46.7237      46.7237      46.7237 
  396000    110.36217   -7772.9107   -7141.9488   -595.05218     102002.7      46.7237      46.7237      46.7237 
  397000     104.9776   -7754.9883   -7154.8111    -758.3052     102002.7      46.7237      46.7237      46.7237 
  398000    112.74057   -7751.4831   -7106.9234   -734.14116     102002.7      46.7237      46.7237      46.7237 
  399000      109.343   -7774.3903   -7149.2552   -705.83625     102002.7      46.7237      46.7237      46.7237 
  400000    111.69693   -7768.7915   -7130.1985   -973.52041     102002.7      46.7237      46.7237      46.7237 
  401000    110.61822   -7778.3691   -7145.9433   -635.05281     102002.7      46.7237      46.7237      46.7237 
  402000    112.07779   -7772.6235   -7131.8531   -750.81214     102002.7      46.7237      46.7237      46.7237 
  403000    109.41461   -7795.1536   -7169.6091   -721.70864     102002.7      46.7237      46.7237      46.7237 
  404000    111.38669   -7763.3476   -7126.5283   -834.24872     102002.7      46.7237      46.7237      46.7237 
  405000    108.88211   -7773.7491    -7151.249   -646.78316     102002.7      46.7237      46.7237      46.7237 
  406000    112.21267   -7759.3821   -7117.8405   -627.55721     102002.7      46.7237      46.7237      46.7237 
  407000    109.60493   -7770.3709   -7143.7383   -593.60417     102002.7      46.7237      46.7237      46.7237 
  408000    113.62083   -7785.4485   -7135.8562   -789.59335     102002.7      46.7237      46.7237      46.7237 
  409000    107.83001   -7768.7767   -7152.2916   -641.80736     102002.7      46.7237      46.7237      46.7237 
  410000    109.49011   -7782.5426   -7156.5664   -657.68755     102002.7      46.7237      46.7237      46.7237 
  411000    108.60706   -7783.5457   -7162.6181   -1020.1227     102002.7      46.7237      46.7237      46.7237 
  412000    109.62956   -7769.6025    -7142.829   -555.76949     102002.7      46.7237      46.7237      46.7237 
  413000    109.87477   -7767.8112   -7139.6359   -620.57535     102002.7      46.7237      46.7237      46.7237 
  414000    109.22164   -7770.8642   -7146.4229   -866.22496     102002.7      46.7237      46.7237      46.7237 
  415000    109.71476   -7762.5667   -7135.3062   -872.65007     102002.7      46.7237      46.7237      46.7237 
  416000    108.41657   -7757.3462   -7137.5077   -846.47401     102002.7      46.7237      46.7237      46.7237 
  417000    109.95813   -7761.5174   -7132.8655    -736.2561     102002.7      46.7237      46.7237      46.7237 
  418000    110.43948   -7789.9378   -7158.5339   -783.69206     102002.7      46.7237      46.7237      46.7237 
  419000    108.23685   -7758.7801   -7139.9691   -543.34823     102002.7      46.7237      46.7237      46.7237 
  420000    109.04429   -7765.9641   -7142.5368   -619.24033     102002.7      46.7237      46.7237      46.7237 
  421000    111.52441   -7770.8218   -7133.2151   -693.98066     102002.7      46.7237      46.7237      46.7237 
  422000    109.79875   -7768.0005   -7140.2598   -689.39196     102002.7      46.7237      46.7237      46.7237 
  423000    112.14855   -7793.2799   -7152.1049   -560.53018     102002.7      46.7237      46.7237      46.7237 
  424000    109.42778   -7789.1093   -7163.4894   -618.06675     102002.7      46.7237      46.7237      46.7237 
  425000    112.63229   -7789.1657   -7145.2251    -809.4524     102002.7      46.7237      46.7237      46.7237 
  426000    111.00794   -7779.5711   -7144.9172   -902.00551     102002.7      46.7237      46.7237      46.7237 
  427000    111.76494   -7760.1824   -7121.2006    -921.7442     102002.7      46.7237      46.7237      46.7237 
  428000    112.15469   -7777.0595   -7135.8495   -902.64397     102002.7      46.7237      46.7237      46.7237 
  429000    105.41063   -7759.3722   -7156.7192   -776.23707     102002.7      46.7237      46.7237      46.7237 
  430000    110.02864   -7757.8881   -7128.8331   -539.15009     102002.7      46.7237      46.7237      46.7237 
  431000    110.62065    -7757.596   -7125.1563   -829.48026     102002.7      46.7237      46.7237      46.7237 
  432000    108.36486   -7765.5352   -7145.9924   -923.63239     102002.7      46.7237      46.7237      46.7237 
  433000    109.36676   -7762.0194   -7136.7485   -557.15809     102002.7      46.7237      46.7237      46.7237 
  434000    108.90703   -7786.5216    -7163.879   -366.07239     102002.7      46.7237      46.7237      46.7237 
  435000    110.73468   -7763.8224   -7130.7308   -425.42055     102002.7      46.7237      46.7237      46.7237 
  436000    111.43036   -7765.1375   -7128.0685    -647.6312     102002.7      46.7237      46.7237      46.7237 
  437000     107.8557   -7772.8296   -7156.1976   -731.73631     102002.7      46.7237      46.7237      46.7237 
  438000    113.29549    -7761.422   -7113.6897    -678.9976     102002.7      46.7237      46.7237      46.7237 
  439000    107.52728   -7771.0392   -7156.2849   -537.75865     102002.7      46.7237      46.7237      46.7237 
  440000    112.43736    -7789.325   -7146.4989   -779.37368     102002.7      46.7237      46.7237      46.7237 
  441000    110.92269   -7773.3324   -7139.1659   -565.64323     102002.7      46.7237      46.7237      46.7237 
  442000    107.86693   -7774.2952   -7157.5991   -585.01998     102002.7      46.7237      46.7237      46.7237 
  443000    110.27127   -7780.8823   -7150.4401   -736.59804     102002.7      46.7237      46.7237      46.7237 
  444000    111.95945   -7776.8864   -7136.7925   -609.05845     102002.7      46.7237      46.7237      46.7237 
  445000    111.24613   -7775.8547    -7139.839   -695.26179     102002.7      46.7237      46.7237      46.7237 
  446000     110.7038   -7764.4481    -7131.533   -413.89553     102002.7      46.7237      46.7237      46.7237 
  447000    107.18374   -7788.0123   -7175.2221   -505.57133     102002.7      46.7237      46.7237      46.7237 
  448000    110.99001   -7758.0923   -7123.5409   -571.92916     102002.7      46.7237      46.7237      46.7237 
  449000    108.56265   -7766.6439   -7145.9702   -711.11286     102002.7      46.7237      46.7237      46.7237 
  450000    111.13514   -7770.4763   -7135.0951   -689.54552     102002.7      46.7237      46.7237      46.7237 
  451000    109.34897   -7755.5754   -7130.4062   -644.50513     102002.7      46.7237      46.7237      46.7237 
  452000    106.52756   -7740.5307    -7131.492   -644.09542     102002.7      46.7237      46.7237      46.7237 
  453000    109.72115    -7780.063   -7152.7659   -708.19687     102002.7      46.7237      46.7237      46.7237 
  454000    110.47144   -7757.2611   -7125.6745   -640.48531     102002.7      46.7237      46.7237      46.7237 
  455000    110.01736   -7789.0168   -7160.0262   -521.29181     102002.7      46.7237      46.7237      46.7237 
  456000     107.8409   -7756.4812   -7139.9339   -692.75964     102002.7      46.7237      46.7237      46.7237 
  457000    108.76164   -7779.4689   -7157.6576   -435.50775     102002.7      46.7237      46.7237      46.7237 
  458000    109.16231   -7754.2083   -7130.1062   -735.44082     102002.7      46.7237      46.7237      46.7237 
  459000    110.85419   -7795.3581   -7161.5832   -870.24586     102002.7      46.7237      46.7237      46.7237 
  460000    106.52015   -7748.5664   -7139.5701   -716.82223     102002.7      46.7237      46.7237      46.7237 
  461000    108.95653   -7745.9877   -7123.0621   -1013.1558     102002.7      46.7237      46.7237      46.7237 
  462000    108.65338   -7778.0627   -7156.8702   -761.42118     102002.7      46.7237      46.7237      46.7237 
  463000    109.83235   -7787.8768   -7159.9439   -837.74283     102002.7      46.7237      46.7237      46.7237 
  464000    108.67218   -7763.3859    -7142.086   -685.24102     102002.7      46.7237      46.7237      46.7237 
  465000    112.54595   -7769.6524   -7126.2054   -648.93381     102002.7      46.7237      46.7237      46.7237 
  466000    110.46677   -7770.1445   -7138.5846   -581.18393     102002.7      46.7237      46.7237      46.7237 
  467000    111.87144   -7762.1793   -7122.5886   -587.38854     102002.7      46.7237      46.7237      46.7237 
  468000    110.58639   -7789.1071   -7156.8633   -597.25307     102002.7      46.7237      46.7237      46.7237 
  469000    105.12611    -7778.932   -7177.9057   -711.10569     102002.7      46.7237      46.7237      46.7237 
  470000    112.36679   -7784.0947   -7141.6719    -712.2435     102002.7      46.7237      46.7237      46.7237 
  471000    109.83251   -7765.6585   -7137.7247   -819.76544     102002.7      46.7237      46.7237      46.7237 
  472000    110.51346   -7780.4529   -7148.6261   -550.85285     102002.7      46.7237      46.7237      46.7237 
  473000    112.75312   -7775.0206   -7130.3892   -848.03373     102002.7      46.7237      46.7237      46.7237 
  474000     110.1116   -7772.5862   -7143.0568   -861.28671     102002.7      46.7237      46.7237      46.7237 
  475000    110.56143   -7781.4441    -7149.343   -724.33441     102002.7      46.7237      46.7237      46.7237 
  476000    109.65506   -7747.1188   -7120.1996   -891.26016     102002.7      46.7237      46.7237      46.7237 
  477000     107.6854   -7774.4127   -7158.7544   -899.36984     102002.7      46.7237      46.7237      46.7237 
  478000    110.89578   -7764.9315   -7130.9188   -614.59267     102002.7      46.7237      46.7237      46.7237 
  479000    111.55719   -7784.0192   -7146.2252   -750.89621     102002.7      46.7237      46.7237      46.7237 
  480000    112.47109   -7784.5781   -7141.5591   -706.15884     102002.7      46.7237      46.7237      46.7237 
  481000    112.00203   -7790.9193    -7150.582   -844.91488     102002.7      46.7237      46.7237      46.7237 
  482000     111.7404   -7778.9629   -7140.1214   -807.70318     102002.7      46.7237      46.7237      46.7237 
  483000    105.72832   -7768.6477   -7164.1784   -690.08339     102002.7      46.7237      46.7237      46.7237 
  484000    109.12192   -7766.4437   -7142.5726   -630.31063     102002.7      46.7237      46.7237      46.7237 
  485000    109.75142   -7764.5065   -7137.0364   -838.23877     102002.7      46.7237      46.7237      46.7237 
  486000    108.97684    -7773.767   -7150.7254   -525.19732     102002.7      46.7237      46.7237      46.7237 
  487000    110.09601   -7774.8517   -7145.4115   -671.95103     102002.7      46.7237      46.7237      46.7237 
  488000    107.23654   -7777.6445   -7164.5525   -819.02024     102002.7      46.7237      46.7237      46.7237 
  489000     109.9121   -7782.9105   -7154.5218   -696.06864     102002.7      46.7237      46.7237      46.7237 
  490000    112.10745   -7749.6729   -7108.7329   -566.95974     102002.7      46.7237      46.7237      46.7237 
  491000     106.5116   -7763.9169   -7154.9694    -812.1989     102002.7      46.7237      46.7237      46.7237 
  492000    110.46511   -7760.6926   -7129.1422    -968.0164     102002.7      46.7237      46.7237      46.7237 
  493000    107.76565   -7789.8446   -7173.7275    -625.8148     102002.7      46.7237      46.7237      46.7237 
  494000     109.8191   -7769.0043   -7141.1473   -558.19649     102002.7      46.7237      46.7237      46.7237 
  495000    111.21025   -7770.4186    -7134.608   -677.28027     102002.7      46.7237      46.7237      46.7237 
  496000    108.48001   -7750.1077   -7129.9064    -732.9778     102002.7      46.7237      46.7237      46.7237 
  497000    109.84958   -7788.2312   -7160.1999   -798.97824     102002.7      46.7237      46.7237      46.7237 
  498000    107.46571   -7762.9217   -7148.5195   -803.47364     102002.7      46.7237      46.7237      46.7237 
  499000      111.827    -7769.156   -7129.8194   -687.12164     102002.7      46.7237      46.7237      46.7237 
  500000    109.31229    -7784.711   -7159.7514   -676.91666     102002.7      46.7237      46.7237      46.7237 
  500502    108.92604   -7774.5316   -7151.7803    -946.4034     102002.7      46.7237      46.7237      46.7237 
Loop time of 589.736 on 24 procs for 500000 steps with 1919 atoms

Performance: 73.253 ns/day, 0.328 hours/ns, 847.837 timesteps/s
99.8% CPU use with 24 MPI tasks x no OpenMP threads

MPI task timing breakdown:
Section |  min time  |  avg time  |  max time  |%varavg| %total
---------------------------------------------------------------
Pair    | 217.08     | 293.72     | 388.79     | 266.2 | 49.81
Bond    | 56.288     | 78.306     | 97.669     | 140.9 | 13.28
Neigh   | 2.8053     | 2.8388     | 2.8605     |   1.1 |  0.48
Comm    | 112.77     | 207.35     | 292.89     | 331.9 | 35.16
Output  | 0.31732    | 0.31765    | 0.32168    |   0.2 |  0.05
Modify  | 3.676      | 4.0498     | 4.5427     |  12.8 |  0.69
Other   |            | 3.156      |            |       |  0.54

Nlocal:    79.9583 ave 117 max 43 min
Histogram: 1 1 3 3 4 3 4 3 1 1
Nghost:    2185.5 ave 2335 max 2075 min
Histogram: 3 8 3 2 0 0 0 0 3 5
Neighs:    7645.46 ave 9967 max 3679 min
Histogram: 1 0 0 0 5 5 4 4 4 1

Total # of neighbors = 183491
Ave neighs/atom = 95.618
Ave special neighs/atom = 6.00313
Neighbor list builds = 4214
Dangerous builds = 0
Neighbor list info ...
  update every 1 steps, delay 10 steps, check yes
  max neighbors/atom: 2000, page size: 100000
  master list distance cutoff = 16
  ghost atom cutoff = 16
  binsize = 8, bins = 6 6 6
  3 neighbor lists, perpetual/occasional/extra = 3 0 0
  (1) pair buck6d/coul/gauss/dsf, perpetual, skip from (3)
      attributes: half, newton on
      pair build: skip
      stencil: none
      bin: none
  (2) pair lj/cut, perpetual, skip from (3)
      attributes: half, newton on
      pair build: skip
      stencil: none
      bin: none
  (3) neighbor class addition, perpetual
      attributes: half, newton on
      pair build: half/bin/newton
      stencil: half/bin/3d/newton
      bin: standard
Setting up Verlet run ...
  Unit style    : real
  Current step  : 500502
  Time step     : 1
WARNING: Inconsistent image flags (../domain.cpp:786)
Per MPI rank memory allocation (min/avg/max) = 23.93 | 24.44 | 24.59 Mbytes
Step Time TotEng KinEng PotEng E_mol E_pair Temp Pxx Pyy Pzz Pxy Pxz Pyz Cella Cellb Cellc CellAlpha CellBeta CellGamma Volume Press 
  500502       500000   -7151.7803    622.75128   -7774.5316     4292.389   -12066.921    108.92604   -1331.0759   -963.90197    -544.2323    209.71547    84.867102    297.60997      46.7237      46.7237      46.7237           90           90           90     102002.7    -946.4034 
  501000       500498   -7144.1565    634.55771   -7778.7142    4288.8326   -12067.547    110.99112   -772.56773   -502.37537    -539.0182    138.14667    67.524723   -11.824941      46.7237      46.7237      46.7237           90           90           90     102002.7   -604.65376 
  502000       501498   -7144.0676    617.98834    -7762.056    4297.5824   -12059.638    108.09295   -405.79145   -915.65331   -119.94707    10.671041    78.793138   -156.51241      46.7237      46.7237      46.7237           90           90           90     102002.7   -480.46394 
  503000       502498   -7129.5007    636.03526    -7765.536    4293.1522   -12058.688    111.24956   -674.05721   -553.88105   -605.04817   -160.88834    100.83188    70.954839      46.7237      46.7237      46.7237           90           90           90     102002.7   -610.99547 
  504000       503498   -7153.8911    639.02528   -7792.9163    4295.2621   -12088.178    111.77254   -1005.5738   -597.14334   -976.12056   -453.05174    -354.2274    70.554336      46.7237      46.7237      46.7237           90           90           90     102002.7   -859.61255 
  505000       504498   -7138.7673    624.94406   -7763.7113    4283.5918   -12047.303    109.30958   -811.68475    -518.3457   -562.81753    76.307785   -51.983691   -95.847746      46.7237      46.7237      46.7237           90           90           90     102002.7   -630.94933 
  506000       505498   -7128.8146    631.20415   -7760.0187    4289.6177   -12049.636    110.40454   -978.74945   -890.21333   -696.72026   -119.01126   -52.325922    72.161588      46.7237      46.7237      46.7237           90           90           90     102002.7   -855.22768 
  507000       506498   -7151.3874    618.12289   -7769.5103    4285.8657   -12055.376    108.11649   -658.99881   -555.42602    -643.0453     22.52402    191.30622   -88.936082      46.7237      46.7237      46.7237           90           90           90     102002.7   -619.15671 
  508000       507498    -7103.706    661.37528   -7765.0813    4307.1715   -12072.253     115.6818   -560.38373   -455.10389   -832.11247    99.898492    13.260337    36.117056      46.7237      46.7237      46.7237           90           90           90     102002.7    -615.8667 
  509000       508498   -7145.7073    616.30155   -7762.0088     4279.837   -12041.846    107.79791   -1234.9738   -768.64382   -862.67598      3.18685    8.0586915    89.986797      46.7237      46.7237      46.7237           90           90           90     102002.7   -955.43119 
  510000       509498   -7169.1654    615.52023   -7784.6856    4261.7423   -12046.428    107.66125   -792.30365   -168.51233   -893.12562   -59.772643   -312.97354    153.71567      46.7237      46.7237      46.7237           90           90           90     102002.7   -617.98053 
  511000       510498   -7148.0611     621.1953   -7769.2564     4298.084    -12067.34    108.65388   -753.70052   -843.63483   -437.65974   -258.77589     38.40505   -113.62419      46.7237      46.7237      46.7237           90           90           90     102002.7    -678.3317 
  512000       511498   -7179.2887    617.97559   -7797.2643    4260.6602   -12057.924    108.09072   -1017.3459   -796.77079   -840.92267   -40.217569   -184.18392   -86.587448      46.7237      46.7237      46.7237           90           90           90     102002.7   -885.01312 
  513000       512498   -7139.9049    633.15871   -7773.0636    4302.0666    -12075.13    110.74642   -766.93161   -473.27049   -645.97609    74.387442   -320.07655   -50.970924      46.7237      46.7237      46.7237           90           90           90     102002.7   -628.72606 
  514000       513498   -7129.7188    637.16293   -7766.8818     4308.634   -12075.516     111.4468   -555.34987    -787.1139   -1426.2551    25.701558    61.968334   -86.200559      46.7237      46.7237      46.7237           90           90           90     102002.7   -922.90629 
  515000       514498   -7141.1386    646.25639    -7787.395     4298.179   -12085.574    113.03734   -619.95863   -447.88712   -767.35295     220.9663   -48.950467    27.928359      46.7237      46.7237      46.7237           90           90           90     102002.7    -611.7329 
  516000       515498   -7136.6763    637.43589   -7774.1122    4275.2554   -12049.368    111.49454    -749.0391   -541.64228   -1007.3146    136.20569    14.901013    -10.36166      46.7237      46.7237      46.7237           90           90           90     102002.7   -765.99866 
  517000       516498   -7169.0069    619.69431   -7788.7012    4268.9653   -12057.667    108.39135   -832.85376   -767.02648   -1020.6909    78.905022   -205.72352   -58.201913      46.7237      46.7237      46.7237           90           90           90     102002.7   -873.52372 
  518000       517498   -7170.2254    608.71598   -7778.9414    4273.6948   -12052.636    106.47111   -855.40609   -967.62731   -1107.8635   -73.284055   -258.28853    99.975944      46.7237      46.7237      46.7237           90           90           90     102002.7   -976.96564 
  519000       518498   -7149.0698     623.5642    -7772.634    4276.4649   -12049.099    109.06823   -910.76343   -989.04897     -1235.03    23.748368    51.149324    222.90588      46.7237      46.7237      46.7237           90           90           90     102002.7   -1044.9475 
  520000       519498   -7184.4849    607.27558   -7791.7604    4292.1446   -12083.905    106.21917   -906.88934   -791.65349   -595.23006   -151.51311    47.469617    181.57433      46.7237      46.7237      46.7237           90           90           90     102002.7   -764.59096 
  521000       520498   -7180.8972     608.5357   -7789.4329    4278.6649   -12068.098    106.43958   -531.19125   -558.09273   -1123.2499   -32.260491   -5.3551809   -12.476457      46.7237      46.7237      46.7237           90           90           90     102002.7   -737.51131 
  522000       521498   -7143.7674     620.6435   -7764.4109    4314.1257   -12078.537    108.55737   -680.76817   -1130.7417   -761.06574    15.143605   -129.25786   -256.09641      46.7237      46.7237      46.7237           90           90           90     102002.7   -857.52522 
  523000       522498   -7147.8288    628.08326   -7775.9121    4280.4363   -12056.348    109.85866   -938.41227   -867.02464   -676.36419   -84.116407    106.21749    147.98376      46.7237      46.7237      46.7237           90           90           90     102002.7   -827.26703 
  524000       523498   -7145.0513    637.57766   -7782.6289    4282.8066   -12065.436    111.51934   -788.90504   -1146.5278   -813.53495    28.530506    235.36149   -183.26563      46.7237      46.7237      46.7237           90           90           90     102002.7   -916.32261 
  525000       524498   -7145.3472    629.68574    -7775.033    4295.6657   -12070.699    110.13896   -664.52794   -1289.4554   -648.45468    90.380764    82.862901    9.8516285      46.7237      46.7237      46.7237           90           90           90     102002.7   -867.47934 
  526000       525498   -7144.9294    638.31833   -7783.2477    4276.6235   -12059.871    111.64889   -684.36805   -788.68545   -841.25047    25.436827      2.10376    29.470089      46.7237      46.7237      46.7237           90           90           90     102002.7   -771.43466 
  527000       526498   -7132.5162    626.26481    -7758.781    4306.0054   -12064.786     109.5406    -960.6135    -1146.719   -1049.2557   -67.110658   -27.688669    53.801061      46.7237      46.7237      46.7237           90           90           90     102002.7   -1052.1961 
  528000       527498   -7165.5079    626.42373   -7791.9316    4261.4828   -12053.414    109.56839    -1127.457   -610.38121    -593.2361   -83.903936    76.920661   -35.398987      46.7237      46.7237      46.7237           90           90           90     102002.7   -777.02476 
  529000       528498   -7145.8632    624.44223   -7770.3054    4279.5868   -12049.892    109.22181   -909.01958   -840.91966    -878.3184   -54.384466    167.76264   -239.67135      46.7237      46.7237      46.7237           90           90           90     102002.7   -876.08588 
  530000       529498   -7125.8527    638.66184   -7764.5145    4301.2121   -12065.727    111.70897   -830.23183   -922.27863   -827.03132    117.25923    210.87631    50.672035      46.7237      46.7237      46.7237           90           90           90     102002.7   -859.84726 
  531000       530498   -7156.3326    623.80563   -7780.1382    4276.8354   -12056.974    109.11046   -823.76584   -510.24663    -921.0824   -45.312558   -82.157996   -117.77985      46.7237      46.7237      46.7237           90           90           90     102002.7   -751.69829 
  532000       531498   -7132.9914    631.62284   -7764.6143    4279.6221   -12044.236    110.47778   -1054.4377   -1183.3651   -796.52525    154.00106   -75.404758    138.55726      46.7237      46.7237      46.7237           90           90           90     102002.7   -1011.4427 
  533000       532498   -7109.6341    653.05854   -7762.6927    4300.7778   -12063.471    114.22712   -720.47779    -269.6574   -275.03214   -101.79226    -45.73775    65.737415      46.7237      46.7237      46.7237           90           90           90     102002.7   -421.72245 
  534000       533498   -7143.7195    619.14881   -7762.8683    4295.6932   -12058.561    108.29593   -964.36923   -1039.7716   -656.24259    272.25344   -34.154235   -51.167002      46.7237      46.7237      46.7237           90           90           90     102002.7   -886.79447 
  535000       534498   -7175.2103    614.98287   -7790.1932    4267.7296   -12057.923    107.56726   -610.13206   -1033.2018   -751.81771    45.575081     45.93912    65.270713      46.7237      46.7237      46.7237           90           90           90     102002.7   -798.38385 
  536000       535498   -7130.9251    626.14655   -7757.0716    4299.9276   -12056.999    109.51991   -796.03492   -838.15385   -814.64105   -235.35067   -151.82223   -44.062062      46.7237      46.7237      46.7237           90           90           90     102002.7   -816.27661 
  537000       536498   -7156.4818    625.21968   -7781.7015    4286.0798   -12067.781    109.35779   -401.88269   -725.44063   -324.96194    -44.43673    84.836671   -173.70415      46.7237      46.7237      46.7237           90           90           90     102002.7   -484.09509 
  538000       537498   -7127.6694    631.30677   -7758.9762    4298.3334    -12057.31    110.42249   -400.64133   -634.86824   -697.91701     10.91293    181.15503   -50.608008      46.7237      46.7237      46.7237           90           90           90     102002.7   -577.80886 
  539000       538498   -7154.5953    627.25635   -7781.8517    4276.0202   -12057.872    109.71403   -909.31119   -402.00509   -431.64605   -114.95498    49.581368   -30.868653      46.7237      46.7237      46.7237           90           90           90     102002.7   -580.98745 
  540000       539498   -7144.7029    649.71016   -7794.4131    4273.7068    -12068.12    113.64145   -773.24163   -582.53969   -497.57084   -62.197273   -61.149679   -116.18633      46.7237      46.7237      46.7237           90           90           90     102002.7   -617.78405 
  541000       540498   -7140.8017    636.98261   -7777.7843    4302.9987   -12080.783    111.41526   -407.49613   -759.64522   -690.36941    66.468078   -235.26755    134.95385      46.7237      46.7237      46.7237           90           90           90     102002.7   -619.17025 
  542000       541498   -7160.5922    629.36107   -7789.9533    4267.4395   -12057.393    110.08217   -735.66755   -796.38394   -1273.6019    101.96673    37.652168    184.40994      46.7237      46.7237      46.7237           90           90           90     102002.7   -935.21778 
  543000       542498   -7147.8036    641.54613   -7789.3497    4278.0108   -12067.361    112.21347   -661.57799   -866.26562   -201.17235    -13.09392    -72.29652   -7.5302408      46.7237      46.7237      46.7237           90           90           90     102002.7   -576.33866 
  544000       543498   -7153.5771    613.80506   -7767.3821    4295.6192   -12063.001    107.36125     -922.274   -1089.2442   -532.31682   -64.493779    28.957256   -76.132798      46.7237      46.7237      46.7237           90           90           90     102002.7   -847.94501 
  545000       544498   -7127.0003    624.69476   -7751.6951    4303.7859   -12055.481    109.26598   -849.83187   -1323.3773   -1104.4432    84.326754   -420.04679    80.011364      46.7237      46.7237      46.7237           90           90           90     102002.7   -1092.5508 
  546000       545498   -7153.0675     631.5574   -7784.6249    4288.7431   -12073.368    110.46633   -908.57904   -915.21011   -388.33282   -142.76794    167.58518   -50.612481      46.7237      46.7237      46.7237           90           90           90     102002.7   -737.37399 
  547000       546498   -7184.9295    608.57685   -7793.5063    4256.8892   -12050.396    106.44678    -801.5435   -648.33138   -646.45872    135.39488    29.969273   -103.50365      46.7237      46.7237      46.7237           90           90           90     102002.7   -698.77787 
  548000       547498   -7125.6999    653.11211    -7778.812    4304.5146   -12083.327    114.23648   -958.69315   -823.97579   -590.42962    332.39299   -139.85012    287.48568      46.7237      46.7237      46.7237           90           90           90     102002.7   -791.03285 
  549000       548498   -7135.0471    640.78145   -7775.8286    4303.4854   -12079.314    112.07972    -1358.094   -844.92753    -706.5006    120.46578    116.13626    77.625129      46.7237      46.7237      46.7237           90           90           90     102002.7   -969.84071 
  550000       549498   -7144.7541    630.61065   -7775.3648    4291.4567   -12066.821    110.30073   -813.31188   -721.72233   -803.03587    141.37348   -64.462362   -18.218027      46.7237      46.7237      46.7237           90           90           90     102002.7    -779.3567 
  551000       550498   -7140.6158     626.8552    -7767.471    4290.6032   -12058.074    109.64386   -873.03259   -482.29932   -572.68257    54.838969    11.014021    13.798062      46.7237      46.7237      46.7237           90           90           90     102002.7   -642.67149 
  552000       551498   -7199.8761    605.40553   -7805.2816    4265.9445   -12071.226    105.89208   -876.91086    -781.4699   -690.60313    186.88551    70.675612    98.648823      46.7237      46.7237      46.7237           90           90           90     102002.7   -782.99463 
  553000       552498    -7159.812    619.40004    -7779.212    4282.0504   -12061.262    108.33987   -934.05313   -697.98216   -725.97535   -75.581125   -186.97727   -57.079522      46.7237      46.7237      46.7237           90           90           90     102002.7   -786.00355 
  554000       553498   -7156.9274    624.66301   -7781.5904    4285.4505   -12067.041    109.26043    -1336.343   -1226.1129     -625.566   -118.66702     72.60139   -196.07631      46.7237      46.7237      46.7237           90           90           90     102002.7    -1062.674 
  555000       554498   -7132.4834    626.22628   -7758.7097    4299.3217   -12058.031    109.53386   -895.52418   -1336.0416   -695.95614    83.842321    207.70995    30.716334      46.7237      46.7237      46.7237           90           90           90     102002.7   -975.84064 
[...]
  936000       935498    -7159.265    608.04648   -7767.3115    4283.7314   -12051.043    106.35401   -611.94781   -962.10283    -601.5563    95.732951   -15.106976    39.537089      46.7237      46.7237      46.7237           90           90           90     102002.7   -725.20232 
  937000       936498   -7144.1984    635.74721   -7779.9457    4288.9108   -12068.856    111.19917     -600.874    -572.2296   -887.12765   -20.625729    70.028302    138.30331      46.7237      46.7237      46.7237           90           90           90     102002.7   -686.74375 
  938000       937498   -7135.7585    637.02954    -7772.788     4293.356   -12066.144    111.42347   -644.96162   -396.44655   -472.51687   -99.663757   -29.366219    204.18873      46.7237      46.7237      46.7237           90           90           90     102002.7   -504.64168 
  939000       938498   -7105.7595    634.19692   -7739.9564    4308.9096   -12048.866    110.92801   -817.08741   -691.50985   -1121.0419    30.022389   -145.82483    256.11953      46.7237      46.7237      46.7237           90           90           90     102002.7    -876.5464 
  940000       939498   -7147.6256    627.89392   -7775.5195    4279.1649   -12054.684    109.82555   -999.58119   -703.68887   -367.47745    154.03006    74.053539    72.656656      46.7237      46.7237      46.7237           90           90           90     102002.7   -690.24917 
  941000       940498   -7169.5752    613.63071   -7783.2059    4271.9502   -12055.156    107.33075   -573.85597   -751.00071   -886.87475   -106.81119    151.04192   -141.11097      46.7237      46.7237      46.7237           90           90           90     102002.7   -737.24381 
  942000       941498   -7133.7661    631.04742   -7764.8135    4294.2066    -12059.02    110.37713   -1149.4007   -1021.0077   -1031.9034   -290.88454    258.82841    229.48304      46.7237      46.7237      46.7237           90           90           90     102002.7   -1067.4373 
  943000       942498   -7147.0609    628.63513    -7775.696    4273.0847   -12048.781    109.95519   -951.65033   -553.58817   -752.27476    263.64492   -72.567589    97.211194      46.7237      46.7237      46.7237           90           90           90     102002.7   -752.50442 
  944000       943498   -7111.5952    637.97329   -7749.5685     4312.864   -12062.432    111.58854   -877.99165   -1142.9778   -978.01936    65.414149   -54.437599    44.084463      46.7237      46.7237      46.7237           90           90           90     102002.7   -999.66292 
  945000       944498   -7138.1192     616.8921   -7755.0113    4305.3469   -12060.358    107.90121   -797.01182    -1052.223   -1097.8373    66.542855     175.9821   -63.191531      46.7237      46.7237      46.7237           90           90           90     102002.7   -982.35736 
  946000       945498    -7160.541    619.17129   -7779.7123    4291.2187   -12070.931    108.29986   -1066.8671   -996.63793   -530.65432   -260.78613   -97.375839    59.424182      46.7237      46.7237      46.7237           90           90           90     102002.7   -864.71978 
  947000       946498   -7138.8821    630.90525   -7769.7874    4277.7881   -12047.576    110.35226   -367.79098   -715.42896   -608.63711    1.8243117   -91.353787    206.10453      46.7237      46.7237      46.7237           90           90           90     102002.7   -563.95235 
  948000       947498    -7163.159    604.75532   -7767.9143    4288.4792   -12056.393    105.77835   -703.95408   -839.72026   -970.68304   -45.943524    5.4360384    44.883699      46.7237      46.7237      46.7237           90           90           90     102002.7   -838.11912 
  949000       948498   -7132.0151    618.89484   -7750.9099    4307.8693   -12058.779    108.25151   -475.44191   -903.41202   -980.16554     163.2225   -197.01317    33.797914      46.7237      46.7237      46.7237           90           90           90     102002.7   -786.33982 
  950000       949498   -7147.1487    607.92348   -7755.0721    4284.2854   -12039.358     106.3325   -1252.0753   -799.46305   -340.09976   -42.648407    196.70999   -142.19376      46.7237      46.7237      46.7237           90           90           90     102002.7    -797.2127 
  951000       950498   -7141.6832    636.95262   -7778.6358    4276.0807   -12054.717    111.41001   -540.27965   -689.36416   -787.31276    61.150847    206.75406    121.73731      46.7237      46.7237      46.7237           90           90           90     102002.7   -672.31886 
  952000       951498   -7132.5838    632.26267   -7764.8465    4288.1628   -12053.009    110.58969   -641.66507   -958.96439   -807.71667   -176.28664   -74.376886    -57.45409      46.7237      46.7237      46.7237           90           90           90     102002.7   -802.78204 
  953000       952498   -7126.9162     637.9221   -7764.8383    4288.9283   -12053.767    111.57959   -1266.2244   -1051.7794   -932.09448    146.72925     99.16558    95.938619      46.7237      46.7237      46.7237           90           90           90     102002.7   -1083.3661 
  954000       953498   -7134.7198    628.23685   -7762.9567    4272.5011   -12035.458    109.88553   -641.48157   -367.80002    -589.2953   -94.487179    170.86299    61.168381      46.7237      46.7237      46.7237           90           90           90     102002.7   -532.85896 
  955000       954498   -7143.4803    637.35067    -7780.831    4275.3251   -12056.156    111.47964   -777.06592   -734.86694   -905.55052    208.06045    120.36607   -134.53213      46.7237      46.7237      46.7237           90           90           90     102002.7   -805.82779 
  956000       955498   -7137.4863      631.622   -7769.1083    4284.1407   -12053.249    110.47763   -760.21682    -769.8844   -627.05675    149.16795    152.58573   -66.291306      46.7237      46.7237      46.7237           90           90           90     102002.7   -719.05266 
  957000       956498   -7149.8562     641.0711   -7790.9273    4263.1116   -12054.039    112.13038   -477.16308   -757.36644   -820.17562   -217.64822    66.250027    6.1556433      46.7237      46.7237      46.7237           90           90           90     102002.7   -684.90171 
  958000       957498   -7139.4657    641.47892   -7780.9446    4278.9875   -12059.932    112.20171   -698.94527   -810.73258   -1054.5347    101.40755   -129.85012    -17.84935      46.7237      46.7237      46.7237           90           90           90     102002.7    -854.7375 
  959000       958498   -7171.7663    631.93602   -7803.7024    4272.9268   -12076.629    110.53256   -657.01151   -684.58106   -189.22475    109.39493   -30.078426    194.41843      46.7237      46.7237      46.7237           90           90           90     102002.7   -510.27244 
  960000       959498    -7125.075    645.76322   -7770.8382    4272.0831   -12042.921    112.95108   -689.29572   -891.42153   -693.20875   -120.81575   -129.91059   -32.891477      46.7237      46.7237      46.7237           90           90           90     102002.7   -757.97533 
  961000       960498   -7137.5433    644.88471   -7782.4281    4272.4442   -12054.872    112.79742   -998.08629   -735.65442    -533.3694    26.907679   -5.8865595   -162.77267      46.7237      46.7237      46.7237           90           90           90     102002.7   -755.70337 
  962000       961498   -7131.1196    625.05214   -7756.1718     4299.163   -12055.335    109.32849   -684.21266   -749.10023   -554.29879   -61.030594     162.0535   -78.156579      46.7237      46.7237      46.7237           90           90           90     102002.7   -662.53723 
  963000       962498   -7115.9554    644.50889   -7760.4643    4283.6624   -12044.127    112.73169   -1203.8492   -804.23729   -1077.7221     300.3577   -151.86394   -59.952874      46.7237      46.7237      46.7237           90           90           90     102002.7   -1028.6029 
  964000       963498    -7136.753    628.62556   -7765.3786    4298.2371   -12063.616    109.95352   -659.96444   -571.81582   -716.35542    75.629052   -46.169734     185.5352      46.7237      46.7237      46.7237           90           90           90     102002.7   -649.37856 
  965000       964498   -7147.1509    628.29797   -7775.4489    4279.7922   -12055.241    109.89622   -631.99585     -677.541    -797.2385   -236.88837   -104.99584    137.34571      46.7237      46.7237      46.7237           90           90           90     102002.7   -702.25845 
  966000       965498   -7151.3234    621.67883   -7773.0023    4300.8532   -12073.855    108.73846   -1004.0064   -513.41427   -984.52012   -94.855493    0.3628781   -186.74245      46.7237      46.7237      46.7237           90           90           90     102002.7   -833.98027 
  967000       966498   -7148.6944    622.12594   -7770.8204    4271.3934   -12042.214    108.81666   -998.26647   -373.32883   -609.75316     27.30306   -74.012037    24.653493      46.7237      46.7237      46.7237           90           90           90     102002.7   -660.44948 
  968000       967498   -7146.7417    620.57462   -7767.3163    4301.1235    -12068.44    108.54532   -763.21871   -619.11389   -772.19711    63.560735   -182.32153   -62.697551      46.7237      46.7237      46.7237           90           90           90     102002.7   -718.17657 
  969000       968498   -7135.6313    635.53099   -7771.1623     4288.316   -12059.478    111.16135   -615.71367   -1099.3177   -756.27811   -211.48039   -131.60357   -75.806018      46.7237      46.7237      46.7237           90           90           90     102002.7   -823.76984 
  970000       969498   -7163.5597    626.59561   -7790.1553    4266.8475   -12057.003    109.59846   -1393.9406   -943.27092   -941.21916    80.763449    226.65197   -418.58346      46.7237      46.7237      46.7237           90           90           90     102002.7   -1092.8102 
  971000       970498   -7143.9844    630.25065    -7774.235    4279.5227   -12053.758    110.23776   -507.15476   -496.46861   -1218.1001    275.74888   -101.27204   -110.66264      46.7237      46.7237      46.7237           90           90           90     102002.7   -740.57449 
  972000       971498   -7155.8485    628.17427   -7784.0227     4286.251   -12070.274    109.87458   -361.37309   -318.83346   -581.88822    -18.99618    151.61682    65.533136      46.7237      46.7237      46.7237           90           90           90     102002.7   -420.69826 
  973000       972498   -7117.3971    620.01633   -7737.4134    4301.9618   -12039.375    108.44767   -595.50838   -283.08372    -552.5748   -64.015218    174.26407   -118.61878      46.7237      46.7237      46.7237           90           90           90     102002.7   -477.05563 
  974000       973498   -7137.7883    625.52735   -7763.3157    4276.9965   -12040.312    109.41161   -236.89341   -814.09913   -145.89127    326.81455   -95.428148     -179.273      46.7237      46.7237      46.7237           90           90           90     102002.7   -398.96127 
  975000       974498   -7152.7152    618.69538   -7771.4106    4295.8652   -12067.276    108.21662   -1142.7104   -594.41853   -752.44828    180.29102    109.61024   -72.909337      46.7237      46.7237      46.7237           90           90           90     102002.7   -829.85907 
  976000       975498   -7150.2818    633.37688   -7783.6587    4285.0574   -12068.716    110.78458   -1195.8065   -363.29943   -862.27922    55.687656    131.29489    43.815028      46.7237      46.7237      46.7237           90           90           90     102002.7    -807.1284 
  977000       976498   -7128.4603    634.84057   -7763.3008    4292.6405   -12055.941    111.04059   -886.95917   -445.19092   -325.85783    210.00422    83.244551    139.81547      46.7237      46.7237      46.7237           90           90           90     102002.7   -552.66931 
  978000       977498   -7119.8214     632.8833   -7752.7047    4293.6226   -12046.327    110.69824   -582.76001   -1056.6712   -679.60092   -114.51137   -17.532139   -2.3347849      46.7237      46.7237      46.7237           90           90           90     102002.7   -773.01072 
  979000       978498   -7146.5017    614.80733   -7761.3091     4284.419   -12045.728    107.53656   -1155.2897   -323.30038   -716.56981     34.78014    42.111713   -19.684203      46.7237      46.7237      46.7237           90           90           90     102002.7   -731.71996 
  980000       979498   -7169.2668    609.94209   -7779.2089    4284.1888   -12063.398    106.68557   -565.39775   -703.95533    -140.4818    -100.1055   -52.533594   -29.580221      46.7237      46.7237      46.7237           90           90           90     102002.7   -469.94496 
  981000       980498   -7140.5232    623.38742   -7763.9106    4296.3837   -12060.294    109.03731   -679.91041   -523.86883   -705.58245   -107.84033   -8.5722687    101.51402      46.7237      46.7237      46.7237           90           90           90     102002.7    -636.4539 
  982000       981498   -7131.7023    634.82738   -7766.5297    4300.3558   -12066.885    111.03829   -1136.6512   -692.25341   -1052.8553    48.233516    16.062462    45.351447      46.7237      46.7237      46.7237           90           90           90     102002.7   -960.58665 
  983000       982498   -7138.2142    625.10741   -7763.3216    4293.5783     -12056.9    109.33815   -654.46377   -425.38403   -651.74395    111.48643     60.55079   -133.97342      46.7237      46.7237      46.7237           90           90           90     102002.7   -577.19725 
  984000       983498   -7155.4048    603.07812    -7758.483    4287.3518   -12045.835    105.48499   -770.11283   -860.52056   -848.85075   -148.32621   -106.21931   -53.280999      46.7237      46.7237      46.7237           90           90           90     102002.7   -826.49471 
  985000       984498   -7111.4301    643.61634   -7755.0464    4289.2736    -12044.32    112.57557   -343.14848   -779.26125     -527.918    7.7364736    103.42855   -280.50886      46.7237      46.7237      46.7237           90           90           90     102002.7   -550.10924 
  986000       985498   -7132.5917    620.56985   -7753.1616    4296.5109   -12049.672    108.54449   -544.61931   -380.54014   -566.15902   -129.11401    152.67287   -23.674409      46.7237      46.7237      46.7237           90           90           90     102002.7   -497.10616 
  987000       986498   -7142.2486     614.8215   -7757.0701    4292.7124   -12049.783    107.53904   -570.54077   -549.87942   -1011.6746    71.766204   -28.083747    184.46721      46.7237      46.7237      46.7237           90           90           90     102002.7   -710.69826 
  988000       987498   -7156.3509    619.41158   -7775.7625    4293.3308   -12069.093    108.34189    -599.6925    -460.5409   -232.56068   -121.30554   -117.40767   -156.97196      46.7237      46.7237      46.7237           90           90           90     102002.7   -430.93136 
  989000       988498   -7146.0302    635.92532   -7781.9555     4292.234    -12074.19    111.23033   -864.45975   -222.81435   -1039.2792    282.11255   -315.98138   -186.70729      46.7237      46.7237      46.7237           90           90           90     102002.7   -708.85111 
  990000       989498   -7131.9404    633.41068   -7765.3511    4290.5244   -12055.876    110.79049   -654.96318   -1001.3539    -714.0949   -151.07392   -156.18205    14.736996      46.7237      46.7237      46.7237           90           90           90     102002.7   -790.13732 
  991000       990498    -7127.197    643.78693   -7770.9839    4286.4492   -12057.433    112.60541   -956.48834   -1224.5603   -957.62859   -79.703297   -15.664127   -105.53715      46.7237      46.7237      46.7237           90           90           90     102002.7   -1046.2258 
  992000       991498   -7154.3483     619.0792   -7773.4275    4294.8212   -12068.249    108.28376   -952.45076   -220.83927   -509.38206    31.826423   -153.86792   -15.963488      46.7237      46.7237      46.7237           90           90           90     102002.7   -560.89069 
  993000       992498    -7123.738    640.46354   -7764.2015    4292.9165   -12057.118    112.02411    -753.2762   -551.04174   -773.51347   -125.50214   -51.682048   -50.656502      46.7237      46.7237      46.7237           90           90           90     102002.7   -692.61047 
  994000       993498   -7155.1205    610.76115   -7765.8817    4283.3137   -12049.195    106.82884   -592.77306   -313.25884   -38.861644      77.6526   -59.092541    113.72262      46.7237      46.7237      46.7237           90           90           90     102002.7   -314.96451 
  995000       994498   -7118.1529    632.06035   -7750.2133     4296.258   -12046.471     110.5543   -345.27622    50.647088   -570.94456    90.359862    161.08919    -250.1513      46.7237      46.7237      46.7237           90           90           90     102002.7   -288.52456 
  996000       995498   -7130.6986    639.21485   -7769.9135    4262.2811   -12032.195     111.8057   -1104.6503   -397.91133   -545.00417    26.514312   -130.95009   -52.184403      46.7237      46.7237      46.7237           90           90           90     102002.7   -682.52194 
  997000       996498   -7140.0097    621.78079   -7761.7905     4304.201   -12065.991    108.75629    -428.3877   -347.25542   -571.12629    134.63694    -208.8578   -143.79754      46.7237      46.7237      46.7237           90           90           90     102002.7   -448.92313 
  998000       997498   -7136.9291    640.46944   -7777.3985     4272.141   -12049.539    112.02514   -982.76061   -1013.5731   -1189.0126    62.581255    105.33251   -116.55663      46.7237      46.7237      46.7237           90           90           90     102002.7   -1061.7821 
  999000       998498   -7124.1547    639.33424   -7763.4889    4293.4441   -12056.933    111.82658   -815.04348   -224.54093   -140.83612   -35.017636   -117.17364    101.69565      46.7237      46.7237      46.7237           90           90           90     102002.7   -393.47351 
 1000000       999498   -7155.7102     617.1577   -7772.8679      4279.79   -12052.658    107.94766    -892.0712   -678.05388   -370.45435    31.033995    58.937336    9.3329842      46.7237      46.7237      46.7237           90           90           90     102002.7   -646.85981 
 1000502      1000000    -7145.375    607.87527   -7753.2503    4309.9776   -12063.228    106.32406   -1074.8118    -377.0659   -814.62896   -54.366501    303.72009   -61.732588      46.7237      46.7237      46.7237           90           90           90     102002.7   -755.50222 
Loop time of 644.636 on 24 procs for 500000 steps with 1919 atoms

Performance: 67.015 ns/day, 0.358 hours/ns, 775.631 timesteps/s
99.7% CPU use with 24 MPI tasks x no OpenMP threads

MPI task timing breakdown:
Section |  min time  |  avg time  |  max time  |%varavg| %total
---------------------------------------------------------------
Pair    | 269.31     | 330.11     | 403.53     | 242.3 | 51.21
Bond    | 52.045     | 82.443     | 115.32     | 198.6 | 12.79
Neigh   | 2.8097     | 2.8312     | 2.8484     |   0.8 |  0.44
Comm    | 122.83     | 213.15     | 290.03     | 352.0 | 33.07
Output  | 0.38397    | 0.41493    | 0.41637    |   1.0 |  0.06
Modify  | 11.837     | 12.318     | 13.039     |  10.4 |  1.91
Other   |            | 3.361      |            |       |  0.52

Nlocal:    79.9583 ave 108 max 46 min
Histogram: 1 2 1 2 2 8 1 3 2 2
Nghost:    2192.62 ave 2356 max 2096 min
Histogram: 5 9 2 0 0 0 0 2 4 2
Neighs:    7644.58 ave 11181 max 4034 min
Histogram: 1 1 3 4 3 3 1 6 1 1

Total # of neighbors = 183470
Ave neighs/atom = 95.6071
Ave special neighs/atom = 6.00313
Neighbor list builds = 4207
Dangerous builds = 0
Total wall time: 0:20:36
