LAMMPS (30 Mar 2018)
Reading data file ...
  orthogonal box = (0 0 0) to (46.7237 46.7237 46.7237)
  2 by 2 by 4 MPI processor grid
  reading atoms ...
  1729 atoms
  scanning bonds ...
  5 = max bonds/atom
  scanning angles ...
  10 = max angles/atom
  scanning dihedrals ...
  32 = max dihedrals/atom
  scanning impropers ...
  3 = max impropers/atom
  reading bonds ...
  2064 bonds
  reading angles ...
  3696 angles
  reading dihedrals ...
  6240 dihedrals
  reading impropers ...
  1008 impropers
Finding 1-2 1-3 1-4 neighbors ...
  special bond factors lj:   0          0          0         
  special bond factors coul: 0          0          0         
  5 = max # of 1-2 neighbors
  8 = max # of 1-3 neighbors
  20 = max # of 1-4 neighbors
  19 = max # of special neighbors
Finding 1-2 1-3 1-4 neighbors ...
  special bond factors lj:   0          0          1         
  special bond factors coul: 1          1          1         
  5 = max # of 1-2 neighbors
  8 = max # of 1-3 neighbors
  19 = max # of special neighbors
WARNING: Using 'neigh_modify every 1 delay 0 check yes' setting during minimization (../min.cpp:168)
Neighbor list info ...
  update every 1 steps, delay 0 steps, check yes
  max neighbors/atom: 2000, page size: 100000
  master list distance cutoff = 16
  ghost atom cutoff = 16
  binsize = 8, bins = 6 6 6
  3 neighbor lists, perpetual/occasional/extra = 3 0 0
  (1) pair buck6d/coul/gauss/dsf, perpetual, skip from (3)
      attributes: half, newton on
      pair build: skip
      stencil: none
      bin: none
  (2) pair lj/cut, perpetual, skip from (3)
      attributes: half, newton on
      pair build: skip
      stencil: none
      bin: none
  (3) neighbor class addition, perpetual
      attributes: half, newton on
      pair build: half/bin/newton
      stencil: half/bin/3d/newton
      bin: standard
Setting up cg style minimization ...
  Unit style    : real
  Current step  : 0
WARNING: Inconsistent image flags (../domain.cpp:786)
Per MPI rank memory allocation (min/avg/max) = 22.89 | 23.35 | 23.79 Mbytes
Step Temp E_pair E_mol TotEng Press 
       0            0   -11515.773    6482.8914   -5032.8815    6290.6684 
     504            0   -11544.257    3757.1313   -7787.1262   -533.08428 
Loop time of 3.86905 on 16 procs for 504 steps with 1729 atoms

99.8% CPU use with 16 MPI tasks x no OpenMP threads

Minimization stats:
  Stopping criterion = max force evaluations
  Energy initial, next-to-last, final = 
        -5032.88151007     -7786.98458485     -7787.12620929
  Force two-norm initial, final = 2577 17.7394
  Force max component initial, final = 151.958 2.48124
  Final line search alpha, max atom move = 0.00896715 0.0222496
  Iterations, force evaluations = 504 1000

MPI task timing breakdown:
Section |  min time  |  avg time  |  max time  |%varavg| %total
---------------------------------------------------------------
Pair    | 1.3264     | 1.7445     | 2.5265     |  26.2 | 45.09
Bond    | 0.31659    | 0.37918    | 0.5497     |   8.7 |  9.80
Neigh   | 0.029666   | 0.030172   | 0.030537   |   0.2 |  0.78
Comm    | 0.71832    | 1.6703     | 2.0908     |  29.0 | 43.17
Output  | 0          | 0          | 0          |   0.0 |  0.00
Modify  | 0          | 0          | 0          |   0.0 |  0.00
Other   |            | 0.04496    |            |       |  1.16

Nlocal:    108.062 ave 127 max 96 min
Histogram: 2 2 2 4 2 2 0 0 0 2
Nghost:    2185.94 ave 2198 max 2169 min
Histogram: 1 1 0 1 4 0 3 3 2 1
Neighs:    11457.6 ave 16204 max 7454 min
Histogram: 2 3 1 1 1 2 3 1 1 1

Total # of neighbors = 183321
Ave neighs/atom = 106.027
Ave special neighs/atom = 6.66281
Neighbor list builds = 18
Dangerous builds = 0
Neighbor list info ...
  update every 1 steps, delay 10 steps, check yes
  max neighbors/atom: 2000, page size: 100000
  master list distance cutoff = 16
  ghost atom cutoff = 16
  binsize = 8, bins = 6 6 6
  3 neighbor lists, perpetual/occasional/extra = 3 0 0
  (1) pair buck6d/coul/gauss/dsf, perpetual, skip from (3)
      attributes: half, newton on
      pair build: skip
      stencil: none
      bin: none
  (2) pair lj/cut, perpetual, skip from (3)
      attributes: half, newton on
      pair build: skip
      stencil: none
      bin: none
  (3) neighbor class addition, perpetual
      attributes: half, newton on
      pair build: half/bin/newton
      stencil: half/bin/3d/newton
      bin: standard
Setting up Verlet run ...
  Unit style    : real
  Current step  : 504
  Time step     : 1
WARNING: Inconsistent image flags (../domain.cpp:786)
Per MPI rank memory allocation (min/avg/max) = 22.54 | 22.66 | 23.02 Mbytes
Step Temp PotEng TotEng Press Volume Lx Ly Lz 
     504           91   -7787.1262   -7318.3998   -323.02561     102002.7      46.7237      46.7237      46.7237 
    1000    83.616382   -7389.6875   -6958.9929   -740.43986     102002.7      46.7237      46.7237      46.7237 
    2000     93.18174   -7319.1077   -6839.1435   -519.66514     102002.7      46.7237      46.7237      46.7237 
    3000    84.753839   -7304.6583   -6868.1048   -928.70854     102002.7      46.7237      46.7237      46.7237 
    4000    89.539335   -7324.8786   -6863.6758   -444.42864     102002.7      46.7237      46.7237      46.7237 
    5000    90.536192   -7309.2071   -6842.8697   -757.55712     102002.7      46.7237      46.7237      46.7237 
    6000    88.201708   -7334.8125   -6880.4997   -688.11287     102002.7      46.7237      46.7237      46.7237 
    7000    92.167123   -7329.1991    -6854.461   -414.25001     102002.7      46.7237      46.7237      46.7237 
    8000    92.193586   -7324.1432   -6849.2688   -659.00129     102002.7      46.7237      46.7237      46.7237 
    9000    88.457741   -7310.2858   -6854.6541   -665.12134     102002.7      46.7237      46.7237      46.7237 
   10000    89.675251    -7311.416   -6849.5131   -646.54907     102002.7      46.7237      46.7237      46.7237 
   11000    89.638366   -7319.4365   -6857.7237    -844.2114     102002.7      46.7237      46.7237      46.7237 
   12000    90.797539   -7295.6709   -6827.9873   -453.08601     102002.7      46.7237      46.7237      46.7237 
   13000    91.338551   -7330.0896   -6859.6193   -956.27776     102002.7      46.7237      46.7237      46.7237 
   14000     90.18301   -7306.7216   -6842.2034   -550.08212     102002.7      46.7237      46.7237      46.7237 
   15000    89.380036   -7342.4982   -6882.1159    -729.3015     102002.7      46.7237      46.7237      46.7237 
   16000    91.616633   -7325.4939   -6853.5913   -918.50347     102002.7      46.7237      46.7237      46.7237 
   17000    87.942572   -7321.2069   -6868.2288   -708.19574     102002.7      46.7237      46.7237      46.7237 
   18000     92.44105   -7326.0507   -6849.9016   -828.61146     102002.7      46.7237      46.7237      46.7237 
   19000    89.407795   -7321.3939   -6860.8687   -922.54653     102002.7      46.7237      46.7237      46.7237 
   20000    92.491973    -7316.667   -6840.2557   -725.37136     102002.7      46.7237      46.7237      46.7237 
   21000    93.798235   -7331.8582   -6848.7186   -634.21142     102002.7      46.7237      46.7237      46.7237 
   22000    90.263347   -7339.7324   -6874.8004   -870.87521     102002.7      46.7237      46.7237      46.7237 
   23000    89.873527   -7314.9953   -6852.0712   -786.65821     102002.7      46.7237      46.7237      46.7237 
   24000    93.595459   -7314.0648   -6831.9696   -720.42298     102002.7      46.7237      46.7237      46.7237 
   25000    90.916138   -7332.6123   -6864.3178    -608.0092     102002.7      46.7237      46.7237      46.7237 
   26000    89.190761   -7327.4657   -6868.0584   -589.06916     102002.7      46.7237      46.7237      46.7237 
   27000    93.311145   -7308.1652   -6827.5345   -662.46938     102002.7      46.7237      46.7237      46.7237 
   28000    90.897218   -7317.4061   -6849.2091   -398.77072     102002.7      46.7237      46.7237      46.7237 
   29000    91.472544   -7329.1657   -6858.0053   -381.96394     102002.7      46.7237      46.7237      46.7237 
   30000    88.494925   -7331.3175   -6875.4943   -773.16813     102002.7      46.7237      46.7237      46.7237 
   31000    91.495439     -7314.54   -6843.2617    -631.0884     102002.7      46.7237      46.7237      46.7237 
   32000    89.891277   -7325.9169   -6862.9013   -624.60695     102002.7      46.7237      46.7237      46.7237 
   33000    91.307051   -7326.7176   -6856.4096   -605.19882     102002.7      46.7237      46.7237      46.7237 
   34000    88.489799   -7316.1281   -6860.3313    -776.7794     102002.7      46.7237      46.7237      46.7237 
   35000    88.098543   -7324.3273   -6870.5459   -565.02769     102002.7      46.7237      46.7237      46.7237 
   36000    92.589927   -7338.4584   -6861.5425   -568.85754     102002.7      46.7237      46.7237      46.7237 
   37000    90.458111   -7313.9285   -6847.9933   -695.16032     102002.7      46.7237      46.7237      46.7237 
   38000    86.132043   -7339.0349   -6895.3825    -866.2817     102002.7      46.7237      46.7237      46.7237 
   39000    91.024075   -7321.2121   -6852.3617   -721.89124     102002.7      46.7237      46.7237      46.7237 
   40000    90.304882    -7322.899    -6857.753   -936.63216     102002.7      46.7237      46.7237      46.7237 
   41000    88.822718   -7328.3978   -6870.8862   -398.59148     102002.7      46.7237      46.7237      46.7237 
   42000    89.887278   -7335.5868   -6872.5918   -523.22857     102002.7      46.7237      46.7237      46.7237 
   43000    90.865775   -7317.0839   -6849.0489   -630.01865     102002.7      46.7237      46.7237      46.7237 
   44000    91.290853    -7327.127   -6856.9024   -525.36292     102002.7      46.7237      46.7237      46.7237 
   45000    91.459968   -7330.9494   -6859.8538   -778.83812     102002.7      46.7237      46.7237      46.7237 
   46000    89.530526   -7313.7008   -6852.5434   -392.58677     102002.7      46.7237      46.7237      46.7237 
   47000    92.399201   -7325.7493   -6849.8158   -311.33311     102002.7      46.7237      46.7237      46.7237 
   48000    89.340219   -7321.8995   -6861.7224   -575.14516     102002.7      46.7237      46.7237      46.7237 
   49000    91.157323   -7332.9522   -6863.4154   -683.54754     102002.7      46.7237      46.7237      46.7237 
   50000    91.495444   -7320.6293    -6849.351   -766.77062     102002.7      46.7237      46.7237      46.7237 
   51000    92.967454   -7328.0455    -6849.185   -821.73215     102002.7      46.7237      46.7237      46.7237 
   52000    89.197777   -7326.8879   -6867.4444    -860.7193     102002.7      46.7237      46.7237      46.7237 
   53000     90.80593   -7330.7369   -6863.0101   -864.03801     102002.7      46.7237      46.7237      46.7237 
   54000     92.39541   -7317.8926   -6841.9787   -906.96461     102002.7      46.7237      46.7237      46.7237 
   55000    93.067585   -7318.8587   -6839.4824   -879.07211     102002.7      46.7237      46.7237      46.7237 
   56000    92.804499   -7341.5988   -6863.5777   -854.41631     102002.7      46.7237      46.7237      46.7237 
   57000    90.578353   -7332.5868   -6866.0322   -802.87749     102002.7      46.7237      46.7237      46.7237 
   58000    93.386137   -7329.5012   -6848.4842   -553.07468     102002.7      46.7237      46.7237      46.7237 
   59000    91.466661    -7333.124   -6861.9939   -693.13896     102002.7      46.7237      46.7237      46.7237 
   60000    89.594021   -7342.6362   -6881.1518   -611.85594     102002.7      46.7237      46.7237      46.7237 
   61000    91.745694   -7335.7393    -6863.172   -649.30918     102002.7      46.7237      46.7237      46.7237 
   62000    93.729176   -7329.6921   -6846.9082   -698.89012     102002.7      46.7237      46.7237      46.7237 
   63000    93.349382   -7321.5319   -6840.7042   -500.23085     102002.7      46.7237      46.7237      46.7237 
   64000    94.575585   -7347.6852   -6860.5415   -685.06993     102002.7      46.7237      46.7237      46.7237 
   65000    93.355238   -7321.5928    -6840.735   -713.90133     102002.7      46.7237      46.7237      46.7237 
   66000    94.991159    -7315.036   -6825.7518   -973.95176     102002.7      46.7237      46.7237      46.7237 
   67000    90.257681   -7319.9432   -6855.0403   -845.38445     102002.7      46.7237      46.7237      46.7237 
   68000    92.855003   -7340.9044   -6862.6231   -841.37062     102002.7      46.7237      46.7237      46.7237 
   69000    94.960342   -7335.8002   -6846.6747   -953.53809     102002.7      46.7237      46.7237      46.7237 
   70000    91.444944   -7326.4437   -6855.4255   -898.15628     102002.7      46.7237      46.7237      46.7237 
   71000    90.059374    -7331.288   -6867.4066   -968.48282     102002.7      46.7237      46.7237      46.7237 
   72000    89.728967   -7317.1211   -6854.9416   -699.65136     102002.7      46.7237      46.7237      46.7237 
   73000    92.748187   -7318.1944   -6840.4633   -764.35437     102002.7      46.7237      46.7237      46.7237 
   74000    91.460302   -7323.7318   -6852.6344   -515.96144     102002.7      46.7237      46.7237      46.7237 
   75000    92.994823   -7335.3733   -6856.3719   -722.99098     102002.7      46.7237      46.7237      46.7237 
   76000    87.442497   -7332.3766   -6881.9743   -527.59313     102002.7      46.7237      46.7237      46.7237 
   77000     90.37979   -7319.2418     -6853.71   -839.89368     102002.7      46.7237      46.7237      46.7237 
   78000    88.759218   -7331.6365    -6874.452   -735.38167     102002.7      46.7237      46.7237      46.7237 
   79000    93.627023   -7337.4178     -6855.16   -813.79453     102002.7      46.7237      46.7237      46.7237 
   80000    90.666617   -7332.4847   -6865.4755   -795.33902     102002.7      46.7237      46.7237      46.7237 
   81000    90.818223   -7299.8279   -6832.0378   -829.21457     102002.7      46.7237      46.7237      46.7237 
   82000    89.328253   -7325.3661   -6865.2506   -695.37638     102002.7      46.7237      46.7237      46.7237 
   83000    88.898859   -7311.0935   -6853.1897   -612.28166     102002.7      46.7237      46.7237      46.7237 
   84000    93.637925   -7329.8445   -6847.5306   -902.65514     102002.7      46.7237      46.7237      46.7237 
   85000    89.660193   -7323.6092   -6861.7839   -752.16736     102002.7      46.7237      46.7237      46.7237 
   86000    92.135256   -7333.2934   -6858.7194   -583.63256     102002.7      46.7237      46.7237      46.7237 
   87000     92.26033    -7329.555   -6854.3369   -745.22458     102002.7      46.7237      46.7237      46.7237 
   88000    91.131156   -7320.1993   -6850.7973   -611.52523     102002.7      46.7237      46.7237      46.7237 
   89000    94.439416   -7313.4361   -6826.9938   -802.97234     102002.7      46.7237      46.7237      46.7237 
   90000     91.78175   -7345.0894   -6872.3363   -690.99668     102002.7      46.7237      46.7237      46.7237 
   91000    91.861914   -7326.9203   -6853.7543   -431.10953     102002.7      46.7237      46.7237      46.7237 
   92000    93.443687   -7313.5359   -6832.2224   -708.08225     102002.7      46.7237      46.7237      46.7237 
   93000    94.664642   -7330.2268   -6842.6244   -854.10378     102002.7      46.7237      46.7237      46.7237 
   94000    90.954565   -7331.6086   -6863.1162   -676.47308     102002.7      46.7237      46.7237      46.7237 
   95000    87.771762   -7319.9793    -6867.881   -599.68492     102002.7      46.7237      46.7237      46.7237 
   96000    91.735558   -7331.8478   -6859.3326   -820.75344     102002.7      46.7237      46.7237      46.7237 
   97000    89.692162   -7317.1962   -6855.2063   -980.09018     102002.7      46.7237      46.7237      46.7237 
   98000    89.550201   -7325.5962   -6864.3375   -738.19318     102002.7      46.7237      46.7237      46.7237 
   99000    92.643423   -7317.8196   -6840.6282   -861.89091     102002.7      46.7237      46.7237      46.7237 
  100000    92.205748   -7316.4748   -6841.5378   -729.83643     102002.7      46.7237      46.7237      46.7237 
  101000    91.279654   -7335.4302   -6865.2633    -599.2863     102002.7      46.7237      46.7237      46.7237 
  102000    92.236808   -7333.8476   -6858.7505   -591.33234     102002.7      46.7237      46.7237      46.7237 
  103000    90.610303   -7334.1163   -6867.3971   -693.18857     102002.7      46.7237      46.7237      46.7237 
  104000    92.747177   -7314.8178    -6837.092   -686.90674     102002.7      46.7237      46.7237      46.7237 
  105000    89.643805   -7322.5982   -6860.8573   -736.19399     102002.7      46.7237      46.7237      46.7237 
  106000    93.559631   -7319.8634   -6837.9527   -638.91469     102002.7      46.7237      46.7237      46.7237 
  107000    93.360429   -7342.8556    -6861.971   -947.92633     102002.7      46.7237      46.7237      46.7237 
  108000    87.063481   -7324.1585   -6875.7085   -950.52278     102002.7      46.7237      46.7237      46.7237 
  109000    93.301544   -7326.0042   -6845.4229   -702.31265     102002.7      46.7237      46.7237      46.7237 
  110000    87.847854   -7325.5933   -6873.1031   -877.04843     102002.7      46.7237      46.7237      46.7237 
  111000    93.767556   -7320.7627    -6837.781   -701.90476     102002.7      46.7237      46.7237      46.7237 
  112000    90.123726   -7320.4767   -6856.2638   -736.85884     102002.7      46.7237      46.7237      46.7237 
  113000    90.436205   -7345.0287   -6879.2063   -543.17505     102002.7      46.7237      46.7237      46.7237 
  114000    90.565746   -7325.6638   -6859.1742   -668.24936     102002.7      46.7237      46.7237      46.7237 
  115000    93.558209    -7325.066   -6843.1627   -721.42921     102002.7      46.7237      46.7237      46.7237 
  116000    90.096583   -7322.8579   -6858.7849   -849.59182     102002.7      46.7237      46.7237      46.7237 
  117000      88.9362   -7340.6852    -6882.589   -438.86678     102002.7      46.7237      46.7237      46.7237 
  118000     90.46277   -7319.9767   -6854.0174   -644.25661     102002.7      46.7237      46.7237      46.7237 
  119000    91.550395   -7326.8256   -6855.2642    -469.2658     102002.7      46.7237      46.7237      46.7237 
  120000    88.564546   -7320.8521   -6864.6703   -513.83846     102002.7      46.7237      46.7237      46.7237 
  121000    95.364558   -7337.2935    -6846.086   -509.62134     102002.7      46.7237      46.7237      46.7237 
  122000    90.462934   -7323.5775   -6857.6174   -774.09633     102002.7      46.7237      46.7237      46.7237 
  123000     91.17551   -7331.1424   -6861.5119   -817.39431     102002.7      46.7237      46.7237      46.7237 
  124000    90.046357   -7326.9067   -6863.0923   -667.33449     102002.7      46.7237      46.7237      46.7237 
  125000    88.431447   -7324.1763   -6868.6801   -489.27661     102002.7      46.7237      46.7237      46.7237 
  126000    91.196147    -7328.465   -6858.7283   -593.20017     102002.7      46.7237      46.7237      46.7237 
  127000    93.092143   -7313.3532   -6833.8505   -473.62879     102002.7      46.7237      46.7237      46.7237 
  128000    91.193124   -7323.5146   -6853.7934   -744.48983     102002.7      46.7237      46.7237      46.7237 
  129000    87.126624    -7336.059   -6887.2838   -605.56821     102002.7      46.7237      46.7237      46.7237 
  130000    92.554823   -7323.6957   -6846.9606   -923.05152     102002.7      46.7237      46.7237      46.7237 
  131000    88.585889   -7334.3129   -6878.0212   -574.74969     102002.7      46.7237      46.7237      46.7237 
  132000    92.985199   -7333.7363   -6854.7844   -602.57077     102002.7      46.7237      46.7237      46.7237 
  133000    89.286303   -7313.8387   -6853.9392   -659.80349     102002.7      46.7237      46.7237      46.7237 
  134000    92.323413   -7327.8705   -6852.3274   -723.72695     102002.7      46.7237      46.7237      46.7237 
  135000    91.921447   -7317.3181   -6843.8455   -923.91893     102002.7      46.7237      46.7237      46.7237 
  136000    92.061056   -7334.1265   -6859.9348   -872.35827     102002.7      46.7237      46.7237      46.7237 
  137000    94.689532   -7304.6687   -6816.9381   -581.66904     102002.7      46.7237      46.7237      46.7237 
  138000    91.178997    -7326.287   -6856.6386   -567.96444     102002.7      46.7237      46.7237      46.7237 
  139000     91.97885   -7314.1744   -6840.4061   -667.78606     102002.7      46.7237      46.7237      46.7237 
  140000    91.063162   -7333.8532   -6864.8014   -492.19352     102002.7      46.7237      46.7237      46.7237 
  141000    91.752915     -7314.44   -6841.8354   -498.24026     102002.7      46.7237      46.7237      46.7237 
  142000     92.36959   -7338.8325   -6863.0515   -619.25485     102002.7      46.7237      46.7237      46.7237 
  143000    92.756579   -7320.0851   -6842.3108   -710.48371     102002.7      46.7237      46.7237      46.7237 
  144000    90.232695   -7344.5334   -6879.7592   -679.43349     102002.7      46.7237      46.7237      46.7237 
  145000    89.714784   -7326.5472   -6864.4408   -525.79074     102002.7      46.7237      46.7237      46.7237 
  146000    91.707982   -7315.8615   -6843.4884   -720.56921     102002.7      46.7237      46.7237      46.7237 
  147000    92.538838   -7325.9939   -6849.3412   -610.96625     102002.7      46.7237      46.7237      46.7237 
  148000    90.258282   -7327.3448   -6862.4389   -522.71319     102002.7      46.7237      46.7237      46.7237 
  149000    92.790464   -7321.8022   -6843.8533   -736.52227     102002.7      46.7237      46.7237      46.7237 
  150000    88.638837    -7341.374   -6884.8095   -684.71303     102002.7      46.7237      46.7237      46.7237 
  151000    92.142934   -7319.4517   -6844.8382   -644.44287     102002.7      46.7237      46.7237      46.7237 
  152000    91.690227   -7334.5557   -6862.2741   -722.40324     102002.7      46.7237      46.7237      46.7237 
  153000    91.934945   -7329.5724   -6856.0303   -539.55028     102002.7      46.7237      46.7237      46.7237 
  154000    90.470541   -7319.6067   -6853.6074   -601.62917     102002.7      46.7237      46.7237      46.7237 
  155000     87.00422   -7311.7176   -6863.5728    -662.9226     102002.7      46.7237      46.7237      46.7237 
  156000    91.608048   -7343.2567   -6871.3984   -747.50286     102002.7      46.7237      46.7237      46.7237 
  157000    89.444595   -7312.9553   -6852.2405   -764.42884     102002.7      46.7237      46.7237      46.7237 
  158000    91.724209   -7344.7168   -6872.2601   -735.60714     102002.7      46.7237      46.7237      46.7237 
  159000    91.582945   -7332.8917   -6861.1626   -860.69327     102002.7      46.7237      46.7237      46.7237 
  160000    92.905352   -7312.3629   -6833.8223   -713.43934     102002.7      46.7237      46.7237      46.7237 
  161000     88.36957   -7317.1423   -6861.9648   -771.17944     102002.7      46.7237      46.7237      46.7237 
  162000    95.363251   -7323.2709   -6832.0701   -634.09945     102002.7      46.7237      46.7237      46.7237 
  163000    91.051916    -7326.793   -6857.7992   -836.59811     102002.7      46.7237      46.7237      46.7237 
  164000    91.317124   -7321.1059   -6850.7461   -679.29185     102002.7      46.7237      46.7237      46.7237 
  165000    88.026847   -7342.8342    -6889.422   -597.28977     102002.7      46.7237      46.7237      46.7237 
  166000    92.565586   -7333.7962   -6857.0057   -684.05421     102002.7      46.7237      46.7237      46.7237 
  167000    94.756928   -7334.1326   -6846.0548   -553.23752     102002.7      46.7237      46.7237      46.7237 
  168000    87.474874   -7338.6919   -6888.1228   -706.06597     102002.7      46.7237      46.7237      46.7237 
  169000    89.956376   -7314.8306   -6851.4797   -520.59355     102002.7      46.7237      46.7237      46.7237 
  170000     95.05695   -7320.2347   -6830.6116    -590.5125     102002.7      46.7237      46.7237      46.7237 
  171000    90.870321   -7329.7543   -6861.6958   -410.43558     102002.7      46.7237      46.7237      46.7237 
  172000    88.992912   -7331.5133   -6873.1251   -660.82552     102002.7      46.7237      46.7237      46.7237 
  173000    90.720393   -7326.9353   -6859.6491   -657.64528     102002.7      46.7237      46.7237      46.7237 
  174000    95.011096   -7314.5592   -6825.1723   -519.75045     102002.7      46.7237      46.7237      46.7237 
  175000    89.592293   -7323.1533   -6861.6777   -806.30341     102002.7      46.7237      46.7237      46.7237 
  176000    91.468168    -7310.649   -6839.5111   -334.15846     102002.7      46.7237      46.7237      46.7237 
  177000    93.268096   -7331.0056   -6850.5966   -440.18153     102002.7      46.7237      46.7237      46.7237 
  178000    89.263726   -7332.2568   -6872.4736   -697.36596     102002.7      46.7237      46.7237      46.7237 
  179000    89.690875   -7321.6009   -6859.6175   -335.37638     102002.7      46.7237      46.7237      46.7237 
  180000    89.874655   -7322.5047   -6859.5747   -727.01796     102002.7      46.7237      46.7237      46.7237 
  181000    87.845069   -7327.8345   -6875.3586   -585.50935     102002.7      46.7237      46.7237      46.7237 
  182000     90.42667   -7326.3318   -6860.5585   -811.14394     102002.7      46.7237      46.7237      46.7237 
  183000    91.624106    -7313.373   -6841.4319   -582.76603     102002.7      46.7237      46.7237      46.7237 
  184000    90.254355    -7328.279   -6863.3933   -359.27348     102002.7      46.7237      46.7237      46.7237 
  185000    92.571745   -7310.9168   -6834.0946    -628.0994     102002.7      46.7237      46.7237      46.7237 
  186000    91.804628   -7319.1393   -6846.2684   -685.54846     102002.7      46.7237      46.7237      46.7237 
  187000    87.280028   -7322.2692   -6872.7038   -823.01842     102002.7      46.7237      46.7237      46.7237 
  188000    91.023771   -7330.5676   -6861.7187   -903.15929     102002.7      46.7237      46.7237      46.7237 
  189000    90.210188   -7310.3557   -6845.6975   -760.43376     102002.7      46.7237      46.7237      46.7237 
  190000    91.782486   -7309.3821   -6836.6252   -694.42132     102002.7      46.7237      46.7237      46.7237 
  191000    91.633158   -7321.6353   -6849.6476    -615.6539     102002.7      46.7237      46.7237      46.7237 
  192000    92.838584   -7325.4971   -6847.3004   -430.94978     102002.7      46.7237      46.7237      46.7237 
  193000    90.404891   -7326.6486   -6860.9875   -693.12211     102002.7      46.7237      46.7237      46.7237 
  194000    92.568818   -7317.5384   -6840.7313   -691.59463     102002.7      46.7237      46.7237      46.7237 
  195000    88.363139   -7325.2966   -6870.1523   -809.91073     102002.7      46.7237      46.7237      46.7237 
  196000    87.620112   -7328.3034   -6876.9863   -661.91656     102002.7      46.7237      46.7237      46.7237 
  197000    92.744058   -7325.3538    -6847.644   -780.56642     102002.7      46.7237      46.7237      46.7237 
  198000     90.62977   -7335.2275   -6868.4081   -641.49684     102002.7      46.7237      46.7237      46.7237 
  199000     91.97525   -7320.5842   -6846.8345   -545.51883     102002.7      46.7237      46.7237      46.7237 
  200000    92.929073   -7320.4772   -6841.8144   -652.28139     102002.7      46.7237      46.7237      46.7237 
  201000    91.719868   -7330.1801   -6857.7458   -505.36028     102002.7      46.7237      46.7237      46.7237 
  202000    93.203553    -7331.018   -6850.9414   -733.82007     102002.7      46.7237      46.7237      46.7237 
  203000    88.545519   -7330.6782   -6874.5944   -657.60502     102002.7      46.7237      46.7237      46.7237 
  204000    91.308729   -7325.2972   -6854.9805   -699.11894     102002.7      46.7237      46.7237      46.7237 
  205000    92.216593   -7329.8498   -6854.8569   -792.21939     102002.7      46.7237      46.7237      46.7237 
  206000    92.585582   -7335.3808   -6858.4873   -539.96638     102002.7      46.7237      46.7237      46.7237 
  207000    92.737157   -7308.3513   -6830.6771   -662.93957     102002.7      46.7237      46.7237      46.7237 
  208000    91.121407   -7330.7361   -6861.3843   -246.88508     102002.7      46.7237      46.7237      46.7237 
  209000      94.8279   -7325.3335   -6836.8902   -759.63565     102002.7      46.7237      46.7237      46.7237 
  210000    90.454255   -7325.7223    -6859.807    -359.8432     102002.7      46.7237      46.7237      46.7237 
  211000    90.578537   -7301.4299   -6834.8744   -480.83644     102002.7      46.7237      46.7237      46.7237 
  212000        92.83   -7323.3046   -6845.1522   -579.48178     102002.7      46.7237      46.7237      46.7237 
  213000    87.697412   -7343.6809   -6891.9656   -408.54086     102002.7      46.7237      46.7237      46.7237 
  214000    92.392304   -7321.1119   -6845.2139   -364.87108     102002.7      46.7237      46.7237      46.7237 
  215000    90.759879   -7313.2236    -6845.734   -680.73309     102002.7      46.7237      46.7237      46.7237 
  216000    91.339038   -7341.0202   -6870.5475   -626.08299     102002.7      46.7237      46.7237      46.7237 
  217000    92.795615   -7314.6083    -6836.633   -630.50523     102002.7      46.7237      46.7237      46.7237 
  218000    90.819551   -7319.9605   -6852.1635   -414.28238     102002.7      46.7237      46.7237      46.7237 
  219000    89.381923   -7334.8411   -6874.4491   -515.85565     102002.7      46.7237      46.7237      46.7237 
  220000    95.689069        -7334   -6841.1209   -716.76151     102002.7      46.7237      46.7237      46.7237 
  221000    89.201306   -7337.9118   -6878.4502   -543.11642     102002.7      46.7237      46.7237      46.7237 
  222000    90.851075   -7323.3514   -6855.3921   -507.22176     102002.7      46.7237      46.7237      46.7237 
  223000    91.058847   -7326.8185    -6857.789   -383.99063     102002.7      46.7237      46.7237      46.7237 
  224000    92.500801   -7334.0744   -6857.6176   -420.18687     102002.7      46.7237      46.7237      46.7237 
  225000    88.118037   -7326.2042   -6872.3224   -484.10324     102002.7      46.7237      46.7237      46.7237 
  226000    91.395822   -7318.4048   -6847.6396   -448.59133     102002.7      46.7237      46.7237      46.7237 
  227000     88.69244   -7316.7955   -6859.9549   -410.02683     102002.7      46.7237      46.7237      46.7237 
  228000    89.318441   -7326.8648   -6866.7998   -258.61957     102002.7      46.7237      46.7237      46.7237 
  229000    93.536877   -7326.7691   -6844.9757   -422.26742     102002.7      46.7237      46.7237      46.7237 
  230000    92.880709   -7330.0339   -6851.6202   -350.07249     102002.7      46.7237      46.7237      46.7237 
  231000    90.719364    -7329.913   -6862.6321   -516.48254     102002.7      46.7237      46.7237      46.7237 
  232000    88.690037   -7312.2319   -6855.4037   -566.36248     102002.7      46.7237      46.7237      46.7237 
  233000    88.786593   -7317.5912   -6860.2657   -266.48016     102002.7      46.7237      46.7237      46.7237 
  234000    91.989975   -7333.6514   -6859.8257   -401.47862     102002.7      46.7237      46.7237      46.7237 
  235000    91.646592    -7322.337   -6850.2801   -609.01134     102002.7      46.7237      46.7237      46.7237 
  236000    87.989916   -7324.1648   -6870.9428   -415.62311     102002.7      46.7237      46.7237      46.7237 
  237000    87.933162   -7314.5148   -6861.5851    -515.8972     102002.7      46.7237      46.7237      46.7237 
  238000    89.793295   -7320.0114   -6857.5005   -480.52341     102002.7      46.7237      46.7237      46.7237 
  239000    89.802236   -7329.0546   -6866.4977   -494.75397     102002.7      46.7237      46.7237      46.7237 
  240000    90.746719   -7322.4429   -6855.0211   -624.24304     102002.7      46.7237      46.7237      46.7237 
  241000    90.400778   -7322.5195   -6856.8796   -703.97583     102002.7      46.7237      46.7237      46.7237 
  242000     91.06639   -7312.5256   -6843.4573   -696.25095     102002.7      46.7237      46.7237      46.7237 
  243000    89.380783   -7331.3552   -6870.9691   -671.90533     102002.7      46.7237      46.7237      46.7237 
  244000    89.281425   -7324.3665   -6864.4921   -897.97836     102002.7      46.7237      46.7237      46.7237 
  245000    90.526009   -7319.1945   -6852.9095   -766.36694     102002.7      46.7237      46.7237      46.7237 
  246000    93.301416   -7323.0959   -6842.5152   -687.63755     102002.7      46.7237      46.7237      46.7237 
  247000     91.92904   -7331.9563   -6858.4445   -866.56627     102002.7      46.7237      46.7237      46.7237 
  248000    93.548239   -7329.1012   -6847.2492   -577.95595     102002.7      46.7237      46.7237      46.7237 
  249000    94.005416   -7314.9137   -6830.7068   -639.25064     102002.7      46.7237      46.7237      46.7237 
  250000    91.989026   -7331.5697    -6857.749   -658.69391     102002.7      46.7237      46.7237      46.7237 
  251000    89.931658   -7314.7927   -6851.5692    -828.4116     102002.7      46.7237      46.7237      46.7237 
  252000    91.486621   -7311.1879   -6839.9549    -937.0108     102002.7      46.7237      46.7237      46.7237 
  253000    90.496417   -7321.2356    -6855.103    -755.9017     102002.7      46.7237      46.7237      46.7237 
  254000    88.008186   -7337.6098   -6884.2937   -834.97314     102002.7      46.7237      46.7237      46.7237 
  255000    89.458344   -7313.3782   -6852.5926   -719.74343     102002.7      46.7237      46.7237      46.7237 
  256000    90.256106   -7335.7258   -6870.8311   -659.91764     102002.7      46.7237      46.7237      46.7237 
  257000    92.122579   -7314.6807   -6840.1721   -715.71578     102002.7      46.7237      46.7237      46.7237 
  258000    92.387208   -7325.8322   -6849.9605   -709.74339     102002.7      46.7237      46.7237      46.7237 
  259000    91.948172   -7325.3481   -6851.7378   -706.91692     102002.7      46.7237      46.7237      46.7237 
  260000     90.89458   -7324.1484    -6855.965   -739.93495     102002.7      46.7237      46.7237      46.7237 
  261000    95.846962   -7343.3371   -6849.6448   -820.48798     102002.7      46.7237      46.7237      46.7237 
  262000    90.331558   -7312.8382   -6847.5549   -923.92268     102002.7      46.7237      46.7237      46.7237 
  263000    92.471025   -7323.0247   -6846.7213   -619.66942     102002.7      46.7237      46.7237      46.7237 
  264000    88.815791   -7312.8878   -6855.4119     -970.946     102002.7      46.7237      46.7237      46.7237 
  265000      93.6921   -7314.8719   -6832.2789   -728.62844     102002.7      46.7237      46.7237      46.7237 
  266000    89.378557   -7318.5786   -6858.2039   -602.11659     102002.7      46.7237      46.7237      46.7237 
  267000    89.778919   -7331.1278    -6868.691   -516.23546     102002.7      46.7237      46.7237      46.7237 
  268000    91.992497   -7312.6566    -6838.818   -560.53079     102002.7      46.7237      46.7237      46.7237 
  269000    89.485579   -7323.7931   -6862.8672     -740.107     102002.7      46.7237      46.7237      46.7237 
  270000    90.775716   -7329.0398   -6861.4686   -521.02679     102002.7      46.7237      46.7237      46.7237 
  271000    94.514529   -7352.7648   -6865.9356   -533.41814     102002.7      46.7237      46.7237      46.7237 
  272000    92.983634   -7332.0947   -6853.1509   -694.00084     102002.7      46.7237      46.7237      46.7237 
  273000    88.299621   -7339.3117   -6884.4945    -628.9693     102002.7      46.7237      46.7237      46.7237 
  274000    91.113402    -7315.035   -6845.7245   -467.69212     102002.7      46.7237      46.7237      46.7237 
  275000    90.686057   -7328.1128   -6861.0035   -940.40254     102002.7      46.7237      46.7237      46.7237 
  276000    89.574058    -7328.593   -6867.2114   -594.96552     102002.7      46.7237      46.7237      46.7237 
  277000    89.985297   -7306.9389    -6843.439    -268.5214     102002.7      46.7237      46.7237      46.7237 
  278000    90.749185   -7308.2272   -6840.7927   -798.95295     102002.7      46.7237      46.7237      46.7237 
  279000    90.448928   -7325.9948   -6860.1069   -516.47843     102002.7      46.7237      46.7237      46.7237 
  280000    90.683471   -7298.0584   -6830.9624   -416.52993     102002.7      46.7237      46.7237      46.7237 
  281000    90.505183   -7318.8451   -6852.6675   -543.98725     102002.7      46.7237      46.7237      46.7237 
  282000    91.016071   -7329.4015   -6860.5923   -513.46763     102002.7      46.7237      46.7237      46.7237 
  283000    93.431444   -7315.1907   -6833.9403   -678.85987     102002.7      46.7237      46.7237      46.7237 
  284000    88.844176   -7325.2814   -6867.6593   -546.02945     102002.7      46.7237      46.7237      46.7237 
  285000    88.362209   -7328.3058   -6873.1662   -923.79277     102002.7      46.7237      46.7237      46.7237 
  286000    90.620895   -7323.5801   -6856.8064   -450.12922     102002.7      46.7237      46.7237      46.7237 
  287000    89.484032   -7343.1859    -6882.268   -564.58265     102002.7      46.7237      46.7237      46.7237 
  288000    89.574225   -7325.5178   -6864.1353   -483.47355     102002.7      46.7237      46.7237      46.7237 
  289000    92.049155   -7311.1543   -6837.0239   -770.65605     102002.7      46.7237      46.7237      46.7237 
  290000    87.841683    -7309.929   -6857.4706   -745.01835     102002.7      46.7237      46.7237      46.7237 
  291000     90.38457   -7313.5766   -6848.0202     -622.897     102002.7      46.7237      46.7237      46.7237 
  292000    89.137501   -7328.4524   -6869.3194   -664.81506     102002.7      46.7237      46.7237      46.7237 
  293000    91.172716   -7323.3515   -6853.7354   -381.76887     102002.7      46.7237      46.7237      46.7237 
  294000    89.467473   -7324.6087   -6863.7761   -654.17293     102002.7      46.7237      46.7237      46.7237 
  295000     92.38261   -7331.0378   -6855.1898   -466.21678     102002.7      46.7237      46.7237      46.7237 
  296000    93.429254   -7313.0016   -6831.7624   -531.42489     102002.7      46.7237      46.7237      46.7237 
  297000    91.432101    -7317.188   -6846.2359   -589.11081     102002.7      46.7237      46.7237      46.7237 
  298000    93.084574   -7329.1107    -6849.647   -552.88287     102002.7      46.7237      46.7237      46.7237 
  299000    91.968844   -7346.9628    -6873.246   -575.10408     102002.7      46.7237      46.7237      46.7237 
  300000    90.717203   -7306.9931   -6839.7233   -378.67694     102002.7      46.7237      46.7237      46.7237 
  301000    90.614725   -7320.7289    -6853.987   -661.43889     102002.7      46.7237      46.7237      46.7237 
  302000    92.944118   -7325.0971   -6846.3568   -603.78016     102002.7      46.7237      46.7237      46.7237 
  303000    89.264078   -7345.7853   -6886.0003   -536.61416     102002.7      46.7237      46.7237      46.7237 
  304000    90.908861   -7317.8393   -6849.5823   -811.23516     102002.7      46.7237      46.7237      46.7237 
  305000    92.413358   -7329.6996   -6853.6932   -694.33971     102002.7      46.7237      46.7237      46.7237 
  306000    88.897885   -7336.4033   -6878.5045   -721.91539     102002.7      46.7237      46.7237      46.7237 
  307000    90.387662   -7311.4595   -6845.8872   -862.52432     102002.7      46.7237      46.7237      46.7237 
  308000    91.682162   -7334.9721    -6862.732   -531.91297     102002.7      46.7237      46.7237      46.7237 
  309000    89.096067   -7324.0412   -6865.1217   -398.39691     102002.7      46.7237      46.7237      46.7237 
  310000    89.985579   -7303.7402   -6840.2389   -600.89137     102002.7      46.7237      46.7237      46.7237 
  311000    88.923921   -7317.9335   -6859.9006   -437.76254     102002.7      46.7237      46.7237      46.7237 
  312000    87.056691    -7322.755   -6874.3399    -461.0106     102002.7      46.7237      46.7237      46.7237 
  313000     93.30623    -7330.997   -6850.3916   -765.59804     102002.7      46.7237      46.7237      46.7237 
  314000    88.290496    -7346.012   -6891.2418   -691.36001     102002.7      46.7237      46.7237      46.7237 
  315000    92.454512   -7324.5835   -6848.3651   -744.58784     102002.7      46.7237      46.7237      46.7237 
  316000    91.730875   -7308.8102   -6836.3191   -686.77596     102002.7      46.7237      46.7237      46.7237 
  317000    92.159667   -7305.3186   -6830.6189   -915.61596     102002.7      46.7237      46.7237      46.7237 
  318000    91.153652   -7329.2887   -6859.7708   -589.07775     102002.7      46.7237      46.7237      46.7237 
  319000    94.384108   -7326.4315    -6840.274   -733.61172     102002.7      46.7237      46.7237      46.7237 
  320000    92.287189   -7320.3337   -6844.9772   -819.44507     102002.7      46.7237      46.7237      46.7237 
  321000    90.906114   -7332.2548    -6864.012   -336.68234     102002.7      46.7237      46.7237      46.7237 
  322000    88.691339   -7333.3223   -6876.4874   -723.47989     102002.7      46.7237      46.7237      46.7237 
  323000    93.184031   -7326.0303   -6846.0543   -655.30008     102002.7      46.7237      46.7237      46.7237 
  324000     91.77348   -7320.2481   -6847.5376   -705.22799     102002.7      46.7237      46.7237      46.7237 
  325000     92.54358   -7325.9143   -6849.2371   -643.11627     102002.7      46.7237      46.7237      46.7237 
  326000    88.093204   -7311.1266   -6857.3726   -416.65432     102002.7      46.7237      46.7237      46.7237 
  327000    88.776979   -7330.6201   -6873.3441   -732.77275     102002.7      46.7237      46.7237      46.7237 
  328000    92.501863   -7335.5422   -6859.0799   -662.91682     102002.7      46.7237      46.7237      46.7237 
  329000     91.94262   -7331.4464   -6857.8647   -610.00543     102002.7      46.7237      46.7237      46.7237 
  330000     93.10087   -7328.8404   -6849.2928   -788.16738     102002.7      46.7237      46.7237      46.7237 
  331000    90.819311   -7312.1003   -6844.3045   -695.63697     102002.7      46.7237      46.7237      46.7237 
  332000    90.574355   -7311.4477   -6844.9137   -531.72753     102002.7      46.7237      46.7237      46.7237 
  333000    89.684626   -7336.6069   -6874.6558   -605.94231     102002.7      46.7237      46.7237      46.7237 
  334000    93.230002   -7311.3127   -6831.0999   -495.21948     102002.7      46.7237      46.7237      46.7237 
  335000     91.51459   -7334.0501   -6862.6731   -490.26796     102002.7      46.7237      46.7237      46.7237 
  336000    93.855707   -7318.6042   -6835.1684   -557.24908     102002.7      46.7237      46.7237      46.7237 
  337000    93.186296    -7324.661   -6844.6733   -511.96149     102002.7      46.7237      46.7237      46.7237 
  338000    89.343765   -7325.7045   -6865.5091   -878.77243     102002.7      46.7237      46.7237      46.7237 
  339000     92.61335   -7339.8851   -6862.8485   -647.32435     102002.7      46.7237      46.7237      46.7237 
  340000    92.869958   -7321.2246   -6842.8664    -683.1583     102002.7      46.7237      46.7237      46.7237 
  341000    94.726005   -7330.8003   -6842.8818   -669.08306     102002.7      46.7237      46.7237      46.7237 
  342000    92.055697   -7347.5458   -6873.3816   -419.35643     102002.7      46.7237      46.7237      46.7237 
  343000    90.877638   -7313.4824   -6845.3862   -605.21991     102002.7      46.7237      46.7237      46.7237 
  344000    93.606717   -7329.4812    -6847.328   -556.15087     102002.7      46.7237      46.7237      46.7237 
  345000    90.349756    -7344.622   -6879.2449   -424.58394     102002.7      46.7237      46.7237      46.7237 
  346000    92.749801   -7332.0942   -6854.3548   -841.97581     102002.7      46.7237      46.7237      46.7237 
  347000    95.062191   -7327.5329   -6837.8828   -579.88258     102002.7      46.7237      46.7237      46.7237 
  348000    90.584414   -7326.4584   -6859.8726   -426.76093     102002.7      46.7237      46.7237      46.7237 
  349000    93.681933   -7319.8224   -6837.2818   -569.52745     102002.7      46.7237      46.7237      46.7237 
  350000    94.239876   -7328.7273   -6843.3128   -754.47115     102002.7      46.7237      46.7237      46.7237 
  351000    90.625685   -7337.8239   -6871.0255    -817.6545     102002.7      46.7237      46.7237      46.7237 
  352000    91.771361   -7318.4702   -6845.7706   -663.41586     102002.7      46.7237      46.7237      46.7237 
  353000    90.415434   -7325.3442   -6859.6288   -845.84661     102002.7      46.7237      46.7237      46.7237 
  354000      92.1044   -7341.5129   -6867.0979   -635.74187     102002.7      46.7237      46.7237      46.7237 
  355000    93.204363   -7324.5275   -6844.4468    -764.4692     102002.7      46.7237      46.7237      46.7237 
  356000    89.788914   -7327.5799   -6865.0916   -774.54759     102002.7      46.7237      46.7237      46.7237 
  357000    90.905367   -7307.1969   -6838.9579    -539.3932     102002.7      46.7237      46.7237      46.7237 
  358000    92.811972   -7317.9433   -6839.8837   -532.37927     102002.7      46.7237      46.7237      46.7237 
  359000     90.04198    -7315.745   -6851.9532   -704.09412     102002.7      46.7237      46.7237      46.7237 
  360000    90.414026   -7317.4849   -6851.7767   -714.34804     102002.7      46.7237      46.7237      46.7237 
  361000    89.582809    -7324.032   -6862.6053   -682.82736     102002.7      46.7237      46.7237      46.7237 
  362000    91.796742   -7306.7754   -6833.9451   -436.22203     102002.7      46.7237      46.7237      46.7237 
  363000    90.503146   -7320.3835   -6854.2163   -643.15595     102002.7      46.7237      46.7237      46.7237 
  364000    90.108973    -7331.784   -6867.6472   -695.92624     102002.7      46.7237      46.7237      46.7237 
  365000    94.926914   -7317.2875   -6828.3342   -799.94702     102002.7      46.7237      46.7237      46.7237 
  366000    90.168859   -7328.5549   -6864.1095   -716.73334     102002.7      46.7237      46.7237      46.7237 
  367000    90.944321   -7319.5394   -6851.0998   -635.34636     102002.7      46.7237      46.7237      46.7237 
  368000    93.310006   -7332.5649     -6851.94    -618.6327     102002.7      46.7237      46.7237      46.7237 
  369000    95.410324   -7324.6603    -6833.217   -595.55728     102002.7      46.7237      46.7237      46.7237 
  370000     90.24211    -7320.901   -6856.0784   -673.49332     102002.7      46.7237      46.7237      46.7237 
  371000    93.497776   -7312.2606   -6830.6685   -520.52748     102002.7      46.7237      46.7237      46.7237 
  372000    90.214992   -7318.1553   -6853.4724   -508.54402     102002.7      46.7237      46.7237      46.7237 
  373000    92.683685    -7320.504   -6843.1052   -626.15814     102002.7      46.7237      46.7237      46.7237 
  374000    88.641306   -7309.2762   -6852.6991   -498.78936     102002.7      46.7237      46.7237      46.7237 
  375000    89.964851   -7324.9111   -6861.5165   -614.32414     102002.7      46.7237      46.7237      46.7237 
  376000    93.671949   -7323.1162    -6840.627   -535.37666     102002.7      46.7237      46.7237      46.7237 
  377000    90.537109   -7324.1359   -6857.7938   -674.43378     102002.7      46.7237      46.7237      46.7237 
  378000    90.725522   -7313.2649   -6845.9522   -650.18333     102002.7      46.7237      46.7237      46.7237 
  379000    86.510271   -7308.4492   -6862.8486    -584.5419     102002.7      46.7237      46.7237      46.7237 
  380000    91.539445   -7324.6908   -6853.1858    -442.2849     102002.7      46.7237      46.7237      46.7237 
  381000    92.475961   -7323.2727   -6846.9438   -644.25754     102002.7      46.7237      46.7237      46.7237 
  382000    87.912043   -7326.7912   -6873.9703    -628.3903     102002.7      46.7237      46.7237      46.7237 
  383000    93.594392   -7316.1945   -6834.1048   -817.20713     102002.7      46.7237      46.7237      46.7237 
  384000     90.22005   -7316.5987   -6851.8896   -1019.5999     102002.7      46.7237      46.7237      46.7237 
  385000    91.929958   -7324.3702   -6850.8537   -897.48116     102002.7      46.7237      46.7237      46.7237 
  386000    88.371188   -7321.3293   -6866.1434   -846.72671     102002.7      46.7237      46.7237      46.7237 
  387000    90.978713   -7332.5829   -6863.9661   -671.25935     102002.7      46.7237      46.7237      46.7237 
  388000    92.318517   -7326.0529    -6850.535   -723.88815     102002.7      46.7237      46.7237      46.7237 
  389000    89.012646   -7329.8397   -6871.3498   -816.76899     102002.7      46.7237      46.7237      46.7237 
  390000    90.101614   -7324.5956   -6860.4966   -821.46016     102002.7      46.7237      46.7237      46.7237 
  391000    89.881667   -7323.7785   -6860.8124   -699.33446     102002.7      46.7237      46.7237      46.7237 
  392000    93.569042   -7330.0652   -6848.1061   -806.93551     102002.7      46.7237      46.7237      46.7237 
  393000    91.254331   -7324.7229   -6854.6865   -681.73067     102002.7      46.7237      46.7237      46.7237 
  394000    86.847007   -7333.5748   -6886.2397   -594.91284     102002.7      46.7237      46.7237      46.7237 
  395000    91.710636    -7319.732   -6847.3452   -790.94984     102002.7      46.7237      46.7237      46.7237 
  396000    89.515581    -7310.621   -6849.5406   -742.44474     102002.7      46.7237      46.7237      46.7237 
  397000    89.559666   -7321.5703   -6860.2628   -739.63119     102002.7      46.7237      46.7237      46.7237 
  398000    89.873501   -7348.9953   -6886.0713    -685.5305     102002.7      46.7237      46.7237      46.7237 
  399000    92.414382   -7326.1933   -6850.1817   -554.73728     102002.7      46.7237      46.7237      46.7237 
  400000    91.528175   -7333.8149   -6862.3679   -729.09628     102002.7      46.7237      46.7237      46.7237 
  401000    89.810497   -7321.0163   -6858.4168   -586.76575     102002.7      46.7237      46.7237      46.7237 
  402000    94.321458   -7321.7693   -6835.9346    -657.1845     102002.7      46.7237      46.7237      46.7237 
  403000    91.292261   -7326.9291   -6856.6973   -875.96641     102002.7      46.7237      46.7237      46.7237 
  404000    90.307865   -7330.1663    -6865.005   -636.69677     102002.7      46.7237      46.7237      46.7237 
  405000    93.252856   -7315.0686   -6834.7381   -865.52887     102002.7      46.7237      46.7237      46.7237 
  406000    89.424442   -7325.2517   -6864.6408   -750.53709     102002.7      46.7237      46.7237      46.7237 
  407000    92.221461   -7313.1601   -6838.1421   -833.43205     102002.7      46.7237      46.7237      46.7237 
  408000    88.731356   -7317.4932   -6860.4522   -288.38337     102002.7      46.7237      46.7237      46.7237 
  409000    90.879459   -7302.6873   -6834.5818   -783.83101     102002.7      46.7237      46.7237      46.7237 
  410000    91.464373   -7323.4669   -6852.3485   -352.47031     102002.7      46.7237      46.7237      46.7237 
  411000     91.15956   -7322.5358   -6852.9875   -483.82433     102002.7      46.7237      46.7237      46.7237 
  412000    93.398038   -7311.5629   -6830.4846   -587.44327     102002.7      46.7237      46.7237      46.7237 
  413000    91.635899   -7326.8803   -6854.8785    -501.3941     102002.7      46.7237      46.7237      46.7237 
  414000    90.263134   -7309.7451   -6844.8142   -644.76805     102002.7      46.7237      46.7237      46.7237 
  415000    89.255117    -7335.718   -6875.9792   -472.85326     102002.7      46.7237      46.7237      46.7237 
  416000    88.766003   -7309.3324   -6852.1129    -756.7294     102002.7      46.7237      46.7237      46.7237 
  417000    90.059871   -7332.9668   -6869.0828   -445.78182     102002.7      46.7237      46.7237      46.7237 
  418000    91.522615   -7326.3662   -6854.9479    -370.6381     102002.7      46.7237      46.7237      46.7237 
  419000    90.667039    -7333.616   -6866.6046   -671.61287     102002.7      46.7237      46.7237      46.7237 
  420000    89.379318   -7326.9923   -6866.6137   -572.00673     102002.7      46.7237      46.7237      46.7237 
  421000    89.096295   -7330.0041   -6871.0833   -539.62084     102002.7      46.7237      46.7237      46.7237 
  422000     90.04244   -7327.3035   -6863.5093    -534.1518     102002.7      46.7237      46.7237      46.7237 
  423000    91.242831   -7299.1182    -6829.141   -550.40099     102002.7      46.7237      46.7237      46.7237 
  424000    89.505874   -7327.2272   -6866.1967   -556.67759     102002.7      46.7237      46.7237      46.7237 
  425000    91.900073   -7334.9768   -6861.6143   -555.70618     102002.7      46.7237      46.7237      46.7237 
  426000    90.151541   -7318.6371   -6854.2809   -745.21306     102002.7      46.7237      46.7237      46.7237 
  427000    90.521579   -7336.7971    -6870.535   -891.99968     102002.7      46.7237      46.7237      46.7237 
  428000    92.532995   -7325.4637    -6848.841   -815.37618     102002.7      46.7237      46.7237      46.7237 
  429000    90.344913    -7310.675   -6845.3228   -718.43133     102002.7      46.7237      46.7237      46.7237 
  430000    88.964512   -7327.7013   -6869.4594   -723.02222     102002.7      46.7237      46.7237      46.7237 
  431000    89.555302   -7332.3589   -6871.0739   -488.99602     102002.7      46.7237      46.7237      46.7237 
  432000    92.356051   -7329.7515   -6854.0403   -779.13266     102002.7      46.7237      46.7237      46.7237 
  433000    93.785052   -7322.0749   -6839.0031   -796.74773     102002.7      46.7237      46.7237      46.7237 
  434000    92.638248   -7342.7327   -6865.5679   -669.60569     102002.7      46.7237      46.7237      46.7237 
  435000    88.876204   -7330.6085   -6872.8214   -606.35599     102002.7      46.7237      46.7237      46.7237 
  436000    91.758021   -7318.0489   -6845.4181   -545.48485     102002.7      46.7237      46.7237      46.7237 
  437000    94.063693   -7324.1574   -6839.6504   -639.09542     102002.7      46.7237      46.7237      46.7237 
  438000     91.08431   -7327.5618   -6858.4011   -560.32738     102002.7      46.7237      46.7237      46.7237 
  439000    93.464235   -7313.1478   -6831.7285   -743.50818     102002.7      46.7237      46.7237      46.7237 
  440000    91.910598   -7333.4079   -6859.9911   -488.70345     102002.7      46.7237      46.7237      46.7237 
  441000    88.030126   -7339.2141    -6885.785   -507.74096     102002.7      46.7237      46.7237      46.7237 
  442000    92.559685   -7327.5341    -6850.774   -613.11674     102002.7      46.7237      46.7237      46.7237 
  443000    90.748428   -7323.7986    -6856.368   -572.14964     102002.7      46.7237      46.7237      46.7237 
  444000     88.41324   -7330.2221   -6874.8196   -681.65977     102002.7      46.7237      46.7237      46.7237 
  445000    91.314245   -7318.9587   -6848.6136   -661.09076     102002.7      46.7237      46.7237      46.7237 
  446000    92.907632   -7326.7288   -6848.1765   -698.18332     102002.7      46.7237      46.7237      46.7237 
  447000    91.803401   -7325.7851   -6852.9205    -712.5159     102002.7      46.7237      46.7237      46.7237 
  448000    92.667701   -7341.2937   -6863.9773   -784.35264     102002.7      46.7237      46.7237      46.7237 
  449000    92.053953   -7317.7762   -6843.6211   -641.39895     102002.7      46.7237      46.7237      46.7237 
  450000    89.482008   -7333.7259   -6872.8184   -559.28781     102002.7      46.7237      46.7237      46.7237 
  451000    89.794789   -7314.3682   -6851.8496   -682.66146     102002.7      46.7237      46.7237      46.7237 
  452000    90.716523   -7330.9717   -6863.7054   -474.34272     102002.7      46.7237      46.7237      46.7237 
  453000    92.888685    -7314.804   -6836.3493    -948.9021     102002.7      46.7237      46.7237      46.7237 
  454000    92.146658   -7338.6909   -6864.0582   -526.88383     102002.7      46.7237      46.7237      46.7237 
  455000    85.952008   -7327.5192   -6884.7942   -629.01209     102002.7      46.7237      46.7237      46.7237 
  456000    90.494951   -7335.7884   -6869.6634   -692.34443     102002.7      46.7237      46.7237      46.7237 
  457000    89.283377   -7325.1066   -6865.2223   -704.01257     102002.7      46.7237      46.7237      46.7237 
  458000      90.2235   -7333.7239   -6868.9971   -689.12207     102002.7      46.7237      46.7237      46.7237 
  459000    93.598807   -7318.4834    -6836.371    -614.8776     102002.7      46.7237      46.7237      46.7237 
  460000    90.162808   -7331.7516   -6867.3375   -860.29976     102002.7      46.7237      46.7237      46.7237 
  461000      93.6562   -7313.5611   -6831.1531    -776.5901     102002.7      46.7237      46.7237      46.7237 
  462000    91.334283   -7328.2073   -6857.7591   -996.79513     102002.7      46.7237      46.7237      46.7237 
  463000    91.630275   -7323.8177   -6851.8449   -622.06262     102002.7      46.7237      46.7237      46.7237 
  464000    92.142257   -7324.4991   -6849.8891   -726.41055     102002.7      46.7237      46.7237      46.7237 
  465000    90.554157   -7321.4652   -6855.0352   -551.65096     102002.7      46.7237      46.7237      46.7237 
  466000    87.970788   -7332.5232   -6879.3997   -904.82183     102002.7      46.7237      46.7237      46.7237 
  467000    90.743013   -7307.6225   -6840.2198   -679.79981     102002.7      46.7237      46.7237      46.7237 
  468000    89.287727    -7328.672   -6868.7652   -801.29386     102002.7      46.7237      46.7237      46.7237 
  469000    91.398944   -7335.9987   -6865.2174   -866.62782     102002.7      46.7237      46.7237      46.7237 
  470000    90.878842   -7297.9942   -6829.8918   -836.55549     102002.7      46.7237      46.7237      46.7237 
  471000     89.98251   -7327.2008   -6863.7153   -651.10091     102002.7      46.7237      46.7237      46.7237 
  472000    88.945447   -7339.0371   -6880.8933   -523.12794     102002.7      46.7237      46.7237      46.7237 
  473000    88.994188   -7330.1228    -6871.728   -681.74941     102002.7      46.7237      46.7237      46.7237 
  474000    92.268665   -7322.5296   -6847.2685   -457.74141     102002.7      46.7237      46.7237      46.7237 
  475000     90.87793   -7315.2555   -6847.1579   -739.15003     102002.7      46.7237      46.7237      46.7237 
  476000    88.803115   -7329.2742   -6871.8636    -653.9938     102002.7      46.7237      46.7237      46.7237 
  477000    92.188726   -7329.5919   -6854.7426   -542.49835     102002.7      46.7237      46.7237      46.7237 
  478000    93.594674   -7331.8774   -6849.7862   -426.94548     102002.7      46.7237      46.7237      46.7237 
  479000    86.824893   -7333.2826   -6886.0615   -661.85749     102002.7      46.7237      46.7237      46.7237 
  480000    92.839464   -7330.6271   -6852.4259   -445.53616     102002.7      46.7237      46.7237      46.7237 
  481000    92.383512   -7309.9612   -6834.1086   -557.28256     102002.7      46.7237      46.7237      46.7237 
  482000     90.24048   -7328.3347   -6863.5204     -472.967     102002.7      46.7237      46.7237      46.7237 
  483000    93.610289   -7315.8329   -6833.6613   -289.30533     102002.7      46.7237      46.7237      46.7237 
  484000    91.026831   -7332.4211   -6863.5565   -453.25803     102002.7      46.7237      46.7237      46.7237 
  485000    90.048326    -7331.312   -6867.4875   -288.76288     102002.7      46.7237      46.7237      46.7237 
  486000    87.941846   -7307.2101   -6854.2357   -707.64303     102002.7      46.7237      46.7237      46.7237 
  487000    86.933443   -7334.1598   -6886.3795   -584.17741     102002.7      46.7237      46.7237      46.7237 
  488000    91.071903   -7331.5337    -6862.437   -666.54906     102002.7      46.7237      46.7237      46.7237 
  489000    88.810198    -7329.985   -6872.5379   -763.86953     102002.7      46.7237      46.7237      46.7237 
  490000    92.806208   -7316.5922   -6838.5623    -693.7153     102002.7      46.7237      46.7237      46.7237 
  491000    90.261512   -7313.2563   -6848.3337   -629.90302     102002.7      46.7237      46.7237      46.7237 
  492000    89.592609   -7331.7855   -6870.3084   -708.20609     102002.7      46.7237      46.7237      46.7237 
  493000    89.161211   -7318.4228   -6859.1676   -769.62708     102002.7      46.7237      46.7237      46.7237 
  494000     91.76258   -7328.6446   -6855.9903   -845.84226     102002.7      46.7237      46.7237      46.7237 
  495000    90.872361   -7338.9188   -6870.8499   -730.80434     102002.7      46.7237      46.7237      46.7237 
  496000    91.393642   -7323.6309   -6852.8769   -670.89784     102002.7      46.7237      46.7237      46.7237 
  497000    91.063312   -7323.9865    -6854.934   -697.25326     102002.7      46.7237      46.7237      46.7237 
  498000    91.521135   -7331.9683   -6860.5576   -679.93336     102002.7      46.7237      46.7237      46.7237 
  499000    95.241373   -7321.7769   -6831.2039   -742.34184     102002.7      46.7237      46.7237      46.7237 
  500000    89.755776   -7328.2439   -6865.9262   -446.16023     102002.7      46.7237      46.7237      46.7237 
  500504    87.411362   -7327.0128   -6876.7709   -753.70704     102002.7      46.7237      46.7237      46.7237 
Loop time of 1274.71 on 16 procs for 500000 steps with 1729 atoms

Performance: 33.890 ns/day, 0.708 hours/ns, 392.246 timesteps/s
99.9% CPU use with 16 MPI tasks x no OpenMP threads

MPI task timing breakdown:
Section |  min time  |  avg time  |  max time  |%varavg| %total
---------------------------------------------------------------
Pair    | 517.11     | 682.84     | 854.71     | 448.9 | 53.57
Bond    | 166.13     | 173.96     | 180.82     |  30.5 | 13.65
Neigh   | 2.6009     | 2.6237     | 2.6571     |   1.2 |  0.21
Comm    | 227.38     | 402.49     | 575.87     | 582.7 | 31.57
Output  | 0.020822   | 0.021255   | 0.024589   |   0.6 |  0.00
Modify  | 6.849      | 7.4733     | 7.7692     |   9.8 |  0.59
Other   |            | 5.297      |            |       |  0.42

Nlocal:    108.062 ave 131 max 84 min
Histogram: 2 2 0 0 4 2 2 1 1 2
Nghost:    2192.94 ave 2219 max 2165 min
Histogram: 1 2 1 0 3 3 1 3 0 2
Neighs:    11451.6 ave 17379 max 7692 min
Histogram: 3 3 1 2 1 2 1 1 0 2

Total # of neighbors = 183225
Ave neighs/atom = 105.972
Ave special neighs/atom = 6.66281
Neighbor list builds = 2287
Dangerous builds = 0
Neighbor list info ...
  update every 1 steps, delay 10 steps, check yes
  max neighbors/atom: 2000, page size: 100000
  master list distance cutoff = 16
  ghost atom cutoff = 16
  binsize = 8, bins = 6 6 6
  3 neighbor lists, perpetual/occasional/extra = 3 0 0
  (1) pair buck6d/coul/gauss/dsf, perpetual, skip from (3)
      attributes: half, newton on
      pair build: skip
      stencil: none
      bin: none
  (2) pair lj/cut, perpetual, skip from (3)
      attributes: half, newton on
      pair build: skip
      stencil: none
      bin: none
  (3) neighbor class addition, perpetual
      attributes: half, newton on
      pair build: half/bin/newton
      stencil: half/bin/3d/newton
      bin: standard
Setting up Verlet run ...
  Unit style    : real
  Current step  : 500504
  Time step     : 1
WARNING: Inconsistent image flags (../domain.cpp:786)
Per MPI rank memory allocation (min/avg/max) = 23.22 | 23.33 | 23.34 Mbytes
Step Time TotEng KinEng PotEng E_mol E_pair Temp Pxx Pyy Pzz Pxy Pxz Pyz Cella Cellb Cellc CellAlpha CellBeta CellGamma Volume Press 
  500504       500000   -6876.7709    450.24192   -7327.0128    4212.7318   -11539.745    87.411362   -827.63087   -670.55951   -762.93073    5.0965412   -183.85838   -81.406204      46.7237      46.7237      46.7237           90           90           90     102002.7   -753.70704 
  501000       500496   -6875.4258    459.94427   -7335.3701    4207.8913   -11543.261    89.295006   -741.35265   -761.88011   -536.16991    1.5334705   -183.24201   -49.066888      46.7237      46.7237      46.7237           90           90           90     102002.7   -679.80089 
  502000       501496    -6863.958    470.70138   -7334.6594    4217.4133   -11552.073    91.383425   -646.24609   -746.14594   -518.67492   -44.059763   -68.486138    178.65542      46.7237      46.7237      46.7237           90           90           90     102002.7   -637.02232 
  503000       502496   -6865.3392    458.01893   -7323.3581    4223.5749   -11546.933    88.921214   -472.26198   -742.61931   -394.49598    229.09518    165.75982    242.79661      46.7237      46.7237      46.7237           90           90           90     102002.7   -536.45909 
  504000       503496   -6847.8904    475.15341   -7323.0438    4207.2582   -11530.302    92.247756   -965.66975   -778.82173   -502.63521   -20.479364    65.995586    106.49061      46.7237      46.7237      46.7237           90           90           90     102002.7   -749.04223 
  505000       504496   -6862.1487    457.83982   -7319.9885    4214.0605   -11534.049    88.886442    -390.6739   -429.24406   -390.92458   -123.36169   -199.60419   -14.440915      46.7237      46.7237      46.7237           90           90           90     102002.7   -403.61418 
  506000       505496   -6840.3404    468.10281   -7308.4432    4219.0441   -11527.487    90.878932   -605.49616   -807.36495   -848.38377    161.92357   -242.13941   -140.03099      46.7237      46.7237      46.7237           90           90           90     102002.7   -753.74829 
  507000       506496   -6889.7874    436.92044   -7326.7078    4205.1621    -11531.87    84.825089    -697.0017   -595.83049   -689.56489    -68.46684    7.2015073    -20.06129      46.7237      46.7237      46.7237           90           90           90     102002.7   -660.79903 
  508000       507496   -6847.2278    477.19273   -7324.4206    4216.0289   -11540.449    92.643676   -467.20422   -946.92218   -641.86011    -4.822455    250.80119    314.31676      46.7237      46.7237      46.7237           90           90           90     102002.7   -685.32884 
  509000       508496   -6855.2171    477.37168   -7332.5888    4200.7682   -11533.357    92.678418   -625.97968   -660.52452   -519.73565    156.69061    17.133236     -62.1217      46.7237      46.7237      46.7237           90           90           90     102002.7   -602.07995 
  510000       509496    -6857.796    472.30743   -7330.1035    4219.8888   -11549.992    91.695229   -527.92396   -591.59528   -536.23248   -149.35555   -287.97835   -49.328134      46.7237      46.7237      46.7237           90           90           90     102002.7   -551.91724 
  511000       510496   -6843.2092     472.6889   -7315.8981    4219.6903   -11535.588    91.769288   -867.03114   -562.46934   -660.45769    51.012891   -0.9042576   -171.11362      46.7237      46.7237      46.7237           90           90           90     102002.7   -696.65272 
  512000       511496   -6866.9658    473.43506   -7340.4009    4195.2173   -11535.618    91.914151   -809.67949   -1006.3096   -479.63288    126.20262    154.52297    -17.60861      46.7237      46.7237      46.7237           90           90           90     102002.7   -765.20733 
  513000       512496   -6849.2302    471.53903   -7320.7692    4215.2906    -11536.06    91.546049   -207.30674    -617.6125   -326.15768     32.76381    -108.6185    130.71093      46.7237      46.7237      46.7237           90           90           90     102002.7   -383.69231 
  514000       513496   -6865.3394    463.80974   -7329.1492    4199.1369   -11528.286     90.04546   -956.14595   -716.20384   -509.37108   -61.376543    -63.44369   -103.11306      46.7237      46.7237      46.7237           90           90           90     102002.7   -727.24029 
  515000       514496   -6841.9383    475.02174   -7316.9601    4204.4448   -11521.405    92.222193    -566.5992   -794.19694   -1019.5318    8.2311474   -97.058179     92.57669      46.7237      46.7237      46.7237           90           90           90     102002.7   -793.44263 
  516000       515496   -6843.6898    480.46805   -7324.1579    4212.4638   -11536.622    93.279556   -547.71355   -682.14064   -584.14062    175.08907   -67.667935      120.758      46.7237      46.7237      46.7237           90           90           90     102002.7   -604.66494 
  517000       516496   -6866.2945    466.59272   -7332.8872    4211.5364   -11544.424    90.585757   -720.98998   -697.64882   -923.22721   0.10098949   -1.0702604   -215.50758      46.7237      46.7237      46.7237           90           90           90     102002.7     -780.622 
  518000       517496   -6828.1848    482.45458   -7310.6393    4236.6853   -11547.325    93.665227   -440.82671   -770.90343   -801.51719   -92.096221    12.976671   -14.482636      46.7237      46.7237      46.7237           90           90           90     102002.7   -671.08244 
  519000       518496   -6870.5149    475.92736   -7346.4422    4195.5399   -11541.982    92.398013   -913.56251   -1002.5553   -816.27155    121.90409    24.608995    35.284249      46.7237      46.7237      46.7237           90           90           90     102002.7   -910.79645 
  520000       519496   -6854.1669    471.93785   -7326.1048    4218.1792   -11544.284    91.623477   -573.10539   -860.92749   -876.54035   -76.027467    269.32732    135.81964      46.7237      46.7237      46.7237           90           90           90     102002.7   -770.19108 
  521000       520496   -6871.1249    465.45806   -7336.5829     4209.881   -11546.464    90.365471   -546.99752   -980.39436   -303.20601    -77.62544   -42.063999   -111.52127      46.7237      46.7237      46.7237           90           90           90     102002.7    -610.1993 
  522000       521496   -6835.6886    469.85185   -7305.5405    4233.4622   -11539.003    91.218496   -1007.0599   -635.87907   -632.44069   -67.678881    8.7243342    127.25169      46.7237      46.7237      46.7237           90           90           90     102002.7   -758.45988 
  523000       522496   -6852.9185    468.67012   -7321.5886     4210.362   -11531.951     90.98907   -845.43578   -458.87643   -252.04303   -63.726202    103.29137    88.497829      46.7237      46.7237      46.7237           90           90           90     102002.7   -518.78508 
  524000       523496    -6847.141    464.87405   -7312.0151    4225.3547    -11537.37     90.25209   -715.83071   -717.01176   -685.51114    47.959415    76.024628   -235.38211      46.7237      46.7237      46.7237           90           90           90     102002.7   -706.11787 
  525000       524496   -6826.5277    481.57386   -7308.1015    4250.9175   -11559.019    93.494242   -613.11922    -610.2373   -603.33746   -30.219105   -96.182037    57.255475      46.7237      46.7237      46.7237           90           90           90     102002.7   -608.89799 
  526000       525496   -6858.6661    469.80824   -7328.4744    4215.1987   -11543.673    91.210028   -401.62254   -925.09524   -842.23915     163.4976    10.468407   -116.30378      46.7237      46.7237      46.7237           90           90           90     102002.7   -722.98564 
  527000       526496   -6805.9401    487.79895   -7293.7391    4246.3729   -11540.112      94.7028   -699.28279   -822.25409   -867.72419   -167.68984    9.4789541    81.962797      46.7237      46.7237      46.7237           90           90           90     102002.7   -796.42036 
  528000       527496   -6857.0754    476.19629   -7333.2717    4201.3501   -11534.622    92.450223   -520.12663   -733.41214   -803.18155    18.710836    147.54397   -129.16987      46.7237      46.7237      46.7237           90           90           90     102002.7   -685.57344 
  529000       528496   -6836.5785    476.76706   -7313.3455    4228.3901   -11541.736    92.561034    -842.4923   -850.86757   -1052.2337    17.738039    62.407685    65.830066      46.7237      46.7237      46.7237           90           90           90     102002.7   -915.19786 
  530000       529496   -6852.7158    471.89257   -7324.6084    4219.2956   -11543.904    91.614687    -788.5398     -549.263   -801.51379   -66.215783    80.966924    20.345255      46.7237      46.7237      46.7237           90           90           90     102002.7   -713.10553 
  531000       530496   -6884.5952    457.34828   -7341.9435    4192.9014   -11534.845    88.791013   -538.75714   -848.63089   -546.93799    135.25506    63.175101    -130.5375      46.7237      46.7237      46.7237           90           90           90     102002.7   -644.77534 
  532000       531496   -6851.5186    471.86309   -7323.3817    4211.7126   -11535.094    91.608963   -747.10439   -719.69599   -867.23014   -213.00381   -213.78551    45.086598      46.7237      46.7237      46.7237           90           90           90     102002.7   -778.01017 
  533000       532496   -6861.5706    468.62426   -7330.1948     4218.459   -11548.654    90.980167    -554.2926   -533.96924   -752.83832   -72.356944    86.659526    50.900231      46.7237      46.7237      46.7237           90           90           90     102002.7   -613.70005 
  534000       533496   -6847.5438    471.19107   -7318.7349    4219.7298   -11538.465    91.478495   -832.01765   -459.76218   -1014.6048    166.26166    39.188851    32.494039      46.7237      46.7237      46.7237           90           90           90     102002.7   -768.79486 
  535000       534496   -6864.5053    465.37396   -7329.8793    4198.2842   -11528.163    90.349143   -744.87201    -735.1997   -396.26983    35.944534   -136.09115    99.729526      46.7237      46.7237      46.7237           90           90           90     102002.7   -625.44718 
  536000       535496   -6870.9919    448.30214    -7319.294    4218.9057     -11538.2    87.034767   -653.41708   -889.45291   -609.27784    -61.54639   -21.963446   -30.317432      46.7237      46.7237      46.7237           90           90           90     102002.7   -717.38261 
  537000       536496   -6848.7157    470.38418   -7319.0998    4216.9163   -11536.016    91.321843   -425.97662   -1025.9168   -793.40851    83.355956    33.158142    180.93184      46.7237      46.7237      46.7237           90           90           90     102002.7   -748.43399 
  538000       537496   -6873.2268    457.56689   -7330.7937    4211.3176   -11542.111    88.833454   -965.40182   -798.69744   -739.97113   -32.949708    133.04993   -149.14467      46.7237      46.7237      46.7237           90           90           90     102002.7   -834.69013 
  539000       538496    -6862.901    468.38403    -7331.285    4206.9121   -11538.197    90.933528   -803.34073   -667.40104   -765.78026   -17.109836    197.56701   -28.790632      46.7237      46.7237      46.7237           90           90           90     102002.7   -745.50734 
  540000       539496   -6861.2983     466.8963   -7328.1946    4208.5573   -11536.752    90.644695   -632.25878   -530.88203   -735.41239    69.272595    237.77593    88.959799      46.7237      46.7237      46.7237           90           90           90     102002.7   -632.85106 
  541000       540496   -6833.6344    482.95896   -7316.5933    4233.8529   -11550.446    93.763149    -1035.898   -654.45904   -483.26407    135.84294    248.84288    93.050911      46.7237      46.7237      46.7237           90           90           90     102002.7   -724.54036 
  542000       541496     -6870.67    455.29002     -7325.96    4222.0662   -11548.026    88.391415   -656.22281   -646.28742   -624.02381    -192.5864   -22.027512    69.956623      46.7237      46.7237      46.7237           90           90           90     102002.7   -642.17802 
  543000       542496   -6868.5104    460.68101   -7329.1914    4205.4437   -11534.635     89.43804   -756.68626   -535.74222   -377.98798   -76.477387   -177.81218    204.61121      46.7237      46.7237      46.7237           90           90           90     102002.7   -556.80548 
  544000       543496   -6861.0242    471.37874    -7332.403    4201.6688   -11534.072    91.514931   -539.72335   -392.67695   -507.33588    189.34013    60.203841    345.81732      46.7237      46.7237      46.7237           90           90           90     102002.7   -479.91206 
  545000       544496   -6842.0637     481.0287   -7323.0924    4237.0302   -11560.123    93.388404    -895.6295   -1014.5818   -405.40821    137.64072   -30.179765    78.128686      46.7237      46.7237      46.7237           90           90           90     102002.7   -771.87318 
  546000       545496   -6834.5809    493.13742   -7327.7183    4208.8655   -11536.584    95.739228   -692.47932   -556.85598   -595.60356   -137.59914   -136.33565    45.075866      46.7237      46.7237      46.7237           90           90           90     102002.7   -614.97962 
  547000       546496   -6866.9172    459.87492   -7326.7921    4218.8443   -11545.636    89.281542   -857.52398   -923.24206   -807.65219   -227.04779   -157.42442   -34.767687      46.7237      46.7237      46.7237           90           90           90     102002.7   -862.80608 
  548000       547496   -6837.7009    474.49543   -7312.1963    4211.1333    -11523.33    92.120014   -600.47753   -1127.8315   -920.19168   -70.951841    77.402561   -117.31169      46.7237      46.7237      46.7237           90           90           90     102002.7   -882.83356 
  549000       548496    -6850.485    466.51144   -7316.9965    4220.0025   -11536.999    90.569977   -701.41991   -719.14791   -987.54092    49.267082    112.32722   -280.65167      46.7237      46.7237      46.7237           90           90           90     102002.7   -802.70291 
  550000       549496   -6840.6168     470.1826   -7310.7994    4225.6925   -11536.492    91.282707   -828.70507   -547.40153   -700.36681   -130.58275    -93.04081     159.0431      46.7237      46.7237      46.7237           90           90           90     102002.7    -692.1578 
  551000       550496   -6875.1808    453.07828   -7328.2591    4191.2236   -11519.483    87.962023   -479.76378   -602.02552   -521.56491   -189.07467    -39.97553    45.361693      46.7237      46.7237      46.7237           90           90           90     102002.7    -534.4514 
  552000       551496   -6851.8791      477.985   -7329.8641    4193.6889   -11523.553     92.79749   -324.16322   -616.87606   -228.83177    -30.54673    49.214394    113.46012      46.7237      46.7237      46.7237           90           90           90     102002.7   -389.95701 
  553000       552496   -6898.2508    443.66319    -7341.914    4203.7487   -11545.663    86.134148   -291.68455   -475.84582   -844.36298    62.736582    116.93189    47.324806      46.7237      46.7237      46.7237           90           90           90     102002.7   -537.29778 
  554000       553496     -6822.32    484.61536   -7306.9354    4230.2057   -11537.141    94.084729   -387.83084   -1085.3093   -451.11441    153.53926    120.68747   -23.685282      46.7237      46.7237      46.7237           90           90           90     102002.7   -641.41819 
  555000       554496   -6856.5343    465.39399   -7321.9283     4207.715   -11529.643    90.353032   -527.64982    -463.9103   -749.54306   -53.173243   -155.32014     96.99541      46.7237      46.7237      46.7237           90           90           90     102002.7   -580.36772 
[...]
  936000       935496   -6851.8975    474.08314   -7325.9807    4212.4756   -11538.456    92.039971   -459.51255   -1132.6896    -295.4926    -109.9691    30.073351   -50.719782      46.7237      46.7237      46.7237           90           90           90     102002.7   -629.23157 
  937000       936496   -6862.3731    465.46755   -7327.8407    4222.3736   -11550.214    90.367314   -1031.7754   -375.71757   -856.61213   0.25548981    172.93905   -79.820609      46.7237      46.7237      46.7237           90           90           90     102002.7   -754.70171 
  938000       937496   -6861.0506    456.28698   -7317.3375    4221.6903   -11539.028     88.58497   -430.00884   -1227.8998   -522.50656    16.680488   -38.108092    166.43007      46.7237      46.7237      46.7237           90           90           90     102002.7   -726.80506 
  939000       938496   -6863.4864    474.25119   -7337.7376    4192.6526    -11530.39    92.072597   -689.24561   -562.72423   -114.65414  -0.45592609   -34.989275   -360.40998      46.7237      46.7237      46.7237           90           90           90     102002.7   -455.54133 
  940000       939496   -6853.7389      472.311   -7326.0499    4224.1947   -11550.245    91.695923   -894.21202   -757.18863   -459.44391    17.788359   -14.597629   -149.12878      46.7237      46.7237      46.7237           90           90           90     102002.7   -703.61485 
  941000       940496   -6865.1453    476.26779   -7341.4131    4190.8931   -11532.306    92.464105   -609.41703   -746.61692   -839.39017   -103.89661   -227.77723   -116.35819      46.7237      46.7237      46.7237           90           90           90     102002.7   -731.80804 
  942000       941496   -6879.2111    460.15763   -7339.3688    4193.3777   -11532.746     89.33643   -707.81556   -1149.1693   -940.21261   -135.56831   -67.260098    -167.9685      46.7237      46.7237      46.7237           90           90           90     102002.7   -932.39915 
  943000       942496   -6850.3108    478.73196   -7329.0427    4197.6132   -11526.656    92.942507   -783.75994   -656.97358   -751.44082   -148.89426    86.005542    27.182457      46.7237      46.7237      46.7237           90           90           90     102002.7   -730.72478 
  944000       943496   -6860.0255    470.60424   -7330.6297    4208.0601    -11538.69    91.364566   -623.64564    -972.9953   -923.36402   -23.306269   -78.171594    170.89099      46.7237      46.7237      46.7237           90           90           90     102002.7   -840.00165 
  945000       944496   -6846.9984    474.59195   -7321.5904    4206.3242   -11527.915    92.138752   -722.36089    -755.9426   -229.83498   -36.550384    115.94829     49.55526      46.7237      46.7237      46.7237           90           90           90     102002.7   -569.37949 
  946000       945496   -6857.8204    473.48606   -7331.3064    4212.3031    -11543.61    91.924052   -660.57911   -876.14351   -446.23835    122.68745    42.106987   -72.820355      46.7237      46.7237      46.7237           90           90           90     102002.7   -660.98699 
  947000       946496   -6855.0902    477.20906   -7332.2993    4200.1554   -11532.455    92.646846   -688.19467   -818.89072   -706.06101   -56.865085    -71.05302   -70.825105      46.7237      46.7237      46.7237           90           90           90     102002.7   -737.71547 
  948000       947496   -6835.7035    472.51227   -7308.2158    4243.4026   -11551.618    91.734997   -779.73126   -679.08883   -730.20458   -116.99666   -154.78085   -216.66653      46.7237      46.7237      46.7237           90           90           90     102002.7   -729.67489 
  949000       948496      -6863.9    476.18625   -7340.0862     4196.799   -11536.885    92.448275   -406.07522   -757.66271    18.998275    269.39666   -255.78151   -26.390243      46.7237      46.7237      46.7237           90           90           90     102002.7   -381.57989 
  950000       949496     -6872.61     465.2294   -7337.8394    4216.5199   -11554.359    90.321078   -884.37111   -771.30527   -290.68986   -62.562697   -60.750374   -74.154865      46.7237      46.7237      46.7237           90           90           90     102002.7   -648.78875 
  951000       950496   -6841.3544    487.07813   -7328.4325    4202.8617   -11531.294    94.562857   -457.28813   -581.51239    -574.6758   -20.921184    130.06096   -114.40944      46.7237      46.7237      46.7237           90           90           90     102002.7   -537.82544 
  952000       951496   -6859.9891    473.52132   -7333.5104    4210.4851   -11543.996    91.930897   -528.94947   -736.31112   -741.07775   -8.4791245    34.469659    162.83595      46.7237      46.7237      46.7237           90           90           90     102002.7   -668.77944 
  953000       952496   -6847.3872    470.56795   -7317.9552    4226.2157   -11544.171    91.357521   -399.59302   -462.40492   -510.53528    41.559036    -41.32722    136.82264      46.7237      46.7237      46.7237           90           90           90     102002.7   -457.51107 
  954000       953496   -6885.9659    452.85693   -7338.8228    4205.8872    -11544.71    87.919048    -179.6915   -788.33286    -243.7379    80.886327   -91.369734   -71.991843      46.7237      46.7237      46.7237           90           90           90     102002.7   -403.92075 
  955000       954496   -6846.9051    473.33696   -7320.2421    4219.4334   -11539.675    91.895104   -533.89017   -899.48186   -942.67988   -127.23528   -66.818024    201.01126      46.7237      46.7237      46.7237           90           90           90     102002.7    -792.0173 
  956000       955496   -6825.5599    486.34256   -7311.9024    4233.0097   -11544.912    94.420052   -792.50622   -1025.3072   -435.02408    101.08223   -176.69699   -85.430605      46.7237      46.7237      46.7237           90           90           90     102002.7   -750.94584 
  957000       956496   -6860.3202    462.67159   -7322.9918     4212.216   -11535.208    89.824496   -591.63272   -773.68301   -508.34585   -53.883445   -152.66385    -11.29742      46.7237      46.7237      46.7237           90           90           90     102002.7   -624.55386 
  958000       957496   -6848.6019     474.3152   -7322.9171    4216.1917   -11539.109    92.085023   -1285.1249   -600.73254   -688.53538    176.31753    108.70607    58.616466      46.7237      46.7237      46.7237           90           90           90     102002.7   -858.13093 
  959000       958496   -6876.3993    457.81133   -7334.2106     4203.586   -11537.797    88.880911   -1030.6894   -451.78668   -410.20782   -17.618547    61.042293    164.64202      46.7237      46.7237      46.7237           90           90           90     102002.7   -630.89463 
  960000       959496   -6856.3908    466.95194   -7323.3428    4231.7077   -11555.051    90.655497   -540.43196   -746.89456   -985.51017   -84.321911     9.156539    181.26693      46.7237      46.7237      46.7237           90           90           90     102002.7   -757.61223 
  961000       960496    -6857.629    462.74621   -7320.3752    4212.5156   -11532.891    89.838983   -827.43356   -746.29409   -671.86483    45.865659   -88.586775   -42.624664      46.7237      46.7237      46.7237           90           90           90     102002.7   -748.53083 
  962000       961496   -6853.2463    464.28248   -7317.5288    4221.4827   -11539.011     90.13724   -895.89264   -808.74916   -971.26383   -13.865186   -73.006228    123.47885      46.7237      46.7237      46.7237           90           90           90     102002.7   -891.96854 
  963000       962496   -6844.8271    471.00054   -7315.8277    4235.3849   -11551.213    91.441505   -1039.4776   -1097.1241   -765.28423   -35.218861    -49.02868   -28.273786      46.7237      46.7237      46.7237           90           90           90     102002.7   -967.29531 
  964000       963496   -6862.5203    471.40538   -7333.9257    4220.2775   -11554.203    91.520102   -922.17342   -807.40146   -811.42263   -99.784903   -18.790436   -195.28687      46.7237      46.7237      46.7237           90           90           90     102002.7   -846.99917 
  965000       964496   -6850.4063    470.32749   -7320.7338    4212.5506   -11533.284    91.310838   -339.83867   -730.69756   -581.21516     -129.029   -125.56694    131.73355      46.7237      46.7237      46.7237           90           90           90     102002.7    -550.5838 
  966000       965496   -6861.2062    469.26321   -7330.4694    4218.6707    -11549.14    91.104215   -815.94816   -882.16527   -776.74326   -119.09211   -143.32101   -46.732993      46.7237      46.7237      46.7237           90           90           90     102002.7   -824.95223 
  967000       966496   -6844.0521    467.65338   -7311.7055    4220.6832   -11532.389    90.791677   -194.73079   -424.13185   -617.07608    65.918246    55.609887   -58.414636      46.7237      46.7237      46.7237           90           90           90     102002.7   -411.97957 
  968000       967496   -6858.0816    467.90368   -7325.9853    4218.2139   -11544.199     90.84027   -441.71701   -557.64747   -434.33043    118.98319   -189.94164   -95.437685      46.7237      46.7237      46.7237           90           90           90     102002.7    -477.8983 
  969000       968496   -6872.2038    458.55723   -7330.7611    4199.8245   -11530.586    89.025721   -548.65911   -884.54541   -611.88708  -0.89531209    399.33027    23.989627      46.7237      46.7237      46.7237           90           90           90     102002.7    -681.6972 
  970000       969496   -6841.4192    469.88153   -7311.3008    4229.7914   -11541.092    91.224258    -316.1962   -655.40862   -868.00246    135.65477   -5.5743808    126.95309      46.7237      46.7237      46.7237           90           90           90     102002.7   -613.20243 
  971000       970496   -6853.2201    463.41957   -7316.6397    4222.1203    -11538.76    89.969713   -722.73712   -942.95653   -1104.0782     92.55267   -136.46035   -37.632264      46.7237      46.7237      46.7237           90           90           90     102002.7   -923.25727 
  972000       971496   -6846.5453    467.94198   -7314.4873     4216.147   -11530.634    90.847707   -490.10392   -1146.0085   -643.23892    40.987866    25.641383   -219.31897      46.7237      46.7237      46.7237           90           90           90     102002.7   -759.78377 
  973000       972496   -6839.8616    474.11295   -7313.9746    4235.7822   -11549.757    92.045758   -777.08887   -586.73226   -557.29078   -246.50188   -129.74171    37.565903      46.7237      46.7237      46.7237           90           90           90     102002.7   -640.37063 
  974000       973496   -6843.3237    480.58533    -7323.909    4198.4457   -11522.355    93.302327   -352.54589   -449.28681   -664.09992   -17.574212    39.559795    188.83135      46.7237      46.7237      46.7237           90           90           90     102002.7   -488.64421 
  975000       974496   -6845.1837    467.99131   -7313.1751     4221.429   -11534.604    90.857284   -659.57244   -260.55444   -701.48286   -195.64556    82.195532    44.608208      46.7237      46.7237      46.7237           90           90           90     102002.7   -540.53658 
  976000       975496   -6873.6014    450.78953   -7324.3909    4213.6801   -11538.071    87.517677   -508.74727   -719.61431    -543.5355   -144.89294    110.37331    -7.268618      46.7237      46.7237      46.7237           90           90           90     102002.7   -590.63236 
  977000       976496   -6845.0792     481.5653   -7326.6445    4224.8772   -11551.522     93.49258   -391.74773   -580.69676   -982.39486   -64.005737    74.285465    130.98266      46.7237      46.7237      46.7237           90           90           90     102002.7   -651.61312 
  978000       977496   -6866.1467    464.91715   -7331.0639    4193.5052   -11524.569    90.260456   -854.79854   -765.45421   -115.63149   -6.0977669   -56.276821 -0.079828713      46.7237      46.7237      46.7237           90           90           90     102002.7   -578.62808 
  979000       978496   -6845.0743    474.46439   -7319.5387    4236.1118    -11555.65    92.113988   -436.32848   -528.36639   -570.82121     12.59367   -41.543756    217.43672      46.7237      46.7237      46.7237           90           90           90     102002.7   -511.83869 
  980000       979496   -6884.3909    452.30671   -7336.6976    4198.7336   -11535.431    87.812227   -518.80009   -563.81072   -936.61789   -30.756991    268.66436    -239.9681      46.7237      46.7237      46.7237           90           90           90     102002.7   -673.07623 
  981000       980496   -6850.0748     480.2166   -7330.2914     4222.322   -11552.613     93.23074   -519.57198    -541.9232   -473.09145    64.196991    55.601416    46.952223      46.7237      46.7237      46.7237           90           90           90     102002.7   -511.52888 
  982000       981496   -6851.5333    469.18599   -7320.7193    4212.7977   -11533.517    91.089223   -438.54585   -484.63382   -230.24869    196.91613   -14.507769   -156.45935      46.7237      46.7237      46.7237           90           90           90     102002.7   -384.47612 
  983000       982496   -6879.5031    462.83922   -7342.3423    4188.0762   -11530.419    89.857041   -139.13755   -546.39894   -630.77775    178.21726    28.398583   -15.397628      46.7237      46.7237      46.7237           90           90           90     102002.7   -438.77141 
  984000       983496   -6856.8182    466.69165   -7323.5098    4225.2926   -11548.802    90.604963   -1147.0337   -316.00269   -459.46199    -44.26922   -171.32455    99.218093      46.7237      46.7237      46.7237           90           90           90     102002.7   -640.83278 
  985000       984496   -6827.8451    480.42353   -7308.2686    4226.5762   -11534.845    93.270914   -756.86274   -386.96386   -712.58434   -42.807892   -56.045529    -17.05374      46.7237      46.7237      46.7237           90           90           90     102002.7   -618.80365 
  986000       985496   -6853.9685    471.98666   -7325.9551    4213.6121   -11539.567    91.632954   -844.18087   -823.50485   -488.55181    40.557152    55.053883   -175.98585      46.7237      46.7237      46.7237           90           90           90     102002.7   -718.74584 
  987000       986496   -6866.5931    452.29956   -7318.8926    4217.5906   -11536.483    87.810839   -1070.4195   -753.75861   -857.73483    126.42326   -93.534187    100.92265      46.7237      46.7237      46.7237           90           90           90     102002.7   -893.97098 
  988000       987496   -6859.8478    471.04789   -7330.8957    4205.5743    -11536.47    91.450697   -685.63218   -786.73207    -719.2134    176.10491    -63.71288   -61.964067      46.7237      46.7237      46.7237           90           90           90     102002.7   -730.52588 
  989000       988496    -6853.293    467.62449   -7320.9175    4211.0509   -11531.968    90.786069   -185.86281   -712.77463   -687.83658   -87.598319    67.071491    40.291719      46.7237      46.7237      46.7237           90           90           90     102002.7   -528.82467 
  990000       989496   -6868.8796    467.95818   -7336.8378    4198.9137   -11535.752    90.850852   -1022.6546   -636.39186   -656.35488    113.33406    -50.31272    26.493995      46.7237      46.7237      46.7237           90           90           90     102002.7   -771.80045 
  991000       990496    -6851.732    470.73063   -7322.4626    4218.5708   -11541.033    91.389104   -318.53392   -679.18664   -701.07324   -18.020883   -135.13664    36.905602      46.7237      46.7237      46.7237           90           90           90     102002.7    -566.2646 
  992000       991496   -6873.0875    465.04543   -7338.1329    4192.2527   -11530.386    90.285361   -485.49517   -358.88929   -575.16474    -14.81676     135.2131     256.4098      46.7237      46.7237      46.7237           90           90           90     102002.7   -473.18307 
  993000       992496   -6865.4883    465.06144   -7330.5498    4219.3189   -11549.869    90.288471   -757.43278   -530.86812    -467.0371    47.358903    179.78597    61.460497      46.7237      46.7237      46.7237           90           90           90     102002.7   -585.11267 
  994000       993496   -6858.4413    482.12066   -7340.5619    4199.5236   -11540.086      93.6004   -448.62226   -483.35052   -525.74195    -75.00832   -59.019831    104.55603      46.7237      46.7237      46.7237           90           90           90     102002.7   -485.90491 
  995000       994496   -6857.6853    468.12154   -7325.8068    4204.5502   -11530.357    90.882566   -424.80875   -766.92918   -965.34688    155.30784    93.341748   -58.313343      46.7237      46.7237      46.7237           90           90           90     102002.7   -719.02827 
  996000       995496   -6871.2634    449.88073   -7321.1441     4226.075   -11547.219    87.341239   -620.08412   -640.57084   -591.44126   -72.571001    106.86831    94.106648      46.7237      46.7237      46.7237           90           90           90     102002.7   -617.36541 
  997000       996496   -6844.9446    463.01388   -7307.9585    4228.6015    -11536.56     89.89095   -444.24798   -361.97731   -859.46939    126.12366    103.80778    71.690855      46.7237      46.7237      46.7237           90           90           90     102002.7   -555.23156 
  998000       997496   -6847.6599    485.98385   -7333.6437    4200.4922   -11534.136     94.35041   -463.86407   -1053.6583   -775.17217    20.557952    219.57478    144.71444      46.7237      46.7237      46.7237           90           90           90     102002.7   -764.23151 
  999000       998496   -6865.2273    456.42707   -7321.6544    4219.0357    -11540.69    88.612166   -722.71342   -921.63305   -973.87345   -227.78778    190.48215    71.865832      46.7237      46.7237      46.7237           90           90           90     102002.7   -872.73997 
 1000000       999496   -6841.4929    489.89997   -7331.3928    4201.6949   -11533.088    95.110698   -646.16381   -848.41788   -773.34187   -177.63824     117.4835    111.20213      46.7237      46.7237      46.7237           90           90           90     102002.7   -755.97452 
 1000504      1000000   -6843.0174    483.07964   -7326.0971    4220.0358   -11546.133    93.786579   -440.24432   -528.23159   -602.14222   -235.88135    160.01677    64.574711      46.7237      46.7237      46.7237           90           90           90     102002.7   -523.53938 
Loop time of 1434.27 on 16 procs for 500000 steps with 1729 atoms

Performance: 30.120 ns/day, 0.797 hours/ns, 348.609 timesteps/s
99.9% CPU use with 16 MPI tasks x no OpenMP threads

MPI task timing breakdown:
Section |  min time  |  avg time  |  max time  |%varavg| %total
---------------------------------------------------------------
Pair    | 578.11     | 767.69     | 977.67     | 486.4 | 53.52
Bond    | 177.53     | 183.29     | 192.01     |  32.9 | 12.78
Neigh   | 2.5275     | 2.5495     | 2.5818     |   1.2 |  0.18
Comm    | 241.44     | 453.56     | 639.93     | 632.3 | 31.62
Output  | 0.096888   | 0.10232    | 0.10275    |   0.4 |  0.01
Modify  | 21.125     | 21.735     | 22.049     |   5.7 |  1.52
Other   |            | 5.35       |            |       |  0.37

Nlocal:    108.062 ave 138 max 91 min
Histogram: 1 1 6 1 5 0 1 0 0 1
Nghost:    2195.06 ave 2206 max 2171 min
Histogram: 1 1 0 0 1 1 1 5 2 4
Neighs:    11450.6 ave 18246 max 6383 min
Histogram: 1 2 3 3 0 3 2 1 0 1

Total # of neighbors = 183209
Ave neighs/atom = 105.962
Ave special neighs/atom = 6.66281
Neighbor list builds = 2228
Dangerous builds = 0
Total wall time: 0:45:12
