LAMMPS (30 Mar 2018)
Reading data file ...
  orthogonal box = (0 0 0) to (46.7237 46.7237 46.7237)
  2 by 3 by 4 MPI processor grid
  reading atoms ...
  2091 atoms
  scanning bonds ...
  5 = max bonds/atom
  scanning angles ...
  10 = max angles/atom
  scanning dihedrals ...
  32 = max dihedrals/atom
  scanning impropers ...
  3 = max impropers/atom
  reading bonds ...
  2064 bonds
  reading angles ...
  3696 angles
  reading dihedrals ...
  6240 dihedrals
  reading impropers ...
  1008 impropers
Finding 1-2 1-3 1-4 neighbors ...
  special bond factors lj:   0          0          0         
  special bond factors coul: 0          0          0         
  5 = max # of 1-2 neighbors
  8 = max # of 1-3 neighbors
  20 = max # of 1-4 neighbors
  19 = max # of special neighbors
Finding 1-2 1-3 1-4 neighbors ...
  special bond factors lj:   0          0          1         
  special bond factors coul: 1          1          1         
  5 = max # of 1-2 neighbors
  8 = max # of 1-3 neighbors
  19 = max # of special neighbors
WARNING: Using 'neigh_modify every 1 delay 0 check yes' setting during minimization (../min.cpp:168)
Neighbor list info ...
  update every 1 steps, delay 0 steps, check yes
  max neighbors/atom: 2000, page size: 100000
  master list distance cutoff = 16
  ghost atom cutoff = 16
  binsize = 8, bins = 6 6 6
  3 neighbor lists, perpetual/occasional/extra = 3 0 0
  (1) pair buck6d/coul/gauss/dsf, perpetual, skip from (3)
      attributes: half, newton on
      pair build: skip
      stencil: none
      bin: none
  (2) pair lj/cut, perpetual, skip from (3)
      attributes: half, newton on
      pair build: skip
      stencil: none
      bin: none
  (3) neighbor class addition, perpetual
      attributes: half, newton on
      pair build: half/bin/newton
      stencil: half/bin/3d/newton
      bin: standard
Setting up cg style minimization ...
  Unit style    : real
  Current step  : 0
WARNING: Inconsistent image flags (../domain.cpp:786)
Per MPI rank memory allocation (min/avg/max) = 22.89 | 23.3 | 24.44 Mbytes
Step Temp E_pair E_mol TotEng Press 
       0            0   -12607.923    6482.8914   -6125.0316    6094.0384 
     501            0   -12770.328    3737.1939   -9033.1342   -718.59124 
Loop time of 1.47088 on 24 procs for 501 steps with 2091 atoms

99.4% CPU use with 24 MPI tasks x no OpenMP threads

Minimization stats:
  Stopping criterion = max force evaluations
  Energy initial, next-to-last, final = 
        -6125.03160508      -9033.0798203     -9033.13420517
  Force two-norm initial, final = 2574.61 10.9609
  Force max component initial, final = 152.009 1.24667
  Final line search alpha, max atom move = 0.00277708 0.00346211
  Iterations, force evaluations = 501 1001

MPI task timing breakdown:
Section |  min time  |  avg time  |  max time  |%varavg| %total
---------------------------------------------------------------
Pair    | 0.47467    | 0.70786    | 0.98436    |  16.1 | 48.12
Bond    | 0.12811    | 0.15772    | 0.1901     |   4.9 | 10.72
Neigh   | 0.011558   | 0.012062   | 0.01256    |   0.4 |  0.82
Comm    | 0.23099    | 0.53387    | 0.79249    |  19.5 | 36.30
Output  | 0          | 0          | 0          |   0.0 |  0.00
Modify  | 0          | 0          | 0          |   0.0 |  0.00
Other   |            | 0.05936    |            |       |  4.04

Nlocal:    87.125 ave 98 max 63 min
Histogram: 1 0 1 1 0 3 7 1 4 6
Nghost:    2319.92 ave 2496 max 2229 min
Histogram: 15 1 0 0 0 0 0 0 0 8
Neighs:    7634.67 ave 10553 max 5046 min
Histogram: 3 2 5 3 3 0 0 2 1 5

Total # of neighbors = 183232
Ave neighs/atom = 87.6289
Ave special neighs/atom = 5.50933
Neighbor list builds = 14
Dangerous builds = 0
Neighbor list info ...
  update every 1 steps, delay 10 steps, check yes
  max neighbors/atom: 2000, page size: 100000
  master list distance cutoff = 16
  ghost atom cutoff = 16
  binsize = 8, bins = 6 6 6
  3 neighbor lists, perpetual/occasional/extra = 3 0 0
  (1) pair buck6d/coul/gauss/dsf, perpetual, skip from (3)
      attributes: half, newton on
      pair build: skip
      stencil: none
      bin: none
  (2) pair lj/cut, perpetual, skip from (3)
      attributes: half, newton on
      pair build: skip
      stencil: none
      bin: none
  (3) neighbor class addition, perpetual
      attributes: half, newton on
      pair build: half/bin/newton
      stencil: half/bin/3d/newton
      bin: standard
Setting up Verlet run ...
  Unit style    : real
  Current step  : 501
  Time step     : 1
WARNING: Inconsistent image flags (../domain.cpp:786)
Per MPI rank memory allocation (min/avg/max) = 22.54 | 22.71 | 23.32 Mbytes
Step Temp PotEng TotEng Press Volume Lx Ly Lz 
     501          110   -9033.1342    -8347.846    -411.4809     102002.7      46.7237      46.7237      46.7237 
    1000    92.783729   -8415.1245   -7837.0917   -656.62071     102002.7      46.7237      46.7237      46.7237 
    2000     115.8023   -8337.1877   -7615.7518   -876.71578     102002.7      46.7237      46.7237      46.7237 
    3000    108.80638   -8292.0292   -7614.1771   -1126.4037     102002.7      46.7237      46.7237      46.7237 
    4000    106.92191   -8287.0523   -7620.9403    -1014.248     102002.7      46.7237      46.7237      46.7237 
    5000       111.49   -8324.4579   -7629.8871   -1110.9855     102002.7      46.7237      46.7237      46.7237 
    6000    110.27647    -8301.031   -7614.0204   -855.76079     102002.7      46.7237      46.7237      46.7237 
    7000     110.1504   -8302.2879   -7616.0627    -892.2598     102002.7      46.7237      46.7237      46.7237 
    8000    111.85642   -8318.7304   -7621.8768   -825.76872     102002.7      46.7237      46.7237      46.7237 
    9000    110.16559    -8343.811   -7657.4912   -763.84998     102002.7      46.7237      46.7237      46.7237 
   10000     110.6657   -8307.9776   -7618.5421   -790.77193     102002.7      46.7237      46.7237      46.7237 
   11000    111.56867   -8293.9992   -7598.9383   -658.21631     102002.7      46.7237      46.7237      46.7237 
   12000    112.68557   -8330.8307   -7628.8117   -783.15444     102002.7      46.7237      46.7237      46.7237 
   13000    111.97227   -8297.7984   -7600.2231     -746.557     102002.7      46.7237      46.7237      46.7237 
   14000    110.30946   -8320.3047   -7633.0885   -780.03549     102002.7      46.7237      46.7237      46.7237 
   15000    104.87583   -8314.4231   -7661.0579    -625.7553     102002.7      46.7237      46.7237      46.7237 
   16000    113.58333   -8335.4475   -7627.8355   -616.24551     102002.7      46.7237      46.7237      46.7237 
   17000    106.69172   -8295.5857   -7630.9077   -887.10471     102002.7      46.7237      46.7237      46.7237 
   18000    107.10305   -8325.6026   -7658.3621   -788.61353     102002.7      46.7237      46.7237      46.7237 
   19000    109.11296   -8316.7664   -7637.0043   -540.64147     102002.7      46.7237      46.7237      46.7237 
   20000    110.31559   -8337.0746   -7649.8202   -836.18908     102002.7      46.7237      46.7237      46.7237 
   21000    108.95597   -8308.1441     -7629.36   -687.49461     102002.7      46.7237      46.7237      46.7237 
   22000    114.29086   -8338.8399   -7626.8201   -999.57053     102002.7      46.7237      46.7237      46.7237 
   23000    108.85411   -8336.4075    -7658.258    -883.8984     102002.7      46.7237      46.7237      46.7237 
   24000    112.42813   -8318.8463   -7618.4311   -876.66289     102002.7      46.7237      46.7237      46.7237 
   25000    110.11005   -8296.2613   -7610.2874   -919.49505     102002.7      46.7237      46.7237      46.7237 
   26000    111.06728   -8314.2558   -7622.3185   -709.92844     102002.7      46.7237      46.7237      46.7237 
   27000    111.08773   -8299.2749   -7607.2102   -1122.1309     102002.7      46.7237      46.7237      46.7237 
   28000    110.28653   -8310.4324   -7623.3591   -1247.8987     102002.7      46.7237      46.7237      46.7237 
   29000    108.13328   -8311.8024   -7638.1437   -1115.7058     102002.7      46.7237      46.7237      46.7237 
   30000    110.03217   -8310.4959   -7625.0073   -1045.2051     102002.7      46.7237      46.7237      46.7237 
   31000    110.13951   -8316.5652   -7630.4078   -1024.9949     102002.7      46.7237      46.7237      46.7237 
   32000      109.566   -8295.1413   -7612.5568   -1185.6636     102002.7      46.7237      46.7237      46.7237 
   33000    108.38224   -8316.6695   -7641.4597   -1040.3711     102002.7      46.7237      46.7237      46.7237 
   34000    108.87297   -8304.9413   -7626.6744    -843.0445     102002.7      46.7237      46.7237      46.7237 
   35000    106.34541   -8331.9411   -7669.4205   -779.89916     102002.7      46.7237      46.7237      46.7237 
   36000    110.13153   -8318.1415   -7632.0339   -606.63299     102002.7      46.7237      46.7237      46.7237 
   37000    112.32148   -8317.5125   -7617.7618   -638.40361     102002.7      46.7237      46.7237      46.7237 
   38000    110.69382   -8339.2833   -7649.6727   -653.77894     102002.7      46.7237      46.7237      46.7237 
   39000    108.29997   -8294.4389   -7619.7417   -673.59443     102002.7      46.7237      46.7237      46.7237 
   40000     112.0827   -8321.8499   -7623.5867   -617.82193     102002.7      46.7237      46.7237      46.7237 
   41000    109.73469   -8334.4792   -7650.8438   -925.39896     102002.7      46.7237      46.7237      46.7237 
   42000    112.96761   -8333.5772   -7629.8011   -511.29928     102002.7      46.7237      46.7237      46.7237 
   43000    110.99651   -8325.5711   -7634.0748   -981.96386     102002.7      46.7237      46.7237      46.7237 
   44000    109.60771   -8307.0667   -7624.2224   -630.06201     102002.7      46.7237      46.7237      46.7237 
   45000    106.13474   -8298.6034   -7637.3954   -900.22773     102002.7      46.7237      46.7237      46.7237 
   46000    112.29517   -8313.4703   -7613.8835   -951.55011     102002.7      46.7237      46.7237      46.7237 
   47000    109.80073   -8341.3484   -7657.3016   -654.53447     102002.7      46.7237      46.7237      46.7237 
   48000    109.04891   -8319.3088   -7639.9458   -764.01573     102002.7      46.7237      46.7237      46.7237 
   49000    110.12374   -8314.6239   -7628.5647     -703.456     102002.7      46.7237      46.7237      46.7237 
   50000    110.51441   -8318.3628   -7629.8699   -357.39466     102002.7      46.7237      46.7237      46.7237 
   51000    108.81236     -8306.38   -7628.4906   -870.32243     102002.7      46.7237      46.7237      46.7237 
   52000    108.67265   -8324.0599   -7647.0409   -681.08991     102002.7      46.7237      46.7237      46.7237 
   53000    109.78178   -8300.0117   -7616.0829   -1145.2796     102002.7      46.7237      46.7237      46.7237 
   54000    112.61874   -8316.6721   -7615.0694   -688.85553     102002.7      46.7237      46.7237      46.7237 
   55000    111.17504   -8285.6064   -7592.9978   -794.18193     102002.7      46.7237      46.7237      46.7237 
   56000    108.46293   -8311.0325     -7635.32   -858.64546     102002.7      46.7237      46.7237      46.7237 
   57000    109.13863   -8305.8769    -7625.955   -850.09569     102002.7      46.7237      46.7237      46.7237 
   58000    109.07333   -8319.9633   -7640.4481   -961.74733     102002.7      46.7237      46.7237      46.7237 
   59000    108.59804   -8300.5686   -7624.0144   -702.98395     102002.7      46.7237      46.7237      46.7237 
   60000    109.88324   -8285.0757   -7600.5149   -1043.4338     102002.7      46.7237      46.7237      46.7237 
   61000    109.40282    -8313.389   -7631.8211   -972.40535     102002.7      46.7237      46.7237      46.7237 
   62000    113.79817   -8287.2687   -7578.3183   -537.22797     102002.7      46.7237      46.7237      46.7237 
   63000    109.46584   -8310.1572   -7628.1967   -866.26593     102002.7      46.7237      46.7237      46.7237 
   64000    112.11897   -8312.4705   -7613.9813   -713.91694     102002.7      46.7237      46.7237      46.7237 
   65000    108.74231   -8309.9868   -7632.5338   -812.81445     102002.7      46.7237      46.7237      46.7237 
   66000    110.77206   -8309.2678   -7619.1697   -817.13581     102002.7      46.7237      46.7237      46.7237 
   67000    111.06693    -8287.405   -7595.4699   -565.27245     102002.7      46.7237      46.7237      46.7237 
   68000    105.45577   -8299.1351   -7642.1569   -960.76359     102002.7      46.7237      46.7237      46.7237 
   69000    112.04487   -8294.7293   -7596.7018   -846.46087     102002.7      46.7237      46.7237      46.7237 
   70000     109.8539   -8275.0664   -7590.6884   -859.07445     102002.7      46.7237      46.7237      46.7237 
   71000    109.83411   -8283.2183   -7598.9636   -1028.2964     102002.7      46.7237      46.7237      46.7237 
   72000    109.83083    -8332.693   -7648.4586   -1002.4743     102002.7      46.7237      46.7237      46.7237 
   73000    109.94499   -8284.3171   -7599.3716   -865.65574     102002.7      46.7237      46.7237      46.7237 
   74000    107.82994   -8309.7676   -7637.9986   -1054.5318     102002.7      46.7237      46.7237      46.7237 
   75000    110.80327   -8299.9487   -7609.6562     -803.988     102002.7      46.7237      46.7237      46.7237 
   76000    109.98178     -8292.62   -7607.4452   -766.93823     102002.7      46.7237      46.7237      46.7237 
   77000     108.0818   -8326.8533   -7653.5152   -940.97802     102002.7      46.7237      46.7237      46.7237 
   78000    111.86858   -8303.5149   -7606.5857       -682.8     102002.7      46.7237      46.7237      46.7237 
   79000    108.00846    -8316.634   -7643.7529   -1024.8209     102002.7      46.7237      46.7237      46.7237 
   80000    111.95066   -8311.2208   -7613.7802   -827.29826     102002.7      46.7237      46.7237      46.7237 
   81000    112.08374   -8281.5525   -7583.2828   -955.02362     102002.7      46.7237      46.7237      46.7237 
   82000    110.59157   -8299.4787   -7610.5051   -1166.3273     102002.7      46.7237      46.7237      46.7237 
   83000     107.3786   -8298.3221   -7629.3649   -761.50561     102002.7      46.7237      46.7237      46.7237 
   84000    110.67016   -8310.3438   -7620.8806   -1132.0831     102002.7      46.7237      46.7237      46.7237 
   85000    108.24914   -8299.1316    -7624.751   -1022.6974     102002.7      46.7237      46.7237      46.7237 
   86000    112.60802   -8280.1318   -7578.5958   -847.56476     102002.7      46.7237      46.7237      46.7237 
   87000    108.03886   -8309.9166   -7636.8461   -704.25768     102002.7      46.7237      46.7237      46.7237 
   88000    110.47278   -8306.9908   -7618.7572   -849.39131     102002.7      46.7237      46.7237      46.7237 
   89000    109.29232   -8317.7702   -7636.8907   -804.17074     102002.7      46.7237      46.7237      46.7237 
   90000    113.63923   -8310.0054   -7602.0452   -757.41696     102002.7      46.7237      46.7237      46.7237 
   91000    110.10357   -8307.3218   -7621.3883   -854.22343     102002.7      46.7237      46.7237      46.7237 
   92000    112.68479   -8295.4661    -7593.452   -818.08053     102002.7      46.7237      46.7237      46.7237 
   93000    109.87891   -8307.9183   -7623.3845   -679.18049     102002.7      46.7237      46.7237      46.7237 
   94000    111.25148   -8280.0369   -7586.9521   -831.40649     102002.7      46.7237      46.7237      46.7237 
   95000    109.45604   -8314.7086   -7632.8092   -900.97789     102002.7      46.7237      46.7237      46.7237 
   96000     110.0602   -8316.3895   -7630.7263   -910.45214     102002.7      46.7237      46.7237      46.7237 
   97000    110.43442   -8310.4957   -7622.5011   -804.82091     102002.7      46.7237      46.7237      46.7237 
   98000    109.35824   -8291.3429   -7610.0528   -895.98501     102002.7      46.7237      46.7237      46.7237 
   99000    107.15842   -8310.5072   -7642.9217   -842.80924     102002.7      46.7237      46.7237      46.7237 
  100000    110.10836   -8309.4615   -7623.4982   -929.63246     102002.7      46.7237      46.7237      46.7237 
  101000    109.75275   -8326.7216   -7642.9737    -785.8395     102002.7      46.7237      46.7237      46.7237 
  102000    111.47829   -8282.1461   -7587.6482   -1017.0186     102002.7      46.7237      46.7237      46.7237 
  103000     110.6655   -8298.5272    -7609.093   -691.76672     102002.7      46.7237      46.7237      46.7237 
  104000    113.15592   -8306.8332   -7601.8839   -610.55301     102002.7      46.7237      46.7237      46.7237 
  105000    106.20059   -8307.6039   -7645.9855   -753.64802     102002.7      46.7237      46.7237      46.7237 
  106000    107.52544   -8303.7672   -7633.8952   -560.80297     102002.7      46.7237      46.7237      46.7237 
  107000    110.56831   -8290.0678   -7601.2391   -775.52055     102002.7      46.7237      46.7237      46.7237 
  108000    110.75788   -8328.2012   -7638.1914   -983.48668     102002.7      46.7237      46.7237      46.7237 
  109000    110.92936    -8313.291   -7622.2129   -655.00013     102002.7      46.7237      46.7237      46.7237 
  110000    109.14634    -8313.776    -7633.806    -737.5624     102002.7      46.7237      46.7237      46.7237 
  111000    111.73915    -8286.886    -7590.763   -873.98682     102002.7      46.7237      46.7237      46.7237 
  112000    107.82685   -8322.4357    -7650.686    -788.1993     102002.7      46.7237      46.7237      46.7237 
  113000    110.06488   -8297.5012   -7611.8088   -1064.6189     102002.7      46.7237      46.7237      46.7237 
  114000     110.2604   -8297.8052   -7610.8947   -874.42769     102002.7      46.7237      46.7237      46.7237 
  115000    106.07237   -8314.0298   -7653.2102    -830.7786     102002.7      46.7237      46.7237      46.7237 
  116000    109.02359   -8287.9608   -7608.7555   -837.26848     102002.7      46.7237      46.7237      46.7237 
  117000    109.54929   -8308.6813    -7626.201   -656.00085     102002.7      46.7237      46.7237      46.7237 
  118000    113.73353   -8313.6282   -7605.0804   -919.37902     102002.7      46.7237      46.7237      46.7237 
  119000     112.3991    -8304.666   -7604.4317   -982.47041     102002.7      46.7237      46.7237      46.7237 
  120000    110.45323   -8310.6391   -7622.5273   -1029.9245     102002.7      46.7237      46.7237      46.7237 
  121000    110.70332    -8318.937   -7629.2672   -941.82772     102002.7      46.7237      46.7237      46.7237 
  122000    112.53146   -8312.0749    -7611.016   -815.80824     102002.7      46.7237      46.7237      46.7237 
  123000    110.53937   -8280.3785   -7591.7301   -1080.2826     102002.7      46.7237      46.7237      46.7237 
  124000    109.57187   -8328.1643   -7645.5433   -938.98252     102002.7      46.7237      46.7237      46.7237 
  125000    107.35733   -8297.7455   -7628.9208   -781.26819     102002.7      46.7237      46.7237      46.7237 
  126000    108.07838   -8290.2557    -7616.939    -690.8666     102002.7      46.7237      46.7237      46.7237 
  127000    111.15693   -8297.3244   -7604.8287    -849.1878     102002.7      46.7237      46.7237      46.7237 
  128000    109.25303   -8299.0401   -7618.4055   -611.92384     102002.7      46.7237      46.7237      46.7237 
  129000    110.23255   -8287.8777   -7601.1406   -711.70525     102002.7      46.7237      46.7237      46.7237 
  130000    109.59116   -8280.5552    -7597.814   -913.22519     102002.7      46.7237      46.7237      46.7237 
  131000    111.22903   -8305.1348   -7612.1898   -714.97605     102002.7      46.7237      46.7237      46.7237 
  132000    106.52765   -8293.5799   -7629.9241   -715.12234     102002.7      46.7237      46.7237      46.7237 
  133000    111.25159   -8302.6554   -7609.5699   -807.03424     102002.7      46.7237      46.7237      46.7237 
  134000    111.32208   -8314.5096   -7620.9849   -652.17836     102002.7      46.7237      46.7237      46.7237 
  135000    113.81617   -8280.0006    -7570.938   -678.86858     102002.7      46.7237      46.7237      46.7237 
  136000    109.48756   -8305.1736   -7623.0779   -729.06548     102002.7      46.7237      46.7237      46.7237 
  137000    107.49744   -8317.6131   -7647.9155   -831.19393     102002.7      46.7237      46.7237      46.7237 
  138000    107.60191   -8275.0429   -7604.6946   -904.47738     102002.7      46.7237      46.7237      46.7237 
  139000    108.97907    -8294.851    -7615.923   -941.32868     102002.7      46.7237      46.7237      46.7237 
  140000     108.3209   -8266.6619   -7591.8343   -612.48045     102002.7      46.7237      46.7237      46.7237 
  141000    110.42119    -8308.925   -7621.0128   -1060.2064     102002.7      46.7237      46.7237      46.7237 
  142000    109.46746   -8289.2509   -7607.2803    -964.4274     102002.7      46.7237      46.7237      46.7237 
  143000    106.47828   -8332.6869   -7669.3386   -1253.1173     102002.7      46.7237      46.7237      46.7237 
  144000    109.00698   -8275.7508   -7596.6489   -1094.8131     102002.7      46.7237      46.7237      46.7237 
  145000    110.45294   -8293.5983   -7605.4883   -830.37919     102002.7      46.7237      46.7237      46.7237 
  146000     111.6474   -8293.2528   -7597.7015   -1120.0295     102002.7      46.7237      46.7237      46.7237 
  147000    108.26542   -8294.1423   -7619.6603   -1140.8141     102002.7      46.7237      46.7237      46.7237 
  148000    110.57294   -8297.5696    -7608.712   -983.42144     102002.7      46.7237      46.7237      46.7237 
  149000    107.71842   -8280.5455   -7609.4713   -969.83591     102002.7      46.7237      46.7237      46.7237 
  150000    112.65731   -8275.9036   -7574.0606   -848.66072     102002.7      46.7237      46.7237      46.7237 
  151000    109.70961   -8283.7065   -7600.2274   -946.70543     102002.7      46.7237      46.7237      46.7237 
  152000    105.58394   -8302.1554   -7644.3788   -835.42501     102002.7      46.7237      46.7237      46.7237 
  153000    114.24673   -8302.5684   -7590.8235   -719.36949     102002.7      46.7237      46.7237      46.7237 
  154000    111.16732   -8317.2027   -7624.6422   -752.11227     102002.7      46.7237      46.7237      46.7237 
  155000    110.55147   -8324.6617   -7635.9379   -754.48411     102002.7      46.7237      46.7237      46.7237 
  156000    109.65182   -8296.5533   -7613.4341   -832.15352     102002.7      46.7237      46.7237      46.7237 
  157000    109.45818   -8302.4328   -7620.5201   -732.45803     102002.7      46.7237      46.7237      46.7237 
  158000    110.75681   -8293.7983   -7603.7952   -597.39931     102002.7      46.7237      46.7237      46.7237 
  159000     108.8595   -8320.5966   -7642.4136   -576.76971     102002.7      46.7237      46.7237      46.7237 
  160000    110.24571   -8315.8274   -7629.0085   -496.53279     102002.7      46.7237      46.7237      46.7237 
  161000    110.07275   -8287.6778   -7601.9364   -616.20493     102002.7      46.7237      46.7237      46.7237 
  162000    111.63703   -8322.1703   -7626.6836   -868.50721     102002.7      46.7237      46.7237      46.7237 
  163000    109.86585   -8292.0409   -7607.5884   -736.58186     102002.7      46.7237      46.7237      46.7237 
  164000    112.33124   -8318.6707   -7618.8591   -783.31089     102002.7      46.7237      46.7237      46.7237 
  165000    110.49398   -8311.6728   -7623.3072   -741.76155     102002.7      46.7237      46.7237      46.7237 
  166000    106.54421   -8286.7088   -7622.9498   -838.53769     102002.7      46.7237      46.7237      46.7237 
  167000    114.39991   -8334.0935   -7621.3943   -842.76107     102002.7      46.7237      46.7237      46.7237 
  168000    110.59689   -8304.8462   -7615.8394     -730.721     102002.7      46.7237      46.7237      46.7237 
  169000    109.23243   -8307.1906   -7626.6843   -698.84095     102002.7      46.7237      46.7237      46.7237 
  170000    112.74861   -8292.1693   -7589.7575   -825.17558     102002.7      46.7237      46.7237      46.7237 
  171000    109.45488   -8321.4343    -7639.542   -860.16939     102002.7      46.7237      46.7237      46.7237 
  172000    110.75365   -8298.4744    -7608.491   -458.89831     102002.7      46.7237      46.7237      46.7237 
  173000    110.49408   -8301.8251   -7613.4588   -796.04063     102002.7      46.7237      46.7237      46.7237 
  174000    112.08283   -8301.9197   -7603.6556   -812.31612     102002.7      46.7237      46.7237      46.7237 
  175000    112.84539   -8297.9896   -7594.9749   -920.84682     102002.7      46.7237      46.7237      46.7237 
  176000    114.53801   -8293.4895     -7579.93   -1041.0935     102002.7      46.7237      46.7237      46.7237 
  177000    107.51519   -8278.3699   -7608.5617   -968.00522     102002.7      46.7237      46.7237      46.7237 
  178000    109.37895   -8317.6751   -7636.2559   -923.74063     102002.7      46.7237      46.7237      46.7237 
  179000    108.52216   -8282.7403   -7606.6588   -793.38745     102002.7      46.7237      46.7237      46.7237 
  180000    109.80658    -8314.312   -7630.2288   -1069.8042     102002.7      46.7237      46.7237      46.7237 
  181000    113.41853   -8286.6661   -7580.0808    -973.1622     102002.7      46.7237      46.7237      46.7237 
  182000     111.1008   -8325.7053   -7633.5592   -997.28376     102002.7      46.7237      46.7237      46.7237 
  183000    108.22996   -8340.5858   -7666.3247    -1020.851     102002.7      46.7237      46.7237      46.7237 
  184000     112.1616   -8295.9324   -7597.1777   -689.43046     102002.7      46.7237      46.7237      46.7237 
  185000    112.77158   -8285.0009    -7582.446   -1040.4085     102002.7      46.7237      46.7237      46.7237 
  186000    108.91456   -8295.0613   -7616.5353   -791.67796     102002.7      46.7237      46.7237      46.7237 
  187000    109.19551   -8299.4201   -7619.1438   -801.83805     102002.7      46.7237      46.7237      46.7237 
  188000    110.99534   -8327.3674   -7635.8783   -943.02448     102002.7      46.7237      46.7237      46.7237 
  189000    108.35894   -8273.7516    -7598.687   -671.86038     102002.7      46.7237      46.7237      46.7237 
  190000    111.14902   -8287.3701   -7594.9236   -768.52665     102002.7      46.7237      46.7237      46.7237 
  191000    109.06009   -8302.0836   -7622.6509   -810.80666     102002.7      46.7237      46.7237      46.7237 
  192000    110.60596    -8304.094   -7615.0307   -891.83173     102002.7      46.7237      46.7237      46.7237 
  193000    110.80942   -8297.7322   -7607.4014   -606.50729     102002.7      46.7237      46.7237      46.7237 
  194000    109.91716   -8274.7519   -7589.9798   -845.32698     102002.7      46.7237      46.7237      46.7237 
  195000    111.20926    -8315.115   -7622.2932   -690.76083     102002.7      46.7237      46.7237      46.7237 
  196000    108.08131   -8284.1382   -7610.8032    -812.6109     102002.7      46.7237      46.7237      46.7237 
  197000    108.35446   -8296.9472   -7621.9105    -795.6415     102002.7      46.7237      46.7237      46.7237 
  198000    110.14921   -8277.3454   -7591.1276   -789.95993     102002.7      46.7237      46.7237      46.7237 
  199000     107.6868   -8311.2924   -7640.4151   -725.20094     102002.7      46.7237      46.7237      46.7237 
  200000    112.80004   -8270.0773   -7567.3451   -716.30094     102002.7      46.7237      46.7237      46.7237 
  201000    107.31223   -8315.6631   -7647.1194      -554.33     102002.7      46.7237      46.7237      46.7237 
  202000    108.03904   -8300.9968   -7627.9251   -775.47757     102002.7      46.7237      46.7237      46.7237 
  203000    113.59129   -8310.3056    -7602.644   -850.32601     102002.7      46.7237      46.7237      46.7237 
  204000    110.52596   -8305.0662   -7616.5012   -976.67082     102002.7      46.7237      46.7237      46.7237 
  205000     110.8916   -8290.4865   -7599.6437    -976.3534     102002.7      46.7237      46.7237      46.7237 
  206000    113.20143   -8292.5923   -7587.3595   -890.78381     102002.7      46.7237      46.7237      46.7237 
  207000    112.50053   -8306.7062     -7605.84   -1032.5679     102002.7      46.7237      46.7237      46.7237 
  208000    113.12584   -8311.9018   -7607.1399   -730.38005     102002.7      46.7237      46.7237      46.7237 
  209000    109.10418   -8295.7523   -7616.0449   -1071.0175     102002.7      46.7237      46.7237      46.7237 
  210000    106.19233   -8311.2264   -7649.6596   -1105.5244     102002.7      46.7237      46.7237      46.7237 
  211000    107.61092   -8306.6022   -7636.1976   -919.94295     102002.7      46.7237      46.7237      46.7237 
  212000    109.22695   -8296.0234   -7615.5511   -887.28957     102002.7      46.7237      46.7237      46.7237 
  213000     110.7368   -8311.4204    -7621.542   -618.24489     102002.7      46.7237      46.7237      46.7237 
  214000    113.62803    -8292.905   -7585.0145   -571.22283     102002.7      46.7237      46.7237      46.7237 
  215000    108.61813   -8297.7191   -7621.0397    -576.3284     102002.7      46.7237      46.7237      46.7237 
  216000    107.92498    -8292.186   -7619.8249   -711.15944     102002.7      46.7237      46.7237      46.7237 
  217000    108.58182   -8317.1718   -7640.7187   -711.75367     102002.7      46.7237      46.7237      46.7237 
  218000    106.74777   -8278.3846   -7613.3574    -806.2038     102002.7      46.7237      46.7237      46.7237 
  219000    107.17216   -8294.0537   -7626.3826   -721.32318     102002.7      46.7237      46.7237      46.7237 
  220000    112.61433   -8288.2926   -7586.7174   -1021.9787     102002.7      46.7237      46.7237      46.7237 
  221000       110.07   -8274.8526   -7589.1282   -870.46143     102002.7      46.7237      46.7237      46.7237 
  222000     105.3861   -8305.0705   -7648.5264   -1150.4715     102002.7      46.7237      46.7237      46.7237 
  223000    110.02202   -8306.6794   -7621.2539   -1170.1394     102002.7      46.7237      46.7237      46.7237 
  224000    108.66029   -8265.8603   -7588.9183   -1037.9156     102002.7      46.7237      46.7237      46.7237 
  225000    109.81976   -8286.7116   -7602.5463   -1024.8937     102002.7      46.7237      46.7237      46.7237 
  226000    108.77873   -8289.3729   -7611.6931   -670.21578     102002.7      46.7237      46.7237      46.7237 
  227000    108.85301   -8329.6912   -7651.5486   -1231.9355     102002.7      46.7237      46.7237      46.7237 
  228000    111.43843   -8294.1982   -7599.9487   -677.42403     102002.7      46.7237      46.7237      46.7237 
  229000    110.99465   -8312.6933   -7621.2085   -883.25585     102002.7      46.7237      46.7237      46.7237 
  230000     112.0495   -8308.3255   -7610.2691   -712.30414     102002.7      46.7237      46.7237      46.7237 
  231000    111.22651   -8300.2297   -7607.3004   -422.54873     102002.7      46.7237      46.7237      46.7237 
  232000    107.15298   -8303.8159   -7636.2643   -836.76952     102002.7      46.7237      46.7237      46.7237 
  233000    111.96014   -8306.5737    -7609.074   -701.61375     102002.7      46.7237      46.7237      46.7237 
  234000    107.32498   -8330.4472   -7661.8241   -778.59376     102002.7      46.7237      46.7237      46.7237 
  235000    109.72243   -8283.4738   -7599.9149   -1046.0881     102002.7      46.7237      46.7237      46.7237 
  236000    109.41374   -8303.8099   -7622.1741   -550.36629     102002.7      46.7237      46.7237      46.7237 
  237000    111.30256   -8299.0313   -7605.6283   -566.68438     102002.7      46.7237      46.7237      46.7237 
  238000    109.20156   -8322.0131   -7641.6991     -470.818     102002.7      46.7237      46.7237      46.7237 
  239000    109.62122   -8281.0415    -7598.113    -508.5245     102002.7      46.7237      46.7237      46.7237 
  240000    104.73011   -8326.2354    -7673.778   -678.04643     102002.7      46.7237      46.7237      46.7237 
  241000    109.86579   -8281.1112   -7596.6591   -900.51962     102002.7      46.7237      46.7237      46.7237 
  242000    110.51854   -8280.8325   -7592.3139   -787.34094     102002.7      46.7237      46.7237      46.7237 
  243000    110.21907   -8297.9468   -7611.2938   -702.56412     102002.7      46.7237      46.7237      46.7237 
  244000     110.5402   -8325.4824   -7636.8287   -796.65014     102002.7      46.7237      46.7237      46.7237 
  245000    111.34853   -8289.2529   -7595.5635   -745.85109     102002.7      46.7237      46.7237      46.7237 
  246000    111.52704   -8298.0162   -7603.2147   -488.84737     102002.7      46.7237      46.7237      46.7237 
  247000    109.00471   -8300.1454   -7621.0577   -826.97223     102002.7      46.7237      46.7237      46.7237 
  248000    104.02555   -8301.5639   -7653.4958   -793.51953     102002.7      46.7237      46.7237      46.7237 
  249000    111.11553   -8304.6366   -7612.3987   -1041.5358     102002.7      46.7237      46.7237      46.7237 
  250000     110.0983   -8283.3617   -7597.4611   -532.26095     102002.7      46.7237      46.7237      46.7237 
  251000    110.23617   -8295.2528   -7608.4932   -752.76205     102002.7      46.7237      46.7237      46.7237 
  252000    109.65051   -8290.6532   -7607.5423   -1205.8358     102002.7      46.7237      46.7237      46.7237 
  253000    111.76053   -8279.9737   -7583.7175   -1052.1701     102002.7      46.7237      46.7237      46.7237 
  254000     106.7287   -8295.7312   -7630.8228   -957.53376     102002.7      46.7237      46.7237      46.7237 
  255000    110.34777   -8298.6221   -7611.1673    -722.0142     102002.7      46.7237      46.7237      46.7237 
  256000      108.444   -8342.7047   -7667.1102   -747.07835     102002.7      46.7237      46.7237      46.7237 
  257000    111.15186   -8303.6979   -7611.2337   -643.85641     102002.7      46.7237      46.7237      46.7237 
  258000    107.48432   -8319.9781   -7650.3623   -1054.0104     102002.7      46.7237      46.7237      46.7237 
  259000    110.88973   -8317.7493   -7626.9182   -561.66813     102002.7      46.7237      46.7237      46.7237 
  260000    109.75348   -8313.2293   -7629.4769   -907.69734     102002.7      46.7237      46.7237      46.7237 
  261000    109.52464   -8281.8204   -7599.4936   -926.04354     102002.7      46.7237      46.7237      46.7237 
  262000    112.91385   -8323.0349   -7619.5937    -811.2802     102002.7      46.7237      46.7237      46.7237 
  263000    108.25726   -8307.7671    -7633.336   -1068.9204     102002.7      46.7237      46.7237      46.7237 
  264000    110.87528    -8292.495   -7601.7539   -1057.7395     102002.7      46.7237      46.7237      46.7237 
  265000    108.63566   -8313.7324   -7636.9438   -1170.6283     102002.7      46.7237      46.7237      46.7237 
  266000    110.62157   -8282.9409   -7593.7803    -851.6811     102002.7      46.7237      46.7237      46.7237 
  267000    107.68803    -8296.219    -7625.334   -885.24344     102002.7      46.7237      46.7237      46.7237 
  268000    114.34237   -8303.6194   -7591.2786    -1050.209     102002.7      46.7237      46.7237      46.7237 
  269000    107.74099   -8299.6783   -7628.4635   -699.72449     102002.7      46.7237      46.7237      46.7237 
  270000    113.32451   -8315.4882   -7609.4887   -978.05206     102002.7      46.7237      46.7237      46.7237 
  271000    112.22954   -8278.5371   -7579.3591   -952.77496     102002.7      46.7237      46.7237      46.7237 
  272000    108.02781   -8300.2626   -7627.2609   -603.80429     102002.7      46.7237      46.7237      46.7237 
  273000    108.56665   -8309.6681   -7633.3095   -912.16981     102002.7      46.7237      46.7237      46.7237 
  274000    109.14586   -8310.7759   -7630.8088   -983.83708     102002.7      46.7237      46.7237      46.7237 
  275000    111.25042   -8287.4298   -7594.3516   -910.17757     102002.7      46.7237      46.7237      46.7237 
  276000    111.90707   -8296.7726   -7599.6035   -801.42051     102002.7      46.7237      46.7237      46.7237 
  277000    108.41472   -8307.7824   -7632.3703    -818.3096     102002.7      46.7237      46.7237      46.7237 
  278000    106.60889   -8308.3983   -7644.2364   -955.53636     102002.7      46.7237      46.7237      46.7237 
  279000     110.9775   -8313.8957   -7622.5178   -497.06971     102002.7      46.7237      46.7237      46.7237 
  280000    108.40588   -8305.8338   -7630.4767   -542.50013     102002.7      46.7237      46.7237      46.7237 
  281000    113.18113   -8326.9032   -7621.7969   -1025.1848     102002.7      46.7237      46.7237      46.7237 
  282000    108.63297    -8305.846   -7629.0742   -955.37146     102002.7      46.7237      46.7237      46.7237 
  283000    110.66981    -8311.113    -7621.652     -802.421     102002.7      46.7237      46.7237      46.7237 
  284000    111.35824   -8298.6679    -7604.918   -828.86628     102002.7      46.7237      46.7237      46.7237 
  285000    108.55552   -8315.0358   -7638.7466   -1033.8504     102002.7      46.7237      46.7237      46.7237 
  286000    108.87331   -8294.7121    -7616.443   -680.72964     102002.7      46.7237      46.7237      46.7237 
  287000    113.11402   -8297.0957   -7592.4074    -649.0991     102002.7      46.7237      46.7237      46.7237 
  288000    112.54042   -8305.4139   -7604.2991   -826.41216     102002.7      46.7237      46.7237      46.7237 
  289000    115.14894   -8301.0941   -7583.7285   -612.27247     102002.7      46.7237      46.7237      46.7237 
  290000    112.78532    -8323.998   -7621.3575   -836.62896     102002.7      46.7237      46.7237      46.7237 
  291000    109.28771   -8302.7528    -7621.902   -713.56089     102002.7      46.7237      46.7237      46.7237 
  292000    109.93219    -8321.414   -7636.5482    -687.1376     102002.7      46.7237      46.7237      46.7237 
  293000    107.59494   -8294.1528   -7623.8478   -924.43347     102002.7      46.7237      46.7237      46.7237 
  294000    108.41014    -8327.176   -7651.7925   -707.23141     102002.7      46.7237      46.7237      46.7237 
  295000    107.20437   -8295.4768   -7627.6051   -874.69995     102002.7      46.7237      46.7237      46.7237 
  296000    113.35156   -8314.0649   -7607.8968   -636.10064     102002.7      46.7237      46.7237      46.7237 
  297000    109.48863   -8296.7211   -7614.6186   -789.20935     102002.7      46.7237      46.7237      46.7237 
  298000    110.02928   -8329.0357   -7643.5651   -797.78048     102002.7      46.7237      46.7237      46.7237 
  299000    108.77478   -8297.0201   -7619.3649    -765.7341     102002.7      46.7237      46.7237      46.7237 
  300000    111.85876   -8307.8103   -7610.9422   -819.60581     102002.7      46.7237      46.7237      46.7237 
  301000    110.74256   -8290.2074   -7600.2931   -716.46011     102002.7      46.7237      46.7237      46.7237 
  302000    107.40218   -8297.9408   -7628.8367   -719.57238     102002.7      46.7237      46.7237      46.7237 
  303000    108.59365    -8289.736   -7613.2092   -625.67912     102002.7      46.7237      46.7237      46.7237 
  304000    110.94891   -8282.6795   -7591.4796   -939.52338     102002.7      46.7237      46.7237      46.7237 
  305000    112.32975   -8289.9683    -7590.166   -767.90833     102002.7      46.7237      46.7237      46.7237 
  306000    112.76902   -8309.8052   -7607.2663    -898.6319     102002.7      46.7237      46.7237      46.7237 
  307000    111.05753   -8320.4214   -7628.5449   -1017.3079     102002.7      46.7237      46.7237      46.7237 
  308000     109.8681   -8284.6643   -7600.1978   -842.51474     102002.7      46.7237      46.7237      46.7237 
  309000    108.70955   -8307.1554   -7629.9065   -1028.8109     102002.7      46.7237      46.7237      46.7237 
  310000    112.23134    -8307.764   -7608.5748   -744.47615     102002.7      46.7237      46.7237      46.7237 
  311000     105.9852   -8293.9878   -7633.7113   -693.49787     102002.7      46.7237      46.7237      46.7237 
  312000    108.55249   -8280.5082   -7604.2378   -1060.9134     102002.7      46.7237      46.7237      46.7237 
  313000    107.83123   -8308.4777   -7636.7007   -748.69887     102002.7      46.7237      46.7237      46.7237 
  314000    109.76443   -8321.6944   -7637.8738   -1163.5017     102002.7      46.7237      46.7237      46.7237 
  315000    112.78596   -8308.2561   -7605.6116   -945.27751     102002.7      46.7237      46.7237      46.7237 
  316000    112.88352   -8304.4706   -7601.2183   -656.10796     102002.7      46.7237      46.7237      46.7237 
  317000    109.32542   -8303.2434   -7622.1577    -1112.717     102002.7      46.7237      46.7237      46.7237 
  318000    111.36663   -8311.3306   -7617.5284   -493.06732     102002.7      46.7237      46.7237      46.7237 
  319000    108.49475   -8301.3189   -7625.4083    -807.0829     102002.7      46.7237      46.7237      46.7237 
  320000    107.88469   -8304.0293   -7631.9192   -907.97139     102002.7      46.7237      46.7237      46.7237 
  321000    110.86146   -8291.6136   -7600.9586   -544.15928     102002.7      46.7237      46.7237      46.7237 
  322000    110.39648   -8305.2167   -7617.4584   -939.53653     102002.7      46.7237      46.7237      46.7237 
  323000    109.54684   -8305.0159   -7622.5508   -503.29294     102002.7      46.7237      46.7237      46.7237 
  324000     110.9861   -8291.5921   -7600.1606   -923.56537     102002.7      46.7237      46.7237      46.7237 
  325000    109.53336   -8320.5374   -7638.1563   -744.84006     102002.7      46.7237      46.7237      46.7237 
  326000     108.1437   -8277.3234   -7603.5998   -816.39378     102002.7      46.7237      46.7237      46.7237 
  327000    114.18412   -8298.1125   -7586.7577   -730.90394     102002.7      46.7237      46.7237      46.7237 
  328000    110.41395   -8272.3884   -7584.5213   -814.90745     102002.7      46.7237      46.7237      46.7237 
  329000     108.5267   -8309.7436   -7633.6339   -601.48079     102002.7      46.7237      46.7237      46.7237 
  330000     108.1119    -8291.012   -7617.4864   -614.78256     102002.7      46.7237      46.7237      46.7237 
  331000    109.61004   -8288.3837   -7605.5248   -586.70298     102002.7      46.7237      46.7237      46.7237 
  332000    114.01379   -8291.0918    -7580.798   -956.21802     102002.7      46.7237      46.7237      46.7237 
  333000    108.27445   -8305.7765   -7631.2383   -775.99305     102002.7      46.7237      46.7237      46.7237 
  334000    110.14448   -8300.8703    -7614.682   -907.52247     102002.7      46.7237      46.7237      46.7237 
  335000     113.6381   -8279.1641   -7571.2109   -810.61294     102002.7      46.7237      46.7237      46.7237 
  336000    109.81001   -8302.9234   -7618.8188   -876.76444     102002.7      46.7237      46.7237      46.7237 
  337000     114.3326   -8316.3716   -7604.0917   -924.96256     102002.7      46.7237      46.7237      46.7237 
  338000    108.67786   -8303.8579   -7626.8065   -1094.3931     102002.7      46.7237      46.7237      46.7237 
  339000    107.56598   -8303.4369   -7633.3124   -1062.5397     102002.7      46.7237      46.7237      46.7237 
  340000    111.64682   -8285.3278   -7589.7801   -894.16972     102002.7      46.7237      46.7237      46.7237 
  341000    109.64886    -8284.527   -7601.4264   -838.01002     102002.7      46.7237      46.7237      46.7237 
  342000    107.75803   -8300.4488   -7629.1278   -721.81142     102002.7      46.7237      46.7237      46.7237 
  343000     108.8253   -8291.3962   -7613.4262   -988.76409     102002.7      46.7237      46.7237      46.7237 
  344000    107.33815   -8315.6921   -7646.9868    -751.2044     102002.7      46.7237      46.7237      46.7237 
  345000    109.53028   -8290.9109    -7608.549   -869.98844     102002.7      46.7237      46.7237      46.7237 
  346000    110.79138   -8295.3278   -7605.1093   -995.81678     102002.7      46.7237      46.7237      46.7237 
  347000    115.02168   -8298.1333   -7581.5605     -802.323     102002.7      46.7237      46.7237      46.7237 
  348000    106.60709    -8278.756   -7614.6053     -866.324     102002.7      46.7237      46.7237      46.7237 
  349000    108.21958   -8306.8635   -7632.6671   -718.18283     102002.7      46.7237      46.7237      46.7237 
  350000    108.51792   -8319.8613   -7643.8063   -697.95086     102002.7      46.7237      46.7237      46.7237 
  351000    112.48698   -8305.9364   -7605.1545    -1009.229     102002.7      46.7237      46.7237      46.7237 
  352000     110.2684   -8316.4171   -7629.4567   -537.39427     102002.7      46.7237      46.7237      46.7237 
  353000    113.65161    -8292.864   -7584.8267   -714.19395     102002.7      46.7237      46.7237      46.7237 
  354000    110.71649   -8298.4184   -7608.6665   -837.93691     102002.7      46.7237      46.7237      46.7237 
  355000    109.51843   -8289.3528   -7607.0647   -521.42239     102002.7      46.7237      46.7237      46.7237 
  356000    109.44726   -8306.9672   -7625.1225   -953.14919     102002.7      46.7237      46.7237      46.7237 
  357000    111.64649   -8282.0511   -7586.5054   -902.35082     102002.7      46.7237      46.7237      46.7237 
  358000    107.54174   -8287.2386    -7617.265   -739.98957     102002.7      46.7237      46.7237      46.7237 
  359000    107.84042    -8269.759   -7597.9247   -603.70137     102002.7      46.7237      46.7237      46.7237 
  360000    112.21266   -8305.3484   -7606.2756   -702.85252     102002.7      46.7237      46.7237      46.7237 
  361000    112.89163   -8308.5945   -7605.2917   -908.65481     102002.7      46.7237      46.7237      46.7237 
  362000    109.47132   -8303.9569   -7621.9623   -761.08835     102002.7      46.7237      46.7237      46.7237 
  363000    110.61556   -8283.7005   -7594.5774   -871.62295     102002.7      46.7237      46.7237      46.7237 
  364000    108.94434   -8292.1452   -7613.4336   -745.11567     102002.7      46.7237      46.7237      46.7237 
  365000    108.20629   -8290.5154   -7616.4018   -944.69167     102002.7      46.7237      46.7237      46.7237 
  366000    111.50957   -8299.7507   -7605.0581   -1036.3937     102002.7      46.7237      46.7237      46.7237 
  367000    109.98039   -8307.0048   -7621.8388   -679.92808     102002.7      46.7237      46.7237      46.7237 
  368000    111.85335   -8307.8808   -7611.0463   -948.76563     102002.7      46.7237      46.7237      46.7237 
  369000    108.33196   -8309.7241   -7634.8276   -841.57262     102002.7      46.7237      46.7237      46.7237 
  370000    106.92289   -8290.9397   -7624.8215   -934.31547     102002.7      46.7237      46.7237      46.7237 
  371000    109.28604   -8295.5844   -7614.7441   -1114.0353     102002.7      46.7237      46.7237      46.7237 
  372000     113.8442   -8286.9211   -7577.6839   -814.04727     102002.7      46.7237      46.7237      46.7237 
  373000    109.38357   -8274.5946   -7593.1466   -855.60835     102002.7      46.7237      46.7237      46.7237 
  374000    108.30789    -8286.098   -7611.3515   -790.54994     102002.7      46.7237      46.7237      46.7237 
  375000    111.36041   -8271.9264    -7578.163   -935.51191     102002.7      46.7237      46.7237      46.7237 
  376000    109.16044   -8291.4349   -7611.3771   -1054.8528     102002.7      46.7237      46.7237      46.7237 
  377000    108.82538   -8277.6756   -7599.7051   -1033.6876     102002.7      46.7237      46.7237      46.7237 
  378000    110.12175   -8258.8154   -7572.7687   -1175.6199     102002.7      46.7237      46.7237      46.7237 
  379000    113.42292   -8305.0162   -7598.4035   -672.41726     102002.7      46.7237      46.7237      46.7237 
  380000    109.71693   -8297.4187    -7613.894   -912.08318     102002.7      46.7237      46.7237      46.7237 
  381000    109.30042   -8255.3002   -7574.3703   -916.28873     102002.7      46.7237      46.7237      46.7237 
  382000    109.28021   -8286.9329   -7606.1289   -830.38959     102002.7      46.7237      46.7237      46.7237 
  383000    113.08047   -8283.4763   -7578.9971   -1175.2814     102002.7      46.7237      46.7237      46.7237 
  384000    108.23118   -8290.5815   -7616.3128   -1098.7633     102002.7      46.7237      46.7237      46.7237 
  385000    110.78778   -8292.8551   -7602.6591   -800.86254     102002.7      46.7237      46.7237      46.7237 
  386000     108.8727   -8308.2639   -7629.9986   -1208.1279     102002.7      46.7237      46.7237      46.7237 
  387000     110.9731   -8277.0621   -7585.7115   -692.02055     102002.7      46.7237      46.7237      46.7237 
  388000    112.40354   -8299.9084   -7599.6464   -967.37254     102002.7      46.7237      46.7237      46.7237 
  389000    111.37372   -8308.6866   -7614.8403   -676.93339     102002.7      46.7237      46.7237      46.7237 
  390000     113.0712   -8307.9991   -7603.5776   -790.00578     102002.7      46.7237      46.7237      46.7237 
  391000    111.68622   -8283.9622    -7588.169   -822.72863     102002.7      46.7237      46.7237      46.7237 
  392000    109.08232   -8318.7364   -7639.1652   -801.65618     102002.7      46.7237      46.7237      46.7237 
  393000    108.56532    -8289.762   -7613.4117   -1045.9677     102002.7      46.7237      46.7237      46.7237 
  394000    105.91836   -8317.0475   -7657.1874   -627.48823     102002.7      46.7237      46.7237      46.7237 
  395000    109.17394   -8297.1325   -7616.9905    -731.7462     102002.7      46.7237      46.7237      46.7237 
  396000    110.57363   -8291.7476   -7602.8857   -954.90541     102002.7      46.7237      46.7237      46.7237 
  397000    112.41246   -8283.6483   -7583.3307   -540.96191     102002.7      46.7237      46.7237      46.7237 
  398000    108.39138   -8293.7138   -7618.4471      -681.84     102002.7      46.7237      46.7237      46.7237 
  399000    107.70601   -8306.2788   -7635.2819   -574.84343     102002.7      46.7237      46.7237      46.7237 
  400000    109.00848   -8298.7997   -7619.6886   -392.28566     102002.7      46.7237      46.7237      46.7237 
  401000    110.23937   -8302.5896   -7615.8102    -702.0675     102002.7      46.7237      46.7237      46.7237 
  402000     108.9811   -8271.5524   -7592.6118   -705.77392     102002.7      46.7237      46.7237      46.7237 
  403000    109.76725   -8287.4781   -7603.6399   -637.77191     102002.7      46.7237      46.7237      46.7237 
  404000    111.45744   -8302.0434   -7607.6755   -553.89508     102002.7      46.7237      46.7237      46.7237 
  405000    107.92739   -8301.2651   -7628.8891   -646.03213     102002.7      46.7237      46.7237      46.7237 
  406000    110.11735   -8282.9053    -7596.886   -954.21956     102002.7      46.7237      46.7237      46.7237 
  407000    110.45551   -8288.9114   -7600.7854   -852.19234     102002.7      46.7237      46.7237      46.7237 
  408000    110.29978   -8285.5814   -7598.4256   -900.36151     102002.7      46.7237      46.7237      46.7237 
  409000    112.07591   -8282.9282   -7584.7073   -663.31022     102002.7      46.7237      46.7237      46.7237 
  410000    107.06577   -8296.2104   -7629.2021   -672.45624     102002.7      46.7237      46.7237      46.7237 
  411000    108.69295   -8282.3245    -7605.179   -976.62996     102002.7      46.7237      46.7237      46.7237 
  412000    112.43385   -8302.9457   -7602.4948   -612.72646     102002.7      46.7237      46.7237      46.7237 
  413000    110.10777   -8293.9793   -7608.0197   -992.63807     102002.7      46.7237      46.7237      46.7237 
  414000    107.52707   -8303.3509   -7633.4688   -508.85573     102002.7      46.7237      46.7237      46.7237 
  415000    109.17466   -8291.6951   -7611.5487   -821.28246     102002.7      46.7237      46.7237      46.7237 
  416000    109.65902   -8286.5234   -7603.3594   -420.65221     102002.7      46.7237      46.7237      46.7237 
  417000    110.54249   -8313.4738   -7624.8059   -777.40167     102002.7      46.7237      46.7237      46.7237 
  418000     109.1353   -8317.9238   -7638.0226   -744.38094     102002.7      46.7237      46.7237      46.7237 
  419000    112.73989   -8315.1603   -7612.8029   -825.56346     102002.7      46.7237      46.7237      46.7237 
  420000     110.1356   -8317.1523   -7631.0192   -716.87892     102002.7      46.7237      46.7237      46.7237 
  421000    108.44078   -8308.0075   -7632.4331   -751.18731     102002.7      46.7237      46.7237      46.7237 
  422000    112.48765   -8286.7435   -7585.9575   -804.52917     102002.7      46.7237      46.7237      46.7237 
  423000    109.34222   -8290.9236   -7609.7333   -708.39579     102002.7      46.7237      46.7237      46.7237 
  424000    107.75006   -8288.5478   -7617.2765   -841.19419     102002.7      46.7237      46.7237      46.7237 
  425000     107.4246   -8292.4763   -7623.2326   -561.16196     102002.7      46.7237      46.7237      46.7237 
  426000    109.09891    -8280.862   -7601.1875   -815.70221     102002.7      46.7237      46.7237      46.7237 
  427000    110.89964   -8278.8468    -7587.954   -976.18822     102002.7      46.7237      46.7237      46.7237 
  428000    111.23671    -8316.926   -7623.9332   -770.89459     102002.7      46.7237      46.7237      46.7237 
  429000    108.55055   -8283.7969   -7607.5386   -859.40546     102002.7      46.7237      46.7237      46.7237 
  430000    106.97985   -8311.4371   -7644.9641   -596.62274     102002.7      46.7237      46.7237      46.7237 
  431000    107.10346   -8300.9681    -7633.725   -720.06906     102002.7      46.7237      46.7237      46.7237 
  432000     113.3957   -8337.4837   -7631.0406   -796.08988     102002.7      46.7237      46.7237      46.7237 
  433000    110.29795    -8336.152   -7649.0076    -687.8506     102002.7      46.7237      46.7237      46.7237 
  434000    107.35151   -8309.5919   -7640.8035   -966.39879     102002.7      46.7237      46.7237      46.7237 
  435000    108.34761   -8312.7702   -7637.7762   -805.57467     102002.7      46.7237      46.7237      46.7237 
  436000    113.22839   -8288.2573   -7582.8566   -578.22419     102002.7      46.7237      46.7237      46.7237 
  437000    111.60014     -8314.58    -7619.323   -746.01876     102002.7      46.7237      46.7237      46.7237 
  438000    108.64541   -8334.4209   -7657.5716   -651.48892     102002.7      46.7237      46.7237      46.7237 
  439000    108.20905   -8321.1171   -7646.9863   -792.70951     102002.7      46.7237      46.7237      46.7237 
  440000    110.45083   -8313.6207   -7625.5238   -590.57104     102002.7      46.7237      46.7237      46.7237 
  441000    109.88083   -8306.6488    -7622.103   -820.19565     102002.7      46.7237      46.7237      46.7237 
  442000    106.64623   -8308.9112   -7644.5166    -767.8252     102002.7      46.7237      46.7237      46.7237 
  443000    107.29232   -8321.6689   -7653.2492    -969.6316     102002.7      46.7237      46.7237      46.7237 
  444000    109.36326   -8310.5217   -7629.2003   -891.79642     102002.7      46.7237      46.7237      46.7237 
  445000    110.73906   -8318.6881   -7628.7956   -943.92025     102002.7      46.7237      46.7237      46.7237 
  446000    112.83329   -8325.8171   -7622.8777    -1010.986     102002.7      46.7237      46.7237      46.7237 
  447000    110.02238   -8314.0318   -7628.6041   -987.26823     102002.7      46.7237      46.7237      46.7237 
  448000    110.22731   -8308.8116   -7622.1072   -994.69213     102002.7      46.7237      46.7237      46.7237 
  449000    111.28137   -8307.8632   -7614.5922   -833.07916     102002.7      46.7237      46.7237      46.7237 
  450000    108.42582   -8325.8135   -7650.3322   -672.92311     102002.7      46.7237      46.7237      46.7237 
  451000    109.88048   -8301.4363   -7616.8926   -746.93494     102002.7      46.7237      46.7237      46.7237 
  452000    111.04347   -8306.0517   -7614.2627   -920.38638     102002.7      46.7237      46.7237      46.7237 
  453000    111.90966    -8301.002   -7603.8168   -677.85798     102002.7      46.7237      46.7237      46.7237 
  454000    109.90435   -8286.4171   -7601.7248   -950.89616     102002.7      46.7237      46.7237      46.7237 
  455000    111.46318   -8311.6857    -7617.282   -1071.8859     102002.7      46.7237      46.7237      46.7237 
  456000     107.3974   -8283.2244   -7614.1501   -928.18171     102002.7      46.7237      46.7237      46.7237 
  457000    110.90219   -8310.0475   -7619.1388   -1248.4063     102002.7      46.7237      46.7237      46.7237 
  458000    111.02956    -8299.586   -7607.8837   -1076.7032     102002.7      46.7237      46.7237      46.7237 
  459000    111.65374   -8324.4082   -7628.8174   -1168.9827     102002.7      46.7237      46.7237      46.7237 
  460000    110.24112   -8304.7788   -7617.9884   -953.94207     102002.7      46.7237      46.7237      46.7237 
  461000    113.05731   -8281.6595   -7577.3246   -943.96051     102002.7      46.7237      46.7237      46.7237 
  462000    109.67225   -8288.4175   -7605.1712   -1061.5357     102002.7      46.7237      46.7237      46.7237 
  463000    114.17513   -8320.3192   -7609.0203   -713.66726     102002.7      46.7237      46.7237      46.7237 
  464000    109.47249   -8272.6013   -7590.5994    -957.1998     102002.7      46.7237      46.7237      46.7237 
  465000    109.85363   -8296.1321   -7611.7557   -992.34519     102002.7      46.7237      46.7237      46.7237 
  466000    111.66534   -8295.8462   -7600.1831   -829.07703     102002.7      46.7237      46.7237      46.7237 
  467000    110.18007   -8301.4855   -7615.0754   -527.05974     102002.7      46.7237      46.7237      46.7237 
  468000    111.00871   -8281.4368   -7589.8644   -596.21742     102002.7      46.7237      46.7237      46.7237 
  469000    109.68937   -8287.9402   -7604.5872   -546.15335     102002.7      46.7237      46.7237      46.7237 
  470000    107.10336   -8297.8193   -7630.5768   -816.24155     102002.7      46.7237      46.7237      46.7237 
  471000    108.71783   -8303.4812   -7626.1807   -723.39754     102002.7      46.7237      46.7237      46.7237 
  472000     110.5349   -8297.3555   -7608.7349   -630.44708     102002.7      46.7237      46.7237      46.7237 
  473000    109.97093   -8300.1669   -7615.0598   -815.60018     102002.7      46.7237      46.7237      46.7237 
  474000    110.54667   -8310.0273   -7621.3334   -732.45976     102002.7      46.7237      46.7237      46.7237 
  475000    112.50499   -8310.2712   -7609.3772   -544.00024     102002.7      46.7237      46.7237      46.7237 
  476000    111.72232   -8312.8264   -7616.8083   -732.50891     102002.7      46.7237      46.7237      46.7237 
  477000    109.10376   -8293.8967   -7614.1919    -755.1583     102002.7      46.7237      46.7237      46.7237 
  478000     111.2097   -8296.6023   -7603.7778   -611.49175     102002.7      46.7237      46.7237      46.7237 
  479000    110.54563   -8309.2828   -7620.5953   -876.36001     102002.7      46.7237      46.7237      46.7237 
  480000     110.3959    -8300.107   -7612.3523   -1045.0754     102002.7      46.7237      46.7237      46.7237 
  481000    108.61574   -8299.6493   -7622.9849   -1410.7393     102002.7      46.7237      46.7237      46.7237 
  482000    106.69587   -8316.5368   -7651.8329   -996.46913     102002.7      46.7237      46.7237      46.7237 
  483000    110.09314   -8301.5489   -7615.6804   -1084.8962     102002.7      46.7237      46.7237      46.7237 
  484000    108.89142   -8305.2812   -7626.8993    -928.0687     102002.7      46.7237      46.7237      46.7237 
  485000    110.50486   -8295.8614   -7607.4279   -1084.7278     102002.7      46.7237      46.7237      46.7237 
  486000    109.57174   -8272.9769   -7590.3567    -1182.038     102002.7      46.7237      46.7237      46.7237 
  487000    107.27627   -8295.6137    -7627.294   -1093.3217     102002.7      46.7237      46.7237      46.7237 
  488000    107.27244   -8290.2161   -7621.9202   -930.85381     102002.7      46.7237      46.7237      46.7237 
  489000    111.82108    -8310.487   -7613.8537   -787.31195     102002.7      46.7237      46.7237      46.7237 
  490000    109.38615   -8303.4439   -7621.9799    -877.2432     102002.7      46.7237      46.7237      46.7237 
  491000    107.49604    -8323.542   -7653.8532   -884.94111     102002.7      46.7237      46.7237      46.7237 
  492000    109.85853   -8303.4113   -7619.0044   -609.17301     102002.7      46.7237      46.7237      46.7237 
  493000     113.8298   -8289.9816   -7580.8341   -894.10819     102002.7      46.7237      46.7237      46.7237 
  494000    109.85303   -8319.7854   -7635.4128   -571.37912     102002.7      46.7237      46.7237      46.7237 
  495000     112.0012   -8287.0511   -7589.2956   -734.88928     102002.7      46.7237      46.7237      46.7237 
  496000     110.3948   -8310.1593   -7622.4115   -606.47559     102002.7      46.7237      46.7237      46.7237 
  497000     108.9741   -8316.2361   -7637.3391   -611.84759     102002.7      46.7237      46.7237      46.7237 
  498000    112.89799   -8287.4988   -7584.1564   -758.70303     102002.7      46.7237      46.7237      46.7237 
  499000    111.75215   -8313.4129    -7617.209   -819.68143     102002.7      46.7237      46.7237      46.7237 
  500000    109.07014   -8297.1884   -7617.6931   -886.26857     102002.7      46.7237      46.7237      46.7237 
  500501    108.83128   -8320.9383   -7642.9311   -666.09994     102002.7      46.7237      46.7237      46.7237 
Loop time of 612.671 on 24 procs for 500000 steps with 2091 atoms

Performance: 70.511 ns/day, 0.340 hours/ns, 816.099 timesteps/s
99.3% CPU use with 24 MPI tasks x no OpenMP threads

MPI task timing breakdown:
Section |  min time  |  avg time  |  max time  |%varavg| %total
---------------------------------------------------------------
Pair    | 238.48     | 312.73     | 401.2      | 245.5 | 51.04
Bond    | 60.623     | 78.398     | 97.907     | 123.3 | 12.80
Neigh   | 3.3927     | 3.4241     | 3.4521     |   1.1 |  0.56
Comm    | 120.67     | 209.48     | 281.57     | 300.6 | 34.19
Output  | 0.34018    | 0.34054    | 0.34481    |   0.2 |  0.06
Modify  | 3.8497     | 4.2076     | 4.4468     |   8.6 |  0.69
Other   |            | 4.098      |            |       |  0.67

Nlocal:    87.125 ave 108 max 62 min
Histogram: 2 4 0 1 2 3 3 3 3 3
Nghost:    2362.79 ave 2534 max 2266 min
Histogram: 11 5 0 0 0 0 0 0 2 6
Neighs:    7631.88 ave 11008 max 5654 min
Histogram: 5 3 5 2 3 2 0 0 1 3

Total # of neighbors = 183165
Ave neighs/atom = 87.5968
Ave special neighs/atom = 5.50933
Neighbor list builds = 4353
Dangerous builds = 0
Neighbor list info ...
  update every 1 steps, delay 10 steps, check yes
  max neighbors/atom: 2000, page size: 100000
  master list distance cutoff = 16
  ghost atom cutoff = 16
  binsize = 8, bins = 6 6 6
  3 neighbor lists, perpetual/occasional/extra = 3 0 0
  (1) pair buck6d/coul/gauss/dsf, perpetual, skip from (3)
      attributes: half, newton on
      pair build: skip
      stencil: none
      bin: none
  (2) pair lj/cut, perpetual, skip from (3)
      attributes: half, newton on
      pair build: skip
      stencil: none
      bin: none
  (3) neighbor class addition, perpetual
      attributes: half, newton on
      pair build: half/bin/newton
      stencil: half/bin/3d/newton
      bin: standard
Setting up Verlet run ...
  Unit style    : real
  Current step  : 500501
  Time step     : 1
WARNING: Inconsistent image flags (../domain.cpp:786)
Per MPI rank memory allocation (min/avg/max) = 24.13 | 24.46 | 24.6 Mbytes
Step Time TotEng KinEng PotEng E_mol E_pair Temp Pxx Pyy Pzz Pxy Pxz Pyz Cella Cellb Cellc CellAlpha CellBeta CellGamma Volume Press 
  500501       500000   -7642.9311    678.00721   -8320.9383    4278.8542   -12599.792    108.83128    -489.9987   -639.49206   -868.80907   -18.906398   -22.164683   -244.61927      46.7237      46.7237      46.7237           90           90           90     102002.7   -666.09994 
  501000       500499   -7649.0838    685.18698   -8334.2708    4258.8438   -12593.115    109.98375   -700.23881   -250.74897   -532.45915   -279.97135    78.164693    107.07831      46.7237      46.7237      46.7237           90           90           90     102002.7   -494.48231 
  502000       501499   -7606.9609    672.53094   -8279.4918    4317.6012   -12597.093    107.95225   -581.15335   -762.64344   -602.50703    93.045414   -331.40001   -101.10142      46.7237      46.7237      46.7237           90           90           90     102002.7   -648.76794 
  503000       502499   -7643.3988    668.32232   -8311.7211    4301.9043   -12613.625    107.27669   -727.49848    -587.6298   -346.07987   -41.620384   -130.52644   -141.68424      46.7237      46.7237      46.7237           90           90           90     102002.7   -553.73605 
  504000       503499   -7595.7053     689.4538   -8285.1591     4303.216   -12588.375    110.66864   -947.46287   -507.87517   -1124.8379   -287.01692   -352.75568    160.38554      46.7237      46.7237      46.7237           90           90           90     102002.7   -860.05866 
  505000       504499   -7606.5185     689.0456   -8295.5641    4297.5903   -12593.154    110.60312   -848.61124   -1148.6542   -600.17936   -98.243715   -100.80705    86.527952      46.7237      46.7237      46.7237           90           90           90     102002.7   -865.81494 
  506000       505499   -7639.6368    676.78999   -8316.4268     4279.213    -12595.64    108.63589   -479.70283   -673.31718   -287.10653    -349.9382    -93.71611    34.706111      46.7237      46.7237      46.7237           90           90           90     102002.7   -480.04218 
  507000       506499   -7609.1358    693.84044   -8302.9763    4267.7516   -12570.728    111.37277   -791.47635   -570.73628   -1072.0603    83.286305    252.19793   -12.985358      46.7237      46.7237      46.7237           90           90           90     102002.7    -811.4243 
  508000       507499   -7604.6414    688.22989   -8292.8713    4310.3623   -12603.234    110.47218   -489.05823    -538.5937   -744.64707    87.238352   -243.50467   -284.69565      46.7237      46.7237      46.7237           90           90           90     102002.7   -590.76633 
  509000       508499   -7619.5034    688.98964   -8308.4931    4284.9822   -12593.475    110.59414    -534.1263   -536.23952   -607.87091     86.41663    104.63836    72.621001      46.7237      46.7237      46.7237           90           90           90     102002.7   -559.41224 
  510000       509499   -7657.2241    673.62086   -8330.8449    4280.7325   -12611.577     108.1272   -823.82941    -669.4551   -915.29879    117.05094    50.465374    196.29848      46.7237      46.7237      46.7237           90           90           90     102002.7    -802.8611 
  511000       510499   -7613.6544    692.19199   -8305.8464    4297.9788   -12603.825    111.10817   -1079.8404   -891.69436   -83.097315    267.29037    247.98262    137.95743      46.7237      46.7237      46.7237           90           90           90     102002.7   -684.87735 
  512000       511499   -7639.9043    678.85875   -8318.7631    4283.1778   -12601.941    108.96796   -520.71712   -601.29582   -848.34132    43.255135    25.812304    64.642835      46.7237      46.7237      46.7237           90           90           90     102002.7   -656.78476 
  513000       512499   -7612.2698    705.63708   -8317.9069    4272.4573   -12590.364    113.26632   -938.23075   -858.78047   -711.62004   -41.129169    171.15543    206.22587      46.7237      46.7237      46.7237           90           90           90     102002.7   -836.21042 
  514000       513499   -7611.5217    698.51282   -8310.0346    4279.3172   -12589.352    112.12276   -477.41327    -1001.824   -535.25982   -17.318139    58.896412   -97.580054      46.7237      46.7237      46.7237           90           90           90     102002.7   -671.49903 
  515000       514499    -7597.723     699.4322   -8297.1552    4291.4186   -12588.574    112.27034   -650.92945   -577.56613   -482.82623    44.728969   -1.1853858    20.271379      46.7237      46.7237      46.7237           90           90           90     102002.7    -570.4406 
  516000       515499   -7611.0195    693.31059   -8304.3301    4310.2618   -12614.592    111.28772   -483.46622   -1296.4702   -783.22129    144.88728    99.688465   -301.57449      46.7237      46.7237      46.7237           90           90           90     102002.7   -854.38591 
  517000       516499   -7622.2427    676.10112   -8298.3438    4300.5925   -12598.936    108.52532    -778.6457   -884.33976   -1157.4832    306.74799   -22.965717     203.6355      46.7237      46.7237      46.7237           90           90           90     102002.7   -940.15622 
  518000       517499   -7588.2276    685.31411   -8273.5417    4311.1839   -12584.726    110.00415   -937.66612   -779.61697   -924.46193     76.55102    76.005258   -155.41002      46.7237      46.7237      46.7237           90           90           90     102002.7   -880.58167 
  519000       518499   -7614.0801    680.37926   -8294.4593    4306.8858   -12601.345    109.21203   -854.46757   -845.32104    -858.5615   -157.76506   -116.82785    229.76608      46.7237      46.7237      46.7237           90           90           90     102002.7   -852.78337 
  520000       519499   -7617.4766    670.51807   -8287.9947    4307.0059   -12595.001    107.62915   -1042.8847   -1167.0097   -890.86199   -95.024091    -384.5082   -123.54225      46.7237      46.7237      46.7237           90           90           90     102002.7   -1033.5855 
  521000       520499   -7594.7438    695.35064   -8290.0945    4304.1844   -12594.279    111.61518   -773.74513    -898.0809   -486.80073    71.017216   -15.415545   -111.03641      46.7237      46.7237      46.7237           90           90           90     102002.7   -719.54225 
  522000       521499   -7628.5435    686.84932   -8315.3928    4276.1828   -12591.576    110.25058   -1099.6806   -1077.6267    -1063.511   -89.080774   -59.821225    115.56175      46.7237      46.7237      46.7237           90           90           90     102002.7   -1080.2728 
  523000       522499   -7621.0089    692.07367   -8313.0825    4293.3394   -12606.422    111.08917   -1087.0616   -1244.2725    -950.7793    52.106369    -246.8239   -136.55601      46.7237      46.7237      46.7237           90           90           90     102002.7   -1094.0378 
  524000       523499   -7623.0902    677.00077   -8300.0909    4301.2144   -12601.305    108.66973   -803.08322   -1188.3916   -726.07704    103.58092    46.568701    209.67953      46.7237      46.7237      46.7237           90           90           90     102002.7   -905.85061 
  525000       524499   -7608.3174    684.57365    -8292.891    4285.0335   -12577.925     109.8853   -879.28993   -1027.0189   -1150.9681   -57.561345   -31.657672     262.6906      46.7237      46.7237      46.7237           90           90           90     102002.7   -1019.0923 
  526000       525499   -7602.0678    692.81678   -8294.8846    4303.8782   -12598.763    111.20846   -440.43967   -988.27346   -522.40935    16.576319    164.71925    34.767247      46.7237      46.7237      46.7237           90           90           90     102002.7   -650.37416 
  527000       526499   -7605.7393    684.24499   -8289.9843    4307.3423   -12597.327    109.83254   -1116.1595    -864.0575   -614.37549    -122.4555    53.872407    224.24471      46.7237      46.7237      46.7237           90           90           90     102002.7   -864.86416 
  528000       527499   -7610.6207     702.0254   -8312.6461    4280.1277   -12592.774    112.68659   -915.86114   -704.63626   -1015.2481   -53.273946    31.753033   -282.60729      46.7237      46.7237      46.7237           90           90           90     102002.7   -878.58182 
  529000       528499   -7600.0974    693.86534   -8293.9628    4286.6661   -12580.629    111.37677   -183.14794   -399.56488   -418.29571    29.988745    106.01858   -52.836392      46.7237      46.7237      46.7237           90           90           90     102002.7   -333.66951 
  530000       529499   -7609.7898    687.90868   -8297.6985    4291.1956   -12588.894    110.42063   -348.03725   -1009.8558   -521.39812   -38.379124    141.31133    22.676422      46.7237      46.7237      46.7237           90           90           90     102002.7    -626.4304 
  531000       530499   -7628.4134    671.73716   -8300.1506    4312.4768   -12612.627    107.82483   -531.98273   -902.20577   -763.29307   -180.93083   -10.796863    255.23247      46.7237      46.7237      46.7237           90           90           90     102002.7   -732.49386 
  532000       531499   -7595.5345    684.55866   -8280.0931    4303.4809   -12583.574    109.88289   -516.28136   -760.03113   -863.92952   -8.5083121   -256.28873     182.9821      46.7237      46.7237      46.7237           90           90           90     102002.7     -713.414 
  533000       532499   -7609.7143    683.63821   -8293.3525    4295.2155   -12588.568    109.73514    -1356.415   -818.66476   -315.62091   -68.517803   -218.00133   -53.656158      46.7237      46.7237      46.7237           90           90           90     102002.7   -830.23356 
  534000       533499   -7615.6301     676.4474   -8292.0775    4312.1383   -12604.216     108.5809   -975.77482   -732.13832   -995.00014    102.13502   -105.11623   -31.151567      46.7237      46.7237      46.7237           90           90           90     102002.7   -900.97109 
  535000       534499   -7594.5409    689.20852   -8283.7495     4291.933   -12575.682    110.62927   -456.94509   -919.92649    -691.9445   -21.530269   -63.941311    194.88536      46.7237      46.7237      46.7237           90           90           90     102002.7   -689.60536 
  536000       535499   -7628.0365     674.0835     -8302.12     4272.769   -12574.889    108.20146   -1049.7611   -933.70596   -554.32445    12.774281   -43.453548   -141.36267      46.7237      46.7237      46.7237           90           90           90     102002.7    -845.9305 
  537000       536499   -7608.8771    687.56271   -8296.4398    4290.7245   -12587.164    110.36509   -413.18387   -1024.3147   -1038.6974     200.2904    30.976645     55.77645      46.7237      46.7237      46.7237           90           90           90     102002.7   -825.39867 
  538000       537499   -7621.6199    693.87941   -8315.4993    4302.0356   -12617.535    111.37903   -1087.0082   -1085.6971   -939.92237   -45.027018   -306.28332     26.69704      46.7237      46.7237      46.7237           90           90           90     102002.7   -1037.5426 
  539000       538499   -7624.7957    680.54085   -8305.3365    4292.3273   -12597.664    109.23797   -538.53908   -1217.2471   -533.63176   -216.67345   -58.530167    20.674852      46.7237      46.7237      46.7237           90           90           90     102002.7   -763.13932 
  540000       539499   -7609.7676    703.91205   -8313.6796    4290.0699    -12603.75    112.98943   -962.26457   -883.98003   -928.91955     7.309708   -255.29201    20.045567      46.7237      46.7237      46.7237           90           90           90     102002.7   -925.05472 
  541000       540499   -7575.4512    709.63828   -8285.0895    4311.7322   -12596.822    113.90858   -795.28745   -1282.8068   -702.28331    60.459277   -22.223615     40.10402      46.7237      46.7237      46.7237           90           90           90     102002.7   -926.79253 
  542000       541499   -7615.7142    664.00192   -8279.7162    4322.1908   -12601.907     106.5832   -291.98929   -1239.1371   -643.34406    27.123379    35.255515    107.26514      46.7237      46.7237      46.7237           90           90           90     102002.7   -724.82348 
  543000       542499   -7607.1085    695.38625   -8302.4948    4292.2227   -12594.717     111.6209   -688.65585   -902.07735   -1268.9906    155.62478   -76.918383    125.87683      46.7237      46.7237      46.7237           90           90           90     102002.7   -953.24126 
  544000       543499    -7629.995    673.62396   -8303.6189    4297.0948   -12600.714    108.12769   -746.70029   -1154.0267   -1078.5474   -182.42366    -126.4929   -135.33745      46.7237      46.7237      46.7237           90           90           90     102002.7   -993.09147 
  545000       544499   -7606.3932    683.40846   -8289.8016    4298.6558   -12588.457    109.69827   -810.65284    -478.6479   -1336.0275    96.768068   -131.25409   -157.96286      46.7237      46.7237      46.7237           90           90           90     102002.7   -875.10943 
  546000       545499   -7597.1518    687.96872   -8285.1205    4305.5971   -12590.718    110.43026   -705.38341   -1029.6045   -561.78629    40.283893     183.9281    76.353277      46.7237      46.7237      46.7237           90           90           90     102002.7   -765.59138 
  547000       546499   -7587.5325    692.75356   -8280.2861    4309.5055   -12589.792    111.19831   -1137.8299   -692.98791   -295.32157   -49.382202   -200.90608    -122.8246      46.7237      46.7237      46.7237           90           90           90     102002.7   -708.71314 
  548000       547499    -7596.513    684.62943   -8281.1424    4300.3435   -12581.486    109.89425   -685.29372   -726.98633    -917.7137    243.77452     195.6314    108.19191      46.7237      46.7237      46.7237           90           90           90     102002.7   -776.66458 
  549000       548499   -7592.1879     684.5761    -8276.764    4291.9896   -12568.754    109.88569   -299.02321   -735.42207   -574.12916   -101.93263   -86.224152   -38.606283      46.7237      46.7237      46.7237           90           90           90     102002.7   -536.19148 
  550000       549499   -7635.6261    681.30492    -8316.931    4284.3008   -12601.232    109.36061   -402.08351   -601.37676   -1174.1696   -241.60775    83.337838    154.23618      46.7237      46.7237      46.7237           90           90           90     102002.7   -725.87663 
  551000       550499   -7611.2503    670.81896   -8282.0693    4335.7056   -12617.775    107.67744   -883.04948   -912.19499   -1104.9174    65.645603    130.56929    141.61525      46.7237      46.7237      46.7237           90           90           90     102002.7   -966.72064 
  552000       551499   -7614.9323    692.74798   -8307.6803    4325.1665   -12632.847    111.19741   -735.73159   -449.14246   -1075.7461   -182.55559    13.783093   -145.13703      46.7237      46.7237      46.7237           90           90           90     102002.7   -753.54004 
  553000       552499    -7611.314    684.30451   -8295.6185    4314.8242   -12610.443     109.8421   -989.16369   -701.95177   -1382.0148   -25.006587    -178.5969   -247.04138      46.7237      46.7237      46.7237           90           90           90     102002.7   -1024.3768 
  554000       553499   -7633.8174    675.71566    -8309.533    4299.0905   -12608.623    108.46344   -862.59534   -1265.1405   -850.79338    346.59872    115.89317    114.06934      46.7237      46.7237      46.7237           90           90           90     102002.7   -992.84307 
  555000       554499   -7623.2609    685.73907        -8309    4308.9203    -12617.92    110.07237   -476.44408   -490.47526   -652.78508    100.75763   -75.648839   -6.1810663      46.7237      46.7237      46.7237           90           90           90     102002.7   -539.90147 
[...]
  936000       935499   -7604.8143    694.44559   -8299.2599    4292.1039   -12591.364    111.46991   -923.61347   -694.49036   -1250.3561   -161.17211    148.26255    259.67552      46.7237      46.7237      46.7237           90           90           90     102002.7   -956.15332 
  937000       936499   -7644.8964     670.2001   -8315.0965    4307.9784   -12623.075    107.57811   -979.86453   -1034.0723   -593.00319    -82.05758    110.80524    174.81902      46.7237      46.7237      46.7237           90           90           90     102002.7   -868.98001 
  938000       937499    -7605.795    690.23722   -8296.0322    4291.0203   -12587.053    110.79439   -823.91509   -1353.8332   -1057.3257     9.571252    349.20783    65.419486      46.7237      46.7237      46.7237           90           90           90     102002.7    -1078.358 
  939000       938499   -7610.5664    684.69083   -8295.2572    4275.9503   -12571.208    109.90411   -458.91878   -552.85479   -1059.2495    32.682562    60.224479   -105.74104      46.7237      46.7237      46.7237           90           90           90     102002.7   -690.34102 
  940000       939499   -7574.7884    705.73932   -8280.5277    4310.7824    -12591.31    113.28274   -601.26822   -1244.2694   -672.23086   -1.6725501      -22.467    86.261885      46.7237      46.7237      46.7237           90           90           90     102002.7   -839.25616 
  941000       940499   -7629.2797    674.90701   -8304.1868    4279.6038   -12583.791    108.33364   -469.89476   -845.46306   -717.52738   -25.836024   -29.363949    11.322626      46.7237      46.7237      46.7237           90           90           90     102002.7    -677.6284 
  942000       941499   -7626.7364    678.52504   -8305.2615    4267.4031   -12572.665     108.9144   -749.17739   -79.587941   -127.35166   -197.70226    2.3747523    181.13243      46.7237      46.7237      46.7237           90           90           90     102002.7   -318.70566 
  943000       942499    -7576.498    698.40736   -8274.9053    4312.2573   -12587.163    112.10583   -1196.5187   -883.17835   -898.81047    44.367672   -26.635654   -62.149459      46.7237      46.7237      46.7237           90           90           90     102002.7   -992.83583 
  944000       943499    -7631.176    688.56557   -8319.7416     4275.159   -12594.901    110.52607   -395.32022   -482.05294   -198.84541   -126.84349   -114.51318   -11.600445      46.7237      46.7237      46.7237           90           90           90     102002.7   -358.73953 
  945000       944499   -7613.6071    679.31551   -8292.9226    4298.8336   -12591.756    109.04128   -1069.9808   -918.89869   -727.27445   -241.84947   -99.675485    138.26583      46.7237      46.7237      46.7237           90           90           90     102002.7   -905.38463 
  946000       945499   -7602.2788    685.39367   -8287.6725    4292.6852   -12580.358    110.01693   -871.55788   -583.82474   -579.67913    227.25259   -190.08865   -17.198675      46.7237      46.7237      46.7237           90           90           90     102002.7   -678.35391 
  947000       946499   -7595.8372    700.92228   -8296.7595    4293.3186   -12590.078    112.50952   -1206.9504   -931.92607   -560.88386    249.09942    133.56768   -60.738089      46.7237      46.7237      46.7237           90           90           90     102002.7   -899.92011 
  948000       947499   -7584.1909    691.82687   -8276.0178    4305.1231   -12581.141    111.04956   -1008.6905   -994.29038     -678.091   0.47905962    22.771493   -307.08816      46.7237      46.7237      46.7237           90           90           90     102002.7   -893.69063 
  949000       948499   -7627.8562    674.88366   -8302.7398    4292.1599     -12594.9     108.3299   -952.07461   -1004.2152   -871.75793    44.857153   -112.60855     90.92607      46.7237      46.7237      46.7237           90           90           90     102002.7   -942.68259 
  950000       949499   -7654.8545     666.9814   -8321.8359    4277.4856   -12599.321    107.06145   -536.55566   -615.59944   -705.54275    22.993442    204.30018    320.40563      46.7237      46.7237      46.7237           90           90           90     102002.7   -619.23262 
  951000       950499   -7610.5242    687.61376   -8298.1379    4297.9123    -12596.05    110.37329   -675.54371   -754.24858   -667.12401   -28.060308    95.196505   -184.77203      46.7237      46.7237      46.7237           90           90           90     102002.7    -698.9721 
  952000       951499   -7619.8676    668.94931   -8288.8169    4298.9711   -12587.788    107.37734   -573.56877   -891.56276   -1169.8502    93.417732   -28.569482   -112.51198      46.7237      46.7237      46.7237           90           90           90     102002.7   -878.32723 
  953000       952499   -7591.5313    699.43595   -8290.9672    4303.2631    -12594.23    112.27094   -444.28022    -993.5114   -439.08591    221.60718    173.00501    126.97837      46.7237      46.7237      46.7237           90           90           90     102002.7   -625.62584 
  954000       953499   -7605.1694    689.21352   -8294.3829    4310.1225   -12604.505    110.63007   -573.62478   -648.83618   -492.49017    102.17678      -124.89    168.04503      46.7237      46.7237      46.7237           90           90           90     102002.7   -571.65038 
  955000       954499   -7607.0746    688.16848    -8295.243    4292.3902   -12587.633    110.46233   -817.36991   -837.23515   -594.70914    40.714293    75.747176   -97.271145      46.7237      46.7237      46.7237           90           90           90     102002.7    -749.7714 
  956000       955499   -7627.2311    676.05495   -8303.2861    4277.8389   -12581.125    108.51791   -514.53607   -729.89486   -327.90772   -217.25887   -56.988511   -103.79144      46.7237      46.7237      46.7237           90           90           90     102002.7   -524.11288 
  957000       956499   -7599.6977    692.80892   -8292.5066    4295.3904   -12587.897    111.20719   -1503.8795   -709.74608   -568.53518   -16.887025   -298.78894   -153.34363      46.7237      46.7237      46.7237           90           90           90     102002.7   -927.38693 
  958000       957499    -7591.406    714.23772   -8305.6438     4284.632   -12590.276    114.64687   -937.41902   -978.19697     -1204.21    139.17801   -67.362365    269.43302      46.7237      46.7237      46.7237           90           90           90     102002.7    -1039.942 
  959000       958499   -7606.7304    690.37236   -8297.1027     4307.819   -12604.922    110.81609    -775.4007   -922.54826    -885.3761    38.666107   -182.63027    -31.98344      46.7237      46.7237      46.7237           90           90           90     102002.7   -861.10836 
  960000       959499   -7579.9629    703.24513   -8283.2081    4307.1004   -12590.308    112.88238   -1077.8409   -631.23139   -597.72479    294.56917    396.33361    235.60661      46.7237      46.7237      46.7237           90           90           90     102002.7   -768.93236 
  961000       960499   -7641.1686    662.62866   -8303.7972    4295.3172   -12599.114    106.36277   -781.67019   -1204.1967   -1201.8677    -168.4774   -70.170239    49.325566      46.7237      46.7237      46.7237           90           90           90     102002.7   -1062.5782 
  962000       961499   -7600.5387    700.76012   -8301.2988    4286.5205   -12587.819    112.48349    -1121.883   -1188.4868   -900.47891   -57.421958   -84.603902    115.66775      46.7237      46.7237      46.7237           90           90           90     102002.7   -1070.2829 
  963000       962499   -7618.1106    679.92521   -8298.0358    4303.3731   -12601.409    109.13915   -1065.6288   -840.54092   -418.36032    142.50473   -9.5171217    190.02649      46.7237      46.7237      46.7237           90           90           90     102002.7   -774.84335 
  964000       963499   -7628.2575    680.34736   -8308.6048    4273.2582   -12581.863    109.20691   -1155.4592   -1121.2778   -829.19511   -142.70327   -58.082087    272.38354      46.7237      46.7237      46.7237           90           90           90     102002.7   -1035.3107 
  965000       964499   -7606.7646    695.04355   -8301.8082    4283.1797   -12584.988    111.56589   -364.28591   -836.94653   -998.96561    44.170324    -184.5833    10.874134      46.7237      46.7237      46.7237           90           90           90     102002.7   -733.39935 
  966000       965499   -7596.0515     712.1722   -8308.2237    4272.0183   -12580.242    114.31532   -853.33073   -922.73716   -564.16504   -30.377239    69.668511   -202.13143      46.7237      46.7237      46.7237           90           90           90     102002.7   -780.07764 
  967000       966499   -7633.4358    680.97364   -8314.4094    4289.0787   -12603.488    109.30744   -459.28647   -975.21189    -1194.307   -27.878716    171.12408    128.04301      46.7237      46.7237      46.7237           90           90           90     102002.7   -876.26845 
  968000       967499   -7605.7991     673.7464   -8279.5455    4302.1235   -12581.669    108.14735   -656.11566   -1194.8614   -1087.6053    139.66879   -151.36988   -167.48295      46.7237      46.7237      46.7237           90           90           90     102002.7   -979.52746 
  969000       968499   -7594.2131    695.60196   -8289.8151    4274.2618   -12564.077    111.65552   -1090.1097   -594.04931   -1127.2193    24.550574    39.864963    88.722147      46.7237      46.7237      46.7237           90           90           90     102002.7   -937.12612 
  970000       969499   -7625.9623    673.85956   -8299.8219    4281.6295   -12581.451    108.16551   -568.07565   -852.14536   -899.98147   -84.546709     53.39289    54.378787      46.7237      46.7237      46.7237           90           90           90     102002.7   -773.40083 
  971000       970499    -7605.591     687.7154   -8293.3065    4293.3372   -12586.644     110.3896   -666.64341   -1329.4213   -805.61521  0.050646678    213.01948     238.8258      46.7237      46.7237      46.7237           90           90           90     102002.7   -933.89331 
  972000       971499   -7612.5588    699.28707   -8311.8459    4290.6857   -12602.532    112.24704    -344.6038   -611.74296   -906.24378    121.24973    131.94511   -234.95049      46.7237      46.7237      46.7237           90           90           90     102002.7   -620.86352 
  973000       972499   -7604.5439    685.55433   -8290.0983    4299.6835   -12589.782    110.04271   -844.35609   -652.06019   -963.50596    11.419103   -197.13769    99.365615      46.7237      46.7237      46.7237           90           90           90     102002.7   -819.97408 
  974000       973499   -7617.8841    689.80348   -8307.6876     4272.912     -12580.6    110.72477   -727.60477   -870.58419   -244.84517   -240.02174    269.14597    29.609047      46.7237      46.7237      46.7237           90           90           90     102002.7   -614.34471 
  975000       974499   -7619.0755    686.43551    -8305.511    4298.6531   -12604.164    110.18416   -1157.1919   -842.14571   -1542.3467    85.299078   -53.869189   -283.10129      46.7237      46.7237      46.7237           90           90           90     102002.7   -1180.5614 
  976000       975499   -7604.8678    680.42084   -8285.2886    4294.5069   -12579.796     109.2187   -428.66301   -284.90793    -593.5552   -49.574864    19.461695   -17.550951      46.7237      46.7237      46.7237           90           90           90     102002.7   -435.70872 
  977000       976499   -7609.0129    699.49111    -8308.504    4275.8307   -12584.335     112.2798   -906.71424   -1019.9436   -327.55272    54.162833    332.15741    41.770174      46.7237      46.7237      46.7237           90           90           90     102002.7   -751.40353 
  978000       977499   -7581.9447    697.24881   -8279.1935    4319.1626   -12598.356    111.91987   -464.41306   -741.58388   -855.98039    164.13511   -48.094769    99.058331      46.7237      46.7237      46.7237           90           90           90     102002.7   -687.32578 
  979000       978499   -7613.5022    677.16777   -8290.6699    4287.9853   -12578.655    108.69653    -503.1655   -880.66439   -174.28772   -124.40551    92.413295   -3.8527734      46.7237      46.7237      46.7237           90           90           90     102002.7   -519.37254 
  980000       979499   -7606.2651    675.24558   -8281.5107    4308.7897     -12590.3    108.38799   -1034.9566   -1141.9993   -626.96002   -146.38945    101.42028   -93.808297      46.7237      46.7237      46.7237           90           90           90     102002.7   -934.63864 
  981000       980499   -7590.0965    680.84023   -8270.9368     4319.185   -12590.122    109.28602   -799.06433   -366.03978    -1001.648   -53.526885    28.139657    88.119589      46.7237      46.7237      46.7237           90           90           90     102002.7   -722.25072 
  982000       981499   -7587.0845    703.06627   -8290.1508     4292.806   -12582.957    112.85367   -885.03235   -1010.6533   -1121.2323    137.24789    17.869571   -68.173722      46.7237      46.7237      46.7237           90           90           90     102002.7   -1005.6393 
  983000       982499   -7624.5504    686.49511   -8311.0455    4304.7791   -12615.825    110.19372   -664.36086   -929.46379   -898.47441    239.62213   -68.141852    69.143343      46.7237      46.7237      46.7237           90           90           90     102002.7   -830.76635 
  984000       983499   -7591.9725    712.42214   -8304.3946    4306.3373   -12610.732    114.35544   -363.79321   -917.28267     -891.211   -23.991946    26.108323   -27.926627      46.7237      46.7237      46.7237           90           90           90     102002.7   -724.09563 
  985000       984499   -7628.2691    670.09538   -8298.3644      4300.93   -12599.294     107.5613   -1027.6446    -1525.416   -713.80312    31.851316   0.65202324    134.25223      46.7237      46.7237      46.7237           90           90           90     102002.7   -1088.9546 
  986000       985499   -7619.2378    690.77797   -8310.0157    4305.2033   -12615.219    110.88119   -769.26001   -521.95977   -775.71212    131.19182   -8.1855922   -97.127281      46.7237      46.7237      46.7237           90           90           90     102002.7    -688.9773 
  987000       986499   -7601.1384    683.30836   -8284.4468    4298.5397   -12582.986     109.6822   -497.20792   -1177.9255   -454.81192   -46.280439    192.78471     2.117768      46.7237      46.7237      46.7237           90           90           90     102002.7   -709.98177 
  988000       987499    -7603.573    690.07816   -8293.6512    4290.1259   -12583.777    110.76886   -938.85993   -295.64089   -975.00143    76.081595    156.28296    90.823724      46.7237      46.7237      46.7237           90           90           90     102002.7   -736.50075 
  989000       988499   -7621.3017    684.28103   -8305.5828    4295.7537   -12601.336    109.83833   -767.39769    -658.8954   -1296.0761    6.8103073   -12.570512   -87.465476      46.7237      46.7237      46.7237           90           90           90     102002.7   -907.45639 
  990000       989499   -7628.3304    666.26724   -8294.5976    4313.0729   -12607.671    106.94682   -1015.0087    -1268.033   -1314.7736   -73.049778   -75.313314   -79.466707      46.7237      46.7237      46.7237           90           90           90     102002.7   -1199.2718 
  991000       990499   -7607.9315    705.14737   -8313.0789    4272.2158   -12585.295    113.18772   -1021.5186   -797.36386   -787.92476   -64.720533   -30.120582    197.51041      46.7237      46.7237      46.7237           90           90           90     102002.7   -868.93576 
  992000       991499   -7659.8634    668.66481   -8328.5282    4281.2465   -12609.775    107.33167   -467.86409   -812.44817   -1157.1653     81.05636    -146.2649    70.929207      46.7237      46.7237      46.7237           90           90           90     102002.7   -812.49251 
  993000       992499   -7610.1123    683.70206   -8293.8143    4281.3671   -12575.181    109.74539   -370.13625   -1013.5721   -825.00206    55.925061   -43.089261    28.285667      46.7237      46.7237      46.7237           90           90           90     102002.7   -736.23681 
  994000       993499   -7617.7717    689.72828      -8307.5    4292.1032   -12599.603     110.7127   -1172.4578   -925.61307    -363.9634    220.10586    194.45682    125.24697      46.7237      46.7237      46.7237           90           90           90     102002.7   -820.67808 
  995000       994499   -7591.9222    666.84605   -8258.7683    4335.7501   -12594.518    107.03973   -1111.1291   -1091.9158   -914.59529   -35.259757   -11.893851   -95.518165      46.7237      46.7237      46.7237           90           90           90     102002.7   -1039.2134 
  996000       995499   -7624.9197    672.80268   -8297.7224    4295.2246   -12592.947    107.99586   -285.91041   -1199.0746    -660.7673   -38.506132    89.717726    158.06813      46.7237      46.7237      46.7237           90           90           90     102002.7   -715.25076 
  997000       996499   -7622.1692    666.94134   -8289.1105    4314.8159   -12603.926    107.05502   -1101.5235   -1220.3423   -891.77413   -294.93925   -107.90576   -131.14881      46.7237      46.7237      46.7237           90           90           90     102002.7   -1071.2133 
  998000       997499   -7623.0841    693.74759   -8316.8317     4284.722   -12601.554    111.35787   -469.14358   -1394.8427   -559.78705    31.113368   -263.82257    117.03989      46.7237      46.7237      46.7237           90           90           90     102002.7   -807.92444 
  999000       998499   -7617.5452     685.9738   -8303.5189    4321.0691   -12624.588    110.11004   -1113.8472   -787.68065   -1190.4211    50.605488    112.87445    255.82252      46.7237      46.7237      46.7237           90           90           90     102002.7   -1030.6497 
 1000000       999499   -7607.7252     675.0278    -8282.753     4306.485   -12589.238    108.35303   -863.75262    -752.8136   -948.52587   -159.46442   -209.63476   -161.42545      46.7237      46.7237      46.7237           90           90           90     102002.7    -855.0307 
 1000501      1000000   -7624.5697    671.46142   -8296.0311    4297.1093    -12593.14    107.78057   -521.22207   -752.47408   -881.24248   -201.54884    168.45255   -53.026399      46.7237      46.7237      46.7237           90           90           90     102002.7   -718.31287 
Loop time of 679.409 on 24 procs for 500000 steps with 2091 atoms

Performance: 63.585 ns/day, 0.377 hours/ns, 735.934 timesteps/s
99.0% CPU use with 24 MPI tasks x no OpenMP threads

MPI task timing breakdown:
Section |  min time  |  avg time  |  max time  |%varavg| %total
---------------------------------------------------------------
Pair    | 282.05     | 355.78     | 437.24     | 247.0 | 52.37
Bond    | 53.648     | 82.396     | 117        | 239.1 | 12.13
Neigh   | 3.4734     | 3.4981     | 3.5217     |   0.9 |  0.51
Comm    | 117.76     | 219.63     | 314.49     | 394.0 | 32.33
Output  | 0.40765    | 0.44833    | 0.45025    |   1.3 |  0.07
Modify  | 11.969     | 12.581     | 13.016     |   9.0 |  1.85
Other   |            | 5.076      |            |       |  0.75

Nlocal:    87.125 ave 115 max 50 min
Histogram: 1 3 1 3 1 2 3 3 3 4
Nghost:    2373.12 ave 2562 max 2269 min
Histogram: 9 4 3 0 0 0 0 3 3 2
Neighs:    7637.17 ave 10286 max 4417 min
Histogram: 2 2 0 0 7 2 3 3 4 1

Total # of neighbors = 183292
Ave neighs/atom = 87.6576
Ave special neighs/atom = 5.50933
Neighbor list builds = 4382
Dangerous builds = 0
Total wall time: 0:21:34
