LAMMPS (30 Mar 2018)
Reading data file ...
  orthogonal box = (0 0 0) to (46.7237 46.7237 46.7237)
  2 by 2 by 4 MPI processor grid
  reading atoms ...
  2049 atoms
  scanning bonds ...
  5 = max bonds/atom
  scanning angles ...
  10 = max angles/atom
  scanning dihedrals ...
  32 = max dihedrals/atom
  scanning impropers ...
  3 = max impropers/atom
  reading bonds ...
  2064 bonds
  reading angles ...
  3696 angles
  reading dihedrals ...
  6240 dihedrals
  reading impropers ...
  1008 impropers
Finding 1-2 1-3 1-4 neighbors ...
  special bond factors lj:   0          0          0         
  special bond factors coul: 0          0          0         
  5 = max # of 1-2 neighbors
  8 = max # of 1-3 neighbors
  20 = max # of 1-4 neighbors
  19 = max # of special neighbors
Finding 1-2 1-3 1-4 neighbors ...
  special bond factors lj:   0          0          1         
  special bond factors coul: 1          1          1         
  5 = max # of 1-2 neighbors
  8 = max # of 1-3 neighbors
  19 = max # of special neighbors
WARNING: Using 'neigh_modify every 1 delay 0 check yes' setting during minimization (../min.cpp:168)
Neighbor list info ...
  update every 1 steps, delay 0 steps, check yes
  max neighbors/atom: 2000, page size: 100000
  master list distance cutoff = 16
  ghost atom cutoff = 16
  binsize = 8, bins = 6 6 6
  3 neighbor lists, perpetual/occasional/extra = 3 0 0
  (1) pair buck6d/coul/gauss/dsf, perpetual, skip from (3)
      attributes: half, newton on
      pair build: skip
      stencil: none
      bin: none
  (2) pair lj/cut, perpetual, skip from (3)
      attributes: half, newton on
      pair build: skip
      stencil: none
      bin: none
  (3) neighbor class addition, perpetual
      attributes: half, newton on
      pair build: half/bin/newton
      stencil: half/bin/3d/newton
      bin: standard
Setting up cg style minimization ...
  Unit style    : real
  Current step  : 0
WARNING: Inconsistent image flags (../domain.cpp:786)
Per MPI rank memory allocation (min/avg/max) = 22.91 | 23.37 | 23.81 Mbytes
Step Temp E_pair E_mol TotEng Press 
       0            0   -12565.837    6482.8914   -6082.9453    6139.6279 
     502            0   -12643.024    3722.6417   -8920.3824    -618.3873 
Loop time of 3.00331 on 16 procs for 502 steps with 2049 atoms

99.8% CPU use with 16 MPI tasks x no OpenMP threads

Minimization stats:
  Stopping criterion = max force evaluations
  Energy initial, next-to-last, final = 
        -6082.94534064     -8920.34158269     -8920.38239125
  Force two-norm initial, final = 2574.42 9.68855
  Force max component initial, final = 152.077 1.61755
  Final line search alpha, max atom move = 0.00217741 0.00352206
  Iterations, force evaluations = 502 1000

MPI task timing breakdown:
Section |  min time  |  avg time  |  max time  |%varavg| %total
---------------------------------------------------------------
Pair    | 1.5058     | 1.8549     | 2.2357     |  18.9 | 61.76
Bond    | 0.2821     | 0.35979    | 0.44741    |   7.1 | 11.98
Neigh   | 0.023956   | 0.024093   | 0.024191   |   0.0 |  0.80
Comm    | 0.34975    | 0.72472    | 1.055      |  28.5 | 24.13
Output  | 0          | 0          | 0          |   0.0 |  0.00
Modify  | 0          | 0          | 0          |   0.0 |  0.00
Other   |            | 0.03986    |            |       |  1.33

Nlocal:    128.062 ave 146 max 100 min
Histogram: 1 0 1 3 0 2 2 3 1 3
Nghost:    2492.44 ave 2522 max 2476 min
Histogram: 3 2 4 2 0 1 1 2 0 1
Neighs:    11458.5 ave 15801 max 7510 min
Histogram: 2 0 4 2 1 1 2 0 3 1

Total # of neighbors = 183336
Ave neighs/atom = 89.4758
Ave special neighs/atom = 5.62225
Neighbor list builds = 15
Dangerous builds = 0
Neighbor list info ...
  update every 1 steps, delay 10 steps, check yes
  max neighbors/atom: 2000, page size: 100000
  master list distance cutoff = 16
  ghost atom cutoff = 16
  binsize = 8, bins = 6 6 6
  3 neighbor lists, perpetual/occasional/extra = 3 0 0
  (1) pair buck6d/coul/gauss/dsf, perpetual, skip from (3)
      attributes: half, newton on
      pair build: skip
      stencil: none
      bin: none
  (2) pair lj/cut, perpetual, skip from (3)
      attributes: half, newton on
      pair build: skip
      stencil: none
      bin: none
  (3) neighbor class addition, perpetual
      attributes: half, newton on
      pair build: half/bin/newton
      stencil: half/bin/3d/newton
      bin: standard
Setting up Verlet run ...
  Unit style    : real
  Current step  : 502
  Time step     : 1
WARNING: Inconsistent image flags (../domain.cpp:786)
Per MPI rank memory allocation (min/avg/max) = 22.56 | 22.64 | 22.88 Mbytes
Step Temp PotEng TotEng Press Volume Lx Ly Lz 
     502           91   -8920.3824   -8364.8548   -369.42888     102002.7      46.7237      46.7237      46.7237 
    1000    78.665005   -8430.3827   -7950.1565   -621.96858     102002.7      46.7237      46.7237      46.7237 
    2000    97.110029   -8363.2224   -7770.3949   -632.17438     102002.7      46.7237      46.7237      46.7237 
    3000    89.917155   -8318.8888   -7769.9717   -912.67228     102002.7      46.7237      46.7237      46.7237 
    4000    90.368743      -8325.9    -7774.226   -853.10552     102002.7      46.7237      46.7237      46.7237 
    5000      91.5282    -8328.754   -7770.0019   -952.57796     102002.7      46.7237      46.7237      46.7237 
    6000    87.999147   -8339.6216   -7802.4133   -752.64305     102002.7      46.7237      46.7237      46.7237 
    7000     93.18867   -8340.0107   -7771.1219    -659.2235     102002.7      46.7237      46.7237      46.7237 
    8000    90.142959   -8341.8915   -7791.5959   -734.80701     102002.7      46.7237      46.7237      46.7237 
    9000    89.378544   -8325.3346   -7779.7055   -853.60535     102002.7      46.7237      46.7237      46.7237 
   10000    92.963406    -8336.594   -7769.0804   -645.95081     102002.7      46.7237      46.7237      46.7237 
   11000    91.577839   -8368.5789   -7809.5238    -420.1139     102002.7      46.7237      46.7237      46.7237 
   12000    92.090917   -8344.4608   -7782.2734   -563.64034     102002.7      46.7237      46.7237      46.7237 
   13000     94.50778   -8352.3537   -7775.4122   -669.52659     102002.7      46.7237      46.7237      46.7237 
   14000    92.127003   -8345.6933   -7783.2856   -782.77355     102002.7      46.7237      46.7237      46.7237 
   15000    89.996398   -8334.0354   -7784.6345    -787.7595     102002.7      46.7237      46.7237      46.7237 
   16000    92.832815   -8361.2779   -7794.5615   -819.65973     102002.7      46.7237      46.7237      46.7237 
   17000    95.589697   -8342.7189   -7759.1726   -789.49833     102002.7      46.7237      46.7237      46.7237 
   18000    89.273354   -8322.4022   -7777.4152   -674.72642     102002.7      46.7237      46.7237      46.7237 
   19000    90.134861   -8330.5337   -7780.2876   -774.78562     102002.7      46.7237      46.7237      46.7237 
   20000    91.576625   -8338.0319   -7778.9842     -668.293     102002.7      46.7237      46.7237      46.7237 
   21000    91.746428   -8343.0621   -7782.9778   -915.90411     102002.7      46.7237      46.7237      46.7237 
   22000    89.924212   -8333.9387   -7784.9784   -900.41164     102002.7      46.7237      46.7237      46.7237 
   23000    91.923346   -8332.3021   -7771.1377   -716.18448     102002.7      46.7237      46.7237      46.7237 
   24000     92.79614   -8319.9481   -7753.4556   -1093.5164     102002.7      46.7237      46.7237      46.7237 
   25000     89.53262   -8338.7249   -7792.1552   -612.33033     102002.7      46.7237      46.7237      46.7237 
   26000    89.598718   -8326.0126   -7779.0394    -833.3511     102002.7      46.7237      46.7237      46.7237 
   27000    90.295845    -8320.983   -7769.7541    -820.8784     102002.7      46.7237      46.7237      46.7237 
   28000    93.540681   -8335.8357    -7764.798   -645.94588     102002.7      46.7237      46.7237      46.7237 
   29000    91.497873   -8333.8124   -7775.2454   -709.73372     102002.7      46.7237      46.7237      46.7237 
   30000    91.272791   -8339.6649    -7782.472   -625.94101     102002.7      46.7237      46.7237      46.7237 
   31000    92.771909   -8335.2223   -7768.8778   -533.26775     102002.7      46.7237      46.7237      46.7237 
   32000    94.928527   -8330.9761   -7751.4661   -404.44453     102002.7      46.7237      46.7237      46.7237 
   33000     91.47599   -8331.4836   -7773.0502   -547.83535     102002.7      46.7237      46.7237      46.7237 
   34000    88.865553    -8350.195   -7807.6976   -854.36131     102002.7      46.7237      46.7237      46.7237 
   35000    90.653944   -8338.5674   -7785.1524   -679.53713     102002.7      46.7237      46.7237      46.7237 
   36000    88.800693   -8340.7875    -7798.686   -817.17308     102002.7      46.7237      46.7237      46.7237 
   37000    93.622888   -8348.1667   -7776.6272   -696.32111     102002.7      46.7237      46.7237      46.7237 
   38000    92.143776    -8312.884    -7750.374   -532.19181     102002.7      46.7237      46.7237      46.7237 
   39000    91.337734   -8323.8995   -7766.3102   -824.60074     102002.7      46.7237      46.7237      46.7237 
   40000    92.226575   -8335.8134   -7772.7979   -461.90273     102002.7      46.7237      46.7237      46.7237 
   41000    93.489584   -8344.7824   -7774.0567   -561.58261     102002.7      46.7237      46.7237      46.7237 
   42000     90.27036   -8343.8374   -7792.7641   -589.98149     102002.7      46.7237      46.7237      46.7237 
   43000    93.759388   -8338.5754   -7766.2025   -711.19266     102002.7      46.7237      46.7237      46.7237 
   44000    90.801606   -8337.9059   -7783.5894   -757.02249     102002.7      46.7237      46.7237      46.7237 
   45000     92.40124   -8337.9133   -7773.8316   -409.23778     102002.7      46.7237      46.7237      46.7237 
   46000    89.785503   -8326.6982   -7778.5848   -762.84173     102002.7      46.7237      46.7237      46.7237 
   47000      91.5136   -8329.1571   -7770.4941   -601.12098     102002.7      46.7237      46.7237      46.7237 
   48000    89.478219    -8322.716   -7776.4784   -753.93657     102002.7      46.7237      46.7237      46.7237 
   49000    94.644382   -8329.2505   -7751.4751   -843.28133     102002.7      46.7237      46.7237      46.7237 
   50000    89.874021   -8323.8835   -7775.2297   -548.23507     102002.7      46.7237      46.7237      46.7237 
   51000    91.433061   -8324.5505   -7766.3791    -775.1416     102002.7      46.7237      46.7237      46.7237 
   52000    88.347259   -8323.8896   -7784.5562   -687.76042     102002.7      46.7237      46.7237      46.7237 
   53000    93.498372   -8342.7948   -7772.0154   -737.29841     102002.7      46.7237      46.7237      46.7237 
   54000    91.616591   -8329.6416   -7770.3499   -737.04666     102002.7      46.7237      46.7237      46.7237 
   55000    90.382849   -8333.1097   -7781.3496   -703.23625     102002.7      46.7237      46.7237      46.7237 
   56000    90.079925   -8329.2438    -7779.333   -650.09075     102002.7      46.7237      46.7237      46.7237 
   57000    89.334351   -8337.6784   -7792.3191   -841.60996     102002.7      46.7237      46.7237      46.7237 
   58000     90.79808   -8336.2621   -7781.9672   -763.92577     102002.7      46.7237      46.7237      46.7237 
   59000    92.387652   -8323.7094   -7759.7106   -730.87646     102002.7      46.7237      46.7237      46.7237 
   60000    92.451118   -8319.6051   -7755.2189   -821.18448     102002.7      46.7237      46.7237      46.7237 
   61000    91.838974   -8334.4169   -7773.7676   -985.19456     102002.7      46.7237      46.7237      46.7237 
   62000    89.801476   -8324.5879   -7776.3769   -1074.0754     102002.7      46.7237      46.7237      46.7237 
   63000    91.690846   -8327.4272   -7767.6822   -693.60203     102002.7      46.7237      46.7237      46.7237 
   64000    89.356842   -8306.6221   -7761.1255   -884.47408     102002.7      46.7237      46.7237      46.7237 
   65000    87.660068   -8330.6539   -7795.5156   -669.69369     102002.7      46.7237      46.7237      46.7237 
   66000    90.850666   -8316.0475   -7761.4315   -970.68644     102002.7      46.7237      46.7237      46.7237 
   67000    90.075128   -8323.8905    -7774.009   -814.95905     102002.7      46.7237      46.7237      46.7237 
   68000    89.516903   -8315.5762   -7769.1024   -884.33677     102002.7      46.7237      46.7237      46.7237 
   69000    91.601576   -8326.6825   -7767.4825   -875.36306     102002.7      46.7237      46.7237      46.7237 
   70000    91.162528   -8336.8212   -7780.3014   -603.86322     102002.7      46.7237      46.7237      46.7237 
   71000    90.034245   -8324.1714   -7774.5394   -592.87705     102002.7      46.7237      46.7237      46.7237 
   72000    90.812862   -8331.2088   -7776.8237   -483.07364     102002.7      46.7237      46.7237      46.7237 
   73000    91.965157   -8330.0477   -7768.6281   -627.21096     102002.7      46.7237      46.7237      46.7237 
   74000    90.767431   -8341.1434   -7787.0355   -682.31824     102002.7      46.7237      46.7237      46.7237 
   75000    90.258508   -8341.8653   -7790.8643   -765.18624     102002.7      46.7237      46.7237      46.7237 
   76000    91.091511   -8315.5879   -7759.5016   -644.95645     102002.7      46.7237      46.7237      46.7237 
   77000     92.57639   -8326.2324   -7761.0814   -621.13861     102002.7      46.7237      46.7237      46.7237 
   78000    88.331639   -8333.0393   -7793.8013   -848.40871     102002.7      46.7237      46.7237      46.7237 
   79000    88.908841     -8319.55   -7776.7883    -850.8578     102002.7      46.7237      46.7237      46.7237 
   80000    90.331979   -8325.3283   -7773.8788   -763.71367     102002.7      46.7237      46.7237      46.7237 
   81000    91.021993   -8326.4108   -7770.7489   -598.80935     102002.7      46.7237      46.7237      46.7237 
   82000    90.470836   -8324.4183    -7772.121   -811.63267     102002.7      46.7237      46.7237      46.7237 
   83000    92.220433   -8312.0699   -7749.0919   -962.44701     102002.7      46.7237      46.7237      46.7237 
   84000    91.120368   -8342.3548   -7786.0924   -730.31142     102002.7      46.7237      46.7237      46.7237 
   85000    90.541268   -8332.0493   -7779.3221   -812.34835     102002.7      46.7237      46.7237      46.7237 
   86000    91.589623   -8315.2551    -7756.128   -962.48933     102002.7      46.7237      46.7237      46.7237 
   87000     91.24757   -8337.2534   -7780.2144   -691.15005     102002.7      46.7237      46.7237      46.7237 
   88000    88.709129   -8349.4649   -7807.9223   -893.87137     102002.7      46.7237      46.7237      46.7237 
   89000    90.108957   -8325.3041   -7775.2161   -1010.4204     102002.7      46.7237      46.7237      46.7237 
   90000    92.172266   -8317.4788   -7754.7949   -648.20803     102002.7      46.7237      46.7237      46.7237 
   91000    90.284849   -8315.6955   -7764.5337   -886.32303     102002.7      46.7237      46.7237      46.7237 
   92000    91.391961   -8324.3399   -7766.4195   -820.48277     102002.7      46.7237      46.7237      46.7237 
   93000    88.868558     -8334.59   -7792.0742   -1048.5369     102002.7      46.7237      46.7237      46.7237 
   94000    92.193389   -8329.1138    -7766.301   -875.61667     102002.7      46.7237      46.7237      46.7237 
   95000     92.18096   -8329.1164   -7766.3794   -720.00028     102002.7      46.7237      46.7237      46.7237 
   96000    90.093316   -8361.3605   -7811.3679   -800.78735     102002.7      46.7237      46.7237      46.7237 
   97000    94.257709   -8326.5608   -7751.1459   -681.86036     102002.7      46.7237      46.7237      46.7237 
   98000    92.219549   -8324.4993   -7761.5267   -673.14102     102002.7      46.7237      46.7237      46.7237 
   99000      92.2453   -8321.3623   -7758.2325   -802.52892     102002.7      46.7237      46.7237      46.7237 
  100000    90.583864   -8339.7608   -7786.7736   -607.50732     102002.7      46.7237      46.7237      46.7237 
  101000     91.75144   -8325.0878   -7764.9729    -1159.892     102002.7      46.7237      46.7237      46.7237 
  102000    89.465637    -8317.285   -7771.1242   -708.61698     102002.7      46.7237      46.7237      46.7237 
  103000    90.439839   -8310.3402   -7758.2322   -867.53569     102002.7      46.7237      46.7237      46.7237 
  104000    94.285689   -8306.6253   -7731.0395   -855.34051     102002.7      46.7237      46.7237      46.7237 
  105000    90.580533   -8326.1286   -7773.1617   -729.16218     102002.7      46.7237      46.7237      46.7237 
  106000    91.307061   -8344.2749   -7786.8728   -701.94179     102002.7      46.7237      46.7237      46.7237 
  107000    91.983731   -8334.0688   -7772.5358   -802.12299     102002.7      46.7237      46.7237      46.7237 
  108000    88.613076   -8339.7289   -7798.7728   -854.26631     102002.7      46.7237      46.7237      46.7237 
  109000    89.982988   -8323.6322   -7774.3132   -799.71188     102002.7      46.7237      46.7237      46.7237 
  110000    93.102586   -8309.7665   -7741.4032   -749.81633     102002.7      46.7237      46.7237      46.7237 
  111000    93.076643   -8338.2604   -7770.0555   -691.02923     102002.7      46.7237      46.7237      46.7237 
  112000    91.843665   -8310.3264   -7749.6485   -753.27838     102002.7      46.7237      46.7237      46.7237 
  113000    91.816652   -8331.6393   -7771.1262   -623.76009     102002.7      46.7237      46.7237      46.7237 
  114000    89.964743   -8311.5183   -7762.3107   -455.09424     102002.7      46.7237      46.7237      46.7237 
  115000    89.784586   -8309.7972   -7761.6893   -689.14607     102002.7      46.7237      46.7237      46.7237 
  116000     88.87385   -8313.4288   -7770.8807   -740.71462     102002.7      46.7237      46.7237      46.7237 
  117000    90.085021   -8336.7399   -7786.7979   -848.01639     102002.7      46.7237      46.7237      46.7237 
  118000    91.518745   -8319.4109   -7760.7165   -820.71549     102002.7      46.7237      46.7237      46.7237 
  119000    90.906842    -8324.328   -7769.3691   -681.09948     102002.7      46.7237      46.7237      46.7237 
  120000    91.245851   -8335.7209   -7778.6925   -637.00312     102002.7      46.7237      46.7237      46.7237 
  121000    85.835806   -8339.3064   -7815.3046   -801.57868     102002.7      46.7237      46.7237      46.7237 
  122000    89.408301   -8323.9866   -7778.1758   -470.66614     102002.7      46.7237      46.7237      46.7237 
  123000    92.358559   -8346.3528   -7782.5316   -736.15327     102002.7      46.7237      46.7237      46.7237 
  124000    86.810792   -8303.5185   -7773.5647   -701.93123     102002.7      46.7237      46.7237      46.7237 
  125000    91.808808   -8328.9614   -7768.4963   -655.19706     102002.7      46.7237      46.7237      46.7237 
  126000    90.176418   -8329.5559    -7779.056   -868.50416     102002.7      46.7237      46.7237      46.7237 
  127000    95.058994    -8310.228   -7729.9215   -714.16333     102002.7      46.7237      46.7237      46.7237 
  128000    91.440806   -8338.6686     -7780.45     -777.471     102002.7      46.7237      46.7237      46.7237 
  129000    89.660477    -8329.332   -7781.9818   -630.76413     102002.7      46.7237      46.7237      46.7237 
  130000    89.939311   -8333.9902   -7784.9378    -490.4777     102002.7      46.7237      46.7237      46.7237 
  131000    90.751848   -8348.8112   -7794.7985    -883.6262     102002.7      46.7237      46.7237      46.7237 
  132000    90.493475   -8315.3909   -7762.9555   -274.53701     102002.7      46.7237      46.7237      46.7237 
  133000    91.021559   -8351.5466   -7795.8873   -325.00554     102002.7      46.7237      46.7237      46.7237 
  134000    92.440157   -8329.0079   -7764.6886   -793.98484     102002.7      46.7237      46.7237      46.7237 
  135000     89.16623   -8307.3571   -7763.0241   -844.08327     102002.7      46.7237      46.7237      46.7237 
  136000    92.487938   -8343.0748   -7778.4638    -815.4501     102002.7      46.7237      46.7237      46.7237 
  137000    91.032391   -8315.6784    -7759.953   -867.74474     102002.7      46.7237      46.7237      46.7237 
  138000    90.419562   -8336.9202    -7784.936   -725.22835     102002.7      46.7237      46.7237      46.7237 
  139000    89.815952   -8309.4598   -7761.1604   -941.09418     102002.7      46.7237      46.7237      46.7237 
  140000     89.06377   -8327.6591   -7783.9516    -695.3819     102002.7      46.7237      46.7237      46.7237 
  141000    92.481549   -8303.2817   -7738.7097   -734.19843     102002.7      46.7237      46.7237      46.7237 
  142000    91.007378   -8322.1945   -7766.6219   -640.38672     102002.7      46.7237      46.7237      46.7237 
  143000    92.643864   -8350.3307   -7784.7678   -623.18084     102002.7      46.7237      46.7237      46.7237 
  144000    89.039441   -8334.0218   -7790.4628   -807.50596     102002.7      46.7237      46.7237      46.7237 
  145000    93.519483   -8327.8458   -7756.9375   -794.66555     102002.7      46.7237      46.7237      46.7237 
  146000    89.379907   -8320.3139   -7774.6765   -925.92195     102002.7      46.7237      46.7237      46.7237 
  147000    91.621049   -8330.3797   -7771.0608   -641.85449     102002.7      46.7237      46.7237      46.7237 
  148000    93.313832   -8331.9332   -7762.2804   -553.34235     102002.7      46.7237      46.7237      46.7237 
  149000    90.465212   -8321.2742   -7769.0113   -1192.5482     102002.7      46.7237      46.7237      46.7237 
  150000    91.986187   -8336.3227   -7774.7747   -1039.8183     102002.7      46.7237      46.7237      46.7237 
  151000    92.957805   -8316.4206   -7748.9412   -1021.4497     102002.7      46.7237      46.7237      46.7237 
  152000    91.000285   -8337.6058   -7782.0765   -867.87657     102002.7      46.7237      46.7237      46.7237 
  153000    90.095031    -8336.643     -7786.64   -686.63418     102002.7      46.7237      46.7237      46.7237 
  154000    89.738439   -8324.7033   -7776.8772   -1015.9538     102002.7      46.7237      46.7237      46.7237 
  155000    91.342481   -8324.2111   -7766.5928   -478.90804     102002.7      46.7237      46.7237      46.7237 
  156000    93.240662   -8347.9995   -7778.7933   -710.17385     102002.7      46.7237      46.7237      46.7237 
  157000    91.107856   -8336.0591   -7779.8731   -836.48576     102002.7      46.7237      46.7237      46.7237 
  158000    89.001842   -8337.4833   -7794.1538   -872.73667     102002.7      46.7237      46.7237      46.7237 
  159000    92.011561   -8328.4269   -7766.7241   -847.36251     102002.7      46.7237      46.7237      46.7237 
  160000    93.334768   -8314.5255   -7744.7448   -709.54978     102002.7      46.7237      46.7237      46.7237 
  161000    91.471579   -8324.9536   -7766.5471   -869.34999     102002.7      46.7237      46.7237      46.7237 
  162000    94.197618   -8320.3761    -7745.328   -853.29809     102002.7      46.7237      46.7237      46.7237 
  163000    89.544985   -8324.5435   -7777.8984   -808.61714     102002.7      46.7237      46.7237      46.7237 
  164000    88.500747   -8343.0065   -7802.7361   -635.56592     102002.7      46.7237      46.7237      46.7237 
  165000    89.141507   -8334.1415   -7789.9594      -820.59     102002.7      46.7237      46.7237      46.7237 
  166000    91.516822   -8318.5472   -7759.8645    -564.8054     102002.7      46.7237      46.7237      46.7237 
  167000    88.097042   -8324.6775   -7786.8716   -951.34311     102002.7      46.7237      46.7237      46.7237 
  168000    91.496455   -8328.6228   -7770.0645   -815.57318     102002.7      46.7237      46.7237      46.7237 
  169000    90.309283   -8325.1642   -7773.8532   -640.25497     102002.7      46.7237      46.7237      46.7237 
  170000    91.870011    -8324.078   -7763.2392   -983.88626     102002.7      46.7237      46.7237      46.7237 
  171000    92.525278   -8336.8518   -7772.0128   -632.41315     102002.7      46.7237      46.7237      46.7237 
  172000    90.286931   -8326.1558   -7774.9812   -905.20985     102002.7      46.7237      46.7237      46.7237 
  173000    91.974312   -8329.9717   -7768.4962   -789.50629     102002.7      46.7237      46.7237      46.7237 
  174000    92.339385   -8339.0976   -7775.3935   -545.41368     102002.7      46.7237      46.7237      46.7237 
  175000    88.443017   -8338.0728   -7798.1548   -1103.2014     102002.7      46.7237      46.7237      46.7237 
  176000    90.697968   -8321.3374   -7767.6536   -826.55753     102002.7      46.7237      46.7237      46.7237 
  177000    92.019847   -8326.5715    -7764.818   -971.16983     102002.7      46.7237      46.7237      46.7237 
  178000    88.745068   -8324.8346   -7783.0727   -973.71395     102002.7      46.7237      46.7237      46.7237 
  179000    90.105706    -8353.299   -7803.2308   -834.32783     102002.7      46.7237      46.7237      46.7237 
  180000    90.401753   -8311.2213   -7759.3458   -850.92996     102002.7      46.7237      46.7237      46.7237 
  181000    91.507869   -8330.0723   -7771.4443   -837.00704     102002.7      46.7237      46.7237      46.7237 
  182000    90.136329   -8310.4594   -7760.2042   -772.15908     102002.7      46.7237      46.7237      46.7237 
  183000    86.726755   -8304.0758    -7774.635   -860.53519     102002.7      46.7237      46.7237      46.7237 
  184000    88.490982   -8335.7121   -7795.5013   -855.89239     102002.7      46.7237      46.7237      46.7237 
  185000    92.736681   -8320.8298   -7754.7003   -932.51541     102002.7      46.7237      46.7237      46.7237 
  186000    92.829595   -8336.9353   -7770.2386    -986.7697     102002.7      46.7237      46.7237      46.7237 
  187000    92.806892   -8331.7015   -7765.1434   -534.67799     102002.7      46.7237      46.7237      46.7237 
  188000    91.989233   -8325.7764   -7764.2098   -603.63762     102002.7      46.7237      46.7237      46.7237 
  189000     89.61828   -8326.1503   -7779.0577   -678.44569     102002.7      46.7237      46.7237      46.7237 
  190000    92.528367   -8316.6414   -7751.7836   -880.17183     102002.7      46.7237      46.7237      46.7237 
  191000    92.652872   -8323.3433   -7757.7254   -854.90222     102002.7      46.7237      46.7237      46.7237 
  192000    87.190089   -8339.8961   -7807.6268   -612.37583     102002.7      46.7237      46.7237      46.7237 
  193000    89.104597    -8313.478   -7769.5213   -701.82171     102002.7      46.7237      46.7237      46.7237 
  194000    92.147451   -8316.4598   -7753.9273   -1010.8304     102002.7      46.7237      46.7237      46.7237 
  195000    90.492222   -8336.7683   -7784.3405   -751.77541     102002.7      46.7237      46.7237      46.7237 
  196000    88.134845   -8315.4656   -7777.4289   -586.41809     102002.7      46.7237      46.7237      46.7237 
  197000     94.27947   -8311.8324   -7736.2847   -718.73383     102002.7      46.7237      46.7237      46.7237 
  198000    91.534139   -8332.0105   -7773.2221    -712.5457     102002.7      46.7237      46.7237      46.7237 
  199000     90.31696   -8319.7792   -7768.4213   -702.12769     102002.7      46.7237      46.7237      46.7237 
  200000     88.97036   -8320.0839   -7776.9467   -367.69393     102002.7      46.7237      46.7237      46.7237 
  201000    89.467941   -8337.4323   -7791.2574    -338.0008     102002.7      46.7237      46.7237      46.7237 
  202000    91.445844   -8322.0741   -7763.8247   -563.01838     102002.7      46.7237      46.7237      46.7237 
  203000    90.900816   -8315.7187   -7760.7966   -582.38511     102002.7      46.7237      46.7237      46.7237 
  204000    95.248087   -8297.9796   -7716.5187   -587.68544     102002.7      46.7237      46.7237      46.7237 
  205000    92.200971   -8327.4365   -7764.5773   -540.58436     102002.7      46.7237      46.7237      46.7237 
  206000    90.338214    -8310.955   -7759.4674   -407.82343     102002.7      46.7237      46.7237      46.7237 
  207000    91.552737   -8311.9763   -7753.0744   -477.57824     102002.7      46.7237      46.7237      46.7237 
  208000    90.914906   -8333.8304   -7778.8222   -739.27022     102002.7      46.7237      46.7237      46.7237 
  209000    91.921409   -8336.4072   -7775.2546    -566.6019     102002.7      46.7237      46.7237      46.7237 
  210000     91.72898   -8331.0221   -7771.0443   -647.25159     102002.7      46.7237      46.7237      46.7237 
  211000    90.573705    -8325.097   -7772.1718    -847.1444     102002.7      46.7237      46.7237      46.7237 
  212000    90.992963   -8319.9028   -7764.4181   -560.33444     102002.7      46.7237      46.7237      46.7237 
  213000    90.409743   -8343.7718   -7791.8475   -993.85772     102002.7      46.7237      46.7237      46.7237 
  214000    90.801296   -8298.8661   -7744.5516   -688.05413     102002.7      46.7237      46.7237      46.7237 
  215000    90.213806   -8323.6332   -7772.9051   -754.61618     102002.7      46.7237      46.7237      46.7237 
  216000    90.721926    -8327.362   -7773.5319   -818.70809     102002.7      46.7237      46.7237      46.7237 
  217000    90.897251   -8312.4595   -7757.5591   -802.23888     102002.7      46.7237      46.7237      46.7237 
  218000    88.520989   -8323.5097   -7783.1157   -607.84954     102002.7      46.7237      46.7237      46.7237 
  219000    89.854107   -8328.5068   -7779.9745   -587.76613     102002.7      46.7237      46.7237      46.7237 
  220000    89.252087   -8313.1173   -7768.2601   -892.17634     102002.7      46.7237      46.7237      46.7237 
  221000    93.367441   -8346.6339   -7776.6538   -789.57286     102002.7      46.7237      46.7237      46.7237 
  222000    92.198313   -8330.8436   -7768.0006   -679.05493     102002.7      46.7237      46.7237      46.7237 
  223000    90.380652   -8315.5797    -7763.833   -678.98294     102002.7      46.7237      46.7237      46.7237 
  224000    90.943912   -8333.0284   -7777.8432   -708.08484     102002.7      46.7237      46.7237      46.7237 
  225000    91.976012   -8316.9968   -7755.5109   -531.79898     102002.7      46.7237      46.7237      46.7237 
  226000    90.691497   -8344.8089   -7791.1646   -761.69831     102002.7      46.7237      46.7237      46.7237 
  227000    90.986565   -8328.5002   -7773.0546   -629.97218     102002.7      46.7237      46.7237      46.7237 
  228000    91.351193   -8330.9628   -7773.2913   -598.29859     102002.7      46.7237      46.7237      46.7237 
  229000    90.485262   -8312.5692   -7760.1839   -615.48243     102002.7      46.7237      46.7237      46.7237 
  230000    91.070613   -8346.0218   -7790.0631   -529.49167     102002.7      46.7237      46.7237      46.7237 
  231000    91.674818   -8330.2123   -7770.5652   -505.67287     102002.7      46.7237      46.7237      46.7237 
  232000    91.147133   -8327.5719   -7771.1461   -664.30193     102002.7      46.7237      46.7237      46.7237 
  233000    92.658007   -8336.1788   -7770.5296   -433.73447     102002.7      46.7237      46.7237      46.7237 
  234000    92.420155   -8335.3313    -7771.134   -405.39613     102002.7      46.7237      46.7237      46.7237 
  235000    91.352112   -8326.9838   -7769.3066   -478.88182     102002.7      46.7237      46.7237      46.7237 
  236000    90.456539   -8350.2987   -7798.0888   -511.53935     102002.7      46.7237      46.7237      46.7237 
  237000    89.643689   -8326.3221   -7779.0743   -582.72556     102002.7      46.7237      46.7237      46.7237 
  238000    94.758078   -8322.7745    -7744.305    -588.4135     102002.7      46.7237      46.7237      46.7237 
  239000    91.923544   -8334.9616   -7773.7961    -736.0912     102002.7      46.7237      46.7237      46.7237 
  240000    92.473425   -8307.5248   -7743.0024   -817.64908     102002.7      46.7237      46.7237      46.7237 
  241000    89.792549   -8321.3338   -7773.1773   -835.61375     102002.7      46.7237      46.7237      46.7237 
  242000    89.147815   -8342.8083   -7798.5877   -677.01331     102002.7      46.7237      46.7237      46.7237 
  243000    93.918106   -8329.2855   -7755.9437   -819.70382     102002.7      46.7237      46.7237      46.7237 
  244000    89.261869   -8317.2646   -7772.3478   -952.13514     102002.7      46.7237      46.7237      46.7237 
  245000    90.427623    -8301.447   -7749.4136   -1100.1482     102002.7      46.7237      46.7237      46.7237 
  246000    91.093875   -8344.3198   -7788.2192   -915.65683     102002.7      46.7237      46.7237      46.7237 
  247000    90.484716   -8344.2331   -7791.8511   -784.29803     102002.7      46.7237      46.7237      46.7237 
  248000    89.992362   -8311.3922   -7762.0159   -1025.8701     102002.7      46.7237      46.7237      46.7237 
  249000    91.844154   -8340.2796   -7779.5987   -872.41383     102002.7      46.7237      46.7237      46.7237 
  250000    90.471924   -8323.0051   -7770.7012   -746.87054     102002.7      46.7237      46.7237      46.7237 
  251000    90.575064   -8321.5181   -7768.5846   -828.50298     102002.7      46.7237      46.7237      46.7237 
  252000    88.722955   -8322.4974   -7780.8704   -668.73481     102002.7      46.7237      46.7237      46.7237 
  253000    90.538565   -8328.7374   -7776.0267   -655.42111     102002.7      46.7237      46.7237      46.7237 
  254000    91.682911    -8308.726   -7749.0294   -884.76251     102002.7      46.7237      46.7237      46.7237 
  255000    91.234432   -8321.2035   -7764.2448   -842.07862     102002.7      46.7237      46.7237      46.7237 
  256000    89.302841   -8335.7372   -7790.5703   -317.68177     102002.7      46.7237      46.7237      46.7237 
  257000    91.966289   -8324.5839   -7763.1574   -488.20593     102002.7      46.7237      46.7237      46.7237 
  258000    90.363888    -8324.634   -7772.9897   -851.98736     102002.7      46.7237      46.7237      46.7237 
  259000    89.412231   -8313.0007    -7767.166   -695.29625     102002.7      46.7237      46.7237      46.7237 
  260000    92.518338   -8315.3493   -7750.5527   -681.99514     102002.7      46.7237      46.7237      46.7237 
  261000    90.233889   -8316.5426   -7765.6918   -689.66023     102002.7      46.7237      46.7237      46.7237 
  262000    91.495533   -8318.6369   -7760.0842   -788.03852     102002.7      46.7237      46.7237      46.7237 
  263000    89.764024   -8339.4762   -7791.4939   -730.21822     102002.7      46.7237      46.7237      46.7237 
  264000     89.67516   -8328.8577   -7781.4178   -347.08296     102002.7      46.7237      46.7237      46.7237 
  265000     91.67269   -8326.9783   -7767.3441   -617.12252     102002.7      46.7237      46.7237      46.7237 
  266000    91.557775        -8333   -7774.0674   -738.78787     102002.7      46.7237      46.7237      46.7237 
  267000    91.643071   -8340.9389   -7781.4855   -867.92865     102002.7      46.7237      46.7237      46.7237 
  268000    89.959085   -8315.4892   -7766.3161   -590.87642     102002.7      46.7237      46.7237      46.7237 
  269000    89.163184   -8322.3258   -7778.0114   -742.62346     102002.7      46.7237      46.7237      46.7237 
  270000    90.694034   -8316.5849   -7762.9251   -769.22592     102002.7      46.7237      46.7237      46.7237 
  271000    91.434789   -8339.2962   -7781.1143   -545.36067     102002.7      46.7237      46.7237      46.7237 
  272000    90.149279   -8312.1599   -7761.8257   -1027.4268     102002.7      46.7237      46.7237      46.7237 
  273000    90.474148    -8333.902   -7781.5845   -925.35056     102002.7      46.7237      46.7237      46.7237 
  274000    91.477867   -8331.1983   -7772.7535    -832.5075     102002.7      46.7237      46.7237      46.7237 
  275000    90.194869   -8327.6296    -7777.017   -630.42878     102002.7      46.7237      46.7237      46.7237 
  276000    91.497567   -8317.9577   -7759.3926   -837.07532     102002.7      46.7237      46.7237      46.7237 
  277000    87.843955   -8321.3271   -7785.0662   -618.67658     102002.7      46.7237      46.7237      46.7237 
  278000    90.007791   -8318.9533   -7769.4829   -532.45191     102002.7      46.7237      46.7237      46.7237 
  279000    90.851768   -8319.6767    -7765.054   -741.85272     102002.7      46.7237      46.7237      46.7237 
  280000    91.235894   -8330.4252   -7773.4575   -594.79396     102002.7      46.7237      46.7237      46.7237 
  281000    91.800308   -8318.9171   -7758.5038   -485.27037     102002.7      46.7237      46.7237      46.7237 
  282000    90.465054    -8324.858   -7772.5961   -859.92893     102002.7      46.7237      46.7237      46.7237 
  283000      87.7202   -8334.1588   -7798.6534   -667.39901     102002.7      46.7237      46.7237      46.7237 
  284000    88.656206   -8323.5093   -7782.2899   -756.48201     102002.7      46.7237      46.7237      46.7237 
  285000    92.927169   -8313.3301   -7746.0377   -393.29916     102002.7      46.7237      46.7237      46.7237 
  286000    94.736021   -8350.2397   -7771.9048   -617.30419     102002.7      46.7237      46.7237      46.7237 
  287000    90.619184   -8326.7949    -7773.592   -662.26133     102002.7      46.7237      46.7237      46.7237 
  288000    88.428017   -8302.8718   -7763.0454   -663.24401     102002.7      46.7237      46.7237      46.7237 
  289000    87.698148   -8330.9631   -7795.5923   -737.93134     102002.7      46.7237      46.7237      46.7237 
  290000    89.666173   -8318.8811   -7771.4961   -609.84287     102002.7      46.7237      46.7237      46.7237 
  291000    91.087939   -8309.6184   -7753.5539    -652.4592     102002.7      46.7237      46.7237      46.7237 
  292000    91.478763   -8320.4554   -7762.0051   -896.57035     102002.7      46.7237      46.7237      46.7237 
  293000    90.565677   -8340.4889   -7787.6127   -885.62473     102002.7      46.7237      46.7237      46.7237 
  294000    89.919946   -8334.2404   -7785.3062   -750.07785     102002.7      46.7237      46.7237      46.7237 
  295000    88.866199   -8317.8104    -7775.309   -941.30441     102002.7      46.7237      46.7237      46.7237 
  296000      87.5608   -8323.1241   -7788.5917   -585.41419     102002.7      46.7237      46.7237      46.7237 
  297000    90.839752   -8328.1531   -7773.6038   -755.65024     102002.7      46.7237      46.7237      46.7237 
  298000    94.904592   -8330.6353   -7751.2714   -700.67566     102002.7      46.7237      46.7237      46.7237 
  299000    91.251031   -8333.0855   -7776.0254   -762.92913     102002.7      46.7237      46.7237      46.7237 
  300000    91.939764   -8325.1109   -7763.8463   -960.97364     102002.7      46.7237      46.7237      46.7237 
  301000    91.546061    -8314.648   -7755.7869   -649.88925     102002.7      46.7237      46.7237      46.7237 
  302000    89.774913   -8319.8407   -7771.7919   -949.32122     102002.7      46.7237      46.7237      46.7237 
  303000    93.981503   -8331.4503   -7757.7215   -1000.0067     102002.7      46.7237      46.7237      46.7237 
  304000    93.157763   -8316.5518   -7747.8517   -881.90804     102002.7      46.7237      46.7237      46.7237 
  305000    91.632622   -8315.2617   -7755.8722    -1228.694     102002.7      46.7237      46.7237      46.7237 
  306000    90.024602   -8327.9478   -7778.3747   -848.29303     102002.7      46.7237      46.7237      46.7237 
  307000    93.736537   -8319.4255   -7747.1922   -601.44583     102002.7      46.7237      46.7237      46.7237 
  308000    87.862548   -8317.4857   -7781.1113   -949.27895     102002.7      46.7237      46.7237      46.7237 
  309000    92.020976   -8335.2233    -7773.463   -811.38202     102002.7      46.7237      46.7237      46.7237 
  310000    90.600707   -8324.6127   -7771.5226   -494.23794     102002.7      46.7237      46.7237      46.7237 
  311000    88.264824   -8329.8748   -7791.0446   -657.14212     102002.7      46.7237      46.7237      46.7237 
  312000     93.57319   -8333.7307   -7762.4946    -563.5482     102002.7      46.7237      46.7237      46.7237 
  313000    89.742974    -8330.643   -7782.7892   -734.91511     102002.7      46.7237      46.7237      46.7237 
  314000    91.670118   -8317.8882   -7758.2697    -652.9383     102002.7      46.7237      46.7237      46.7237 
  315000    89.048895   -8317.4493   -7773.8326   -367.72558     102002.7      46.7237      46.7237      46.7237 
  316000    90.146414   -8320.8882   -7770.5715   -758.09893     102002.7      46.7237      46.7237      46.7237 
  317000    88.855276   -8336.0015   -7793.5668   -676.13833     102002.7      46.7237      46.7237      46.7237 
  318000    89.778385   -8336.1899   -7788.1199     -758.284     102002.7      46.7237      46.7237      46.7237 
  319000    91.318948   -8309.2609   -7751.7862   -663.08293     102002.7      46.7237      46.7237      46.7237 
  320000    90.914917    -8343.856   -7788.8478   -735.35357     102002.7      46.7237      46.7237      46.7237 
  321000    93.898983   -8317.8718   -7744.6468   -748.75574     102002.7      46.7237      46.7237      46.7237 
  322000    88.659514     -8329.25   -7788.0103   -876.28589     102002.7      46.7237      46.7237      46.7237 
  323000    90.010062   -8308.5752   -7759.0909   -635.66462     102002.7      46.7237      46.7237      46.7237 
  324000     93.01339   -8334.8223   -7767.0035   -454.64921     102002.7      46.7237      46.7237      46.7237 
  325000    92.467132   -8310.5197   -7746.0357   -718.77902     102002.7      46.7237      46.7237      46.7237 
  326000    89.608505   -8327.3732   -7780.3403   -429.25499     102002.7      46.7237      46.7237      46.7237 
  327000    95.938321   -8350.2643   -7764.5897    -716.2535     102002.7      46.7237      46.7237      46.7237 
  328000    88.896136   -8326.2005   -7783.5164   -828.76721     102002.7      46.7237      46.7237      46.7237 
  329000    90.164985   -8321.1785   -7770.7484   -651.09344     102002.7      46.7237      46.7237      46.7237 
  330000    90.031303    -8317.798    -7768.184   -868.84741     102002.7      46.7237      46.7237      46.7237 
  331000    87.898943   -8329.0134   -7792.4168    -784.1673     102002.7      46.7237      46.7237      46.7237 
  332000     91.47216   -8320.6301   -7762.2201   -787.45493     102002.7      46.7237      46.7237      46.7237 
  333000    89.084044   -8334.7731   -7790.9418   -773.22704     102002.7      46.7237      46.7237      46.7237 
  334000    86.580211   -8323.5596   -7795.0135   -829.41711     102002.7      46.7237      46.7237      46.7237 
  335000    92.067079   -8342.2134   -7780.1716   -828.86953     102002.7      46.7237      46.7237      46.7237 
  336000    92.200639   -8327.3402    -7764.483   -902.26801     102002.7      46.7237      46.7237      46.7237 
  337000    92.041879   -8311.5367   -7749.6487   -763.30496     102002.7      46.7237      46.7237      46.7237 
  338000    92.130592   -8325.1521   -7762.7226   -691.69183     102002.7      46.7237      46.7237      46.7237 
  339000    93.020014   -8346.6854   -7778.8263   -762.62442     102002.7      46.7237      46.7237      46.7237 
  340000    91.672853   -8332.7201   -7773.0849   -631.18911     102002.7      46.7237      46.7237      46.7237 
  341000    91.117803   -8319.4017    -7763.155   -723.39413     102002.7      46.7237      46.7237      46.7237 
  342000    90.089312    -8327.621   -7777.6529   -303.35286     102002.7      46.7237      46.7237      46.7237 
  343000    91.369894    -8332.146   -7774.3603   -412.68132     102002.7      46.7237      46.7237      46.7237 
  344000    90.721937   -8310.2877   -7756.4576   -792.37471     102002.7      46.7237      46.7237      46.7237 
  345000    91.663153   -8336.9759      -7777.4   -354.70415     102002.7      46.7237      46.7237      46.7237 
  346000    88.259304   -8346.3169   -7807.5204    -735.2905     102002.7      46.7237      46.7237      46.7237 
  347000    91.837884   -8321.0144   -7760.3718    -636.2421     102002.7      46.7237      46.7237      46.7237 
  348000    92.268126   -8338.7675   -7775.4983   -703.97101     102002.7      46.7237      46.7237      46.7237 
  349000    90.915242   -8332.7294   -7777.7192   -725.67599     102002.7      46.7237      46.7237      46.7237 
  350000     90.86693   -8301.9848   -7747.2695   -729.24293     102002.7      46.7237      46.7237      46.7237 
  351000    93.283352   -8332.6484   -7763.1816   -973.54359     102002.7      46.7237      46.7237      46.7237 
  352000     89.86084   -8311.6834   -7763.1101   -517.66914     102002.7      46.7237      46.7237      46.7237 
  353000    93.206545   -8325.7255   -7756.7276   -715.13916     102002.7      46.7237      46.7237      46.7237 
  354000    90.688462    -8328.951   -7775.3252   -765.15342     102002.7      46.7237      46.7237      46.7237 
  355000    90.949637   -8339.2302     -7784.01   -763.08066     102002.7      46.7237      46.7237      46.7237 
  356000    89.001934    -8331.301   -7787.9709   -1133.5662     102002.7      46.7237      46.7237      46.7237 
  357000    89.118349   -8310.5014   -7766.4607   -749.69778     102002.7      46.7237      46.7237      46.7237 
  358000    90.584511   -8329.0281    -7776.037   -531.94486     102002.7      46.7237      46.7237      46.7237 
  359000    89.528822   -8330.0378   -7783.4913   -918.27475     102002.7      46.7237      46.7237      46.7237 
  360000    91.302265   -8331.1566   -7773.7838   -901.55494     102002.7      46.7237      46.7237      46.7237 
  361000    91.174123   -8324.9901   -7768.3995   -791.40403     102002.7      46.7237      46.7237      46.7237 
  362000    89.889739   -8317.0617   -7768.3119   -793.74733     102002.7      46.7237      46.7237      46.7237 
  363000     93.98654   -8325.8578   -7752.0983   -812.42111     102002.7      46.7237      46.7237      46.7237 
  364000    89.189343   -8332.2382   -7787.7641   -903.10044     102002.7      46.7237      46.7237      46.7237 
  365000    91.281983   -8305.6213   -7748.3722   -602.46125     102002.7      46.7237      46.7237      46.7237 
  366000    90.516147   -8326.3956   -7773.8217   -866.61379     102002.7      46.7237      46.7237      46.7237 
  367000    92.035905    -8304.609   -7742.7575   -1082.1533     102002.7      46.7237      46.7237      46.7237 
  368000    92.962085   -8328.1163   -7760.6108   -1018.0732     102002.7      46.7237      46.7237      46.7237 
  369000    87.689349   -8312.1997   -7776.8826   -771.39526     102002.7      46.7237      46.7237      46.7237 
  370000    90.714789   -8322.2558   -7768.4693   -910.87328     102002.7      46.7237      46.7237      46.7237 
  371000    90.665632    -8307.079   -7753.5926   -947.32496     102002.7      46.7237      46.7237      46.7237 
  372000    88.876396   -8325.0442   -7782.4806   -725.38747     102002.7      46.7237      46.7237      46.7237 
  373000    90.364377   -8322.8932   -7771.2459   -742.65182     102002.7      46.7237      46.7237      46.7237 
  374000    87.754027    -8316.898   -7781.1861   -673.06811     102002.7      46.7237      46.7237      46.7237 
  375000    93.952591   -8344.0219   -7770.4696   -911.59263     102002.7      46.7237      46.7237      46.7237 
  376000    93.880643   -8319.6259   -7746.5129    -778.7637     102002.7      46.7237      46.7237      46.7237 
  377000    90.546702   -8325.3162   -7772.5558   -819.78615     102002.7      46.7237      46.7237      46.7237 
  378000    88.246791   -8337.0243   -7798.3042   -1036.0541     102002.7      46.7237      46.7237      46.7237 
  379000    92.171982   -8334.0266   -7771.3444   -684.29887     102002.7      46.7237      46.7237      46.7237 
  380000    86.415353   -8332.5148   -7804.9751    -1109.119     102002.7      46.7237      46.7237      46.7237 
  381000    90.452163   -8309.2107   -7757.0275   -840.37469     102002.7      46.7237      46.7237      46.7237 
  382000    89.328919   -8327.9292    -7782.603   -1022.1129     102002.7      46.7237      46.7237      46.7237 
  383000    89.721199   -8315.3494   -7767.6285   -941.19546     102002.7      46.7237      46.7237      46.7237 
  384000    89.904126   -8330.2914   -7781.4538   -720.94289     102002.7      46.7237      46.7237      46.7237 
  385000    88.604024   -8307.9161   -7767.0152   -694.14633     102002.7      46.7237      46.7237      46.7237 
  386000    88.814979   -8305.5582   -7763.3695   -850.86243     102002.7      46.7237      46.7237      46.7237 
  387000    92.575812   -8334.4013   -7769.2538    -929.9051     102002.7      46.7237      46.7237      46.7237 
  388000    88.469838   -8328.4497    -7788.368   -958.46094     102002.7      46.7237      46.7237      46.7237 
  389000    92.105611   -8325.6217   -7763.3446   -901.10501     102002.7      46.7237      46.7237      46.7237 
  390000    90.652898   -8331.9197   -7778.5111   -706.36458     102002.7      46.7237      46.7237      46.7237 
  391000    91.339892   -8335.6652   -7778.0626   -784.26745     102002.7      46.7237      46.7237      46.7237 
  392000    92.586273   -8309.9076   -7744.6962   -860.22473     102002.7      46.7237      46.7237      46.7237 
  393000    89.821668   -8324.2625   -7775.9282   -882.08842     102002.7      46.7237      46.7237      46.7237 
  394000    94.055071   -8322.7732   -7748.5953   -917.00458     102002.7      46.7237      46.7237      46.7237 
  395000    90.329023   -8330.9564   -7779.5249   -620.35024     102002.7      46.7237      46.7237      46.7237 
  396000    91.982652   -8315.2608   -7753.7344   -538.28349     102002.7      46.7237      46.7237      46.7237 
  397000    90.322823   -8317.1636   -7765.7699   -572.48948     102002.7      46.7237      46.7237      46.7237 
  398000    89.199321   -8345.0507   -7800.5156   -786.56866     102002.7      46.7237      46.7237      46.7237 
  399000    92.833409   -8319.8968   -7753.1768   -722.21753     102002.7      46.7237      46.7237      46.7237 
  400000    89.002982   -8335.0685   -7791.7321    -593.3467     102002.7      46.7237      46.7237      46.7237 
  401000    89.608937   -8315.4891   -7768.4535   -646.88836     102002.7      46.7237      46.7237      46.7237 
  402000    91.044359   -8326.3823   -7770.5839   -615.78252     102002.7      46.7237      46.7237      46.7237 
  403000    93.046996   -8306.9095   -7738.8856   -805.56771     102002.7      46.7237      46.7237      46.7237 
  404000    91.683971   -8306.9937   -7747.2907   -786.04987     102002.7      46.7237      46.7237      46.7237 
  405000    90.963994   -8330.2722   -7774.9644   -803.48134     102002.7      46.7237      46.7237      46.7237 
  406000    90.151117   -8311.9027   -7761.5573   -798.21163     102002.7      46.7237      46.7237      46.7237 
  407000    93.112078   -8326.1723    -7757.751   -934.85215     102002.7      46.7237      46.7237      46.7237 
  408000    93.048342   -8321.1307   -7753.0985   -779.03578     102002.7      46.7237      46.7237      46.7237 
  409000    87.390926   -8319.4444   -7785.9491   -720.01148     102002.7      46.7237      46.7237      46.7237 
  410000    90.636791   -8326.3199   -7773.0096   -1008.8321     102002.7      46.7237      46.7237      46.7237 
  411000    92.675104   -8320.0694   -7754.3158   -852.72375     102002.7      46.7237      46.7237      46.7237 
  412000    90.464248   -8326.9316   -7774.6746   -850.92294     102002.7      46.7237      46.7237      46.7237 
  413000    90.207743   -8305.2697   -7754.5786   -731.31018     102002.7      46.7237      46.7237      46.7237 
  414000    89.421081   -8323.0381   -7777.1493   -623.46613     102002.7      46.7237      46.7237      46.7237 
  415000    92.562308   -8317.8841   -7752.8191   -695.30782     102002.7      46.7237      46.7237      46.7237 
  416000    90.646383   -8323.3094   -7769.9405   -659.07159     102002.7      46.7237      46.7237      46.7237 
  417000    92.117118   -8298.6058   -7736.2585    -1018.621     102002.7      46.7237      46.7237      46.7237 
  418000    90.168599   -8307.5692    -7757.117   -949.41616     102002.7      46.7237      46.7237      46.7237 
  419000    87.885265   -8325.4189   -7788.9059   -950.34236     102002.7      46.7237      46.7237      46.7237 
  420000    89.257614   -8321.3263   -7776.4354   -915.69828     102002.7      46.7237      46.7237      46.7237 
  421000    91.986196   -8322.9232   -7761.3752     -674.379     102002.7      46.7237      46.7237      46.7237 
  422000    86.310754   -8317.1786   -7790.2774   -1052.6763     102002.7      46.7237      46.7237      46.7237 
  423000    91.282728   -8325.0221   -7767.7685   -973.45702     102002.7      46.7237      46.7237      46.7237 
  424000    90.661457   -8323.1163   -7769.6554   -804.56784     102002.7      46.7237      46.7237      46.7237 
  425000    91.636877   -8325.8828   -7766.4673   -905.58924     102002.7      46.7237      46.7237      46.7237 
  426000    91.773122   -8323.9528   -7763.7055   -530.60089     102002.7      46.7237      46.7237      46.7237 
  427000    90.428747   -8314.8794   -7762.8391   -696.09131     102002.7      46.7237      46.7237      46.7237 
  428000    92.035078   -8320.9848   -7759.1384    -751.6213     102002.7      46.7237      46.7237      46.7237 
  429000    88.805051   -8322.3599   -7780.2317   -678.26452     102002.7      46.7237      46.7237      46.7237 
  430000    90.156354   -8320.1525   -7769.7751   -837.35652     102002.7      46.7237      46.7237      46.7237 
  431000    92.008029    -8338.684   -7777.0027   -744.48256     102002.7      46.7237      46.7237      46.7237 
  432000    89.030685   -8323.8674   -7780.3618   -839.42308     102002.7      46.7237      46.7237      46.7237 
  433000    92.126074   -8329.7982   -7767.3963   -829.15457     102002.7      46.7237      46.7237      46.7237 
  434000    91.125221   -8329.5838   -7773.2917   -468.14819     102002.7      46.7237      46.7237      46.7237 
  435000    93.549379   -8303.6961   -7732.6054   -666.49689     102002.7      46.7237      46.7237      46.7237 
  436000    91.158167   -8319.8472    -7763.354   -471.44063     102002.7      46.7237      46.7237      46.7237 
  437000    89.716341    -8328.719   -7781.0278   -643.38274     102002.7      46.7237      46.7237      46.7237 
  438000    89.833875   -8328.9215   -7780.5128   -705.80786     102002.7      46.7237      46.7237      46.7237 
  439000    91.180664   -8313.3411   -7756.7106   -599.35551     102002.7      46.7237      46.7237      46.7237 
  440000    90.744157   -8327.1322   -7773.1665    -592.4351     102002.7      46.7237      46.7237      46.7237 
  441000    92.943493   -8321.2629   -7753.8709   -634.37987     102002.7      46.7237      46.7237      46.7237 
  442000    90.846227     -8345.64   -7791.0512   -711.73701     102002.7      46.7237      46.7237      46.7237 
  443000    90.782371   -8321.3415   -7767.1424   -807.20473     102002.7      46.7237      46.7237      46.7237 
  444000    91.415402   -8326.2627   -7768.1992   -786.50411     102002.7      46.7237      46.7237      46.7237 
  445000    91.600359   -8330.7035   -7771.5109   -1036.1731     102002.7      46.7237      46.7237      46.7237 
  446000    90.613024   -8319.6798   -7766.5146   -832.66409     102002.7      46.7237      46.7237      46.7237 
  447000    93.087477   -8311.8862   -7743.6152   -645.77438     102002.7      46.7237      46.7237      46.7237 
  448000    93.375264   -8324.5669    -7754.539    -528.9042     102002.7      46.7237      46.7237      46.7237 
  449000    90.995493   -8322.2933   -7766.7932   -711.84435     102002.7      46.7237      46.7237      46.7237 
  450000    89.522643   -8322.5631   -7776.0543   -647.96637     102002.7      46.7237      46.7237      46.7237 
  451000    91.625814   -8315.4781   -7756.1301   -426.56426     102002.7      46.7237      46.7237      46.7237 
  452000    91.035056   -8318.9242   -7763.1826   -783.22917     102002.7      46.7237      46.7237      46.7237 
  453000    89.490141   -8323.6919   -7777.3816   -697.60035     102002.7      46.7237      46.7237      46.7237 
  454000     91.37372   -8323.3332   -7765.5242    -594.2543     102002.7      46.7237      46.7237      46.7237 
  455000    90.825085   -8332.4999   -7778.0401   -682.69975     102002.7      46.7237      46.7237      46.7237 
  456000    89.896456   -8323.8755   -7775.0847   -800.65619     102002.7      46.7237      46.7237      46.7237 
  457000    91.599909   -8325.7842   -7766.5943   -593.66209     102002.7      46.7237      46.7237      46.7237 
  458000    93.248619   -8326.7254   -7757.4706   -870.13034     102002.7      46.7237      46.7237      46.7237 
  459000    94.525567   -8314.5286   -7737.4784   -796.41989     102002.7      46.7237      46.7237      46.7237 
  460000    90.840153   -8323.5016   -7768.9498   -579.81882     102002.7      46.7237      46.7237      46.7237 
  461000    88.377027   -8323.6839   -7784.1687    -374.2276     102002.7      46.7237      46.7237      46.7237 
  462000    91.405472   -8316.7517   -7758.7488   -442.17508     102002.7      46.7237      46.7237      46.7237 
  463000    91.488322   -8317.6953   -7759.1866   -721.73359     102002.7      46.7237      46.7237      46.7237 
  464000    90.681972   -8317.6857   -7764.0995   -719.58946     102002.7      46.7237      46.7237      46.7237 
  465000    89.341293   -8331.2706   -7785.8689   -592.23333     102002.7      46.7237      46.7237      46.7237 
  466000    92.077879   -8308.4338   -7746.3261   -770.06856     102002.7      46.7237      46.7237      46.7237 
  467000    91.040769    -8320.447   -7764.6705   -759.14258     102002.7      46.7237      46.7237      46.7237 
  468000     90.49961   -8318.9867   -7766.5138   -795.86673     102002.7      46.7237      46.7237      46.7237 
  469000    88.925397   -8338.0918    -7795.229    -719.5913     102002.7      46.7237      46.7237      46.7237 
  470000    89.729422   -8320.5021    -7772.731   -1037.8453     102002.7      46.7237      46.7237      46.7237 
  471000    89.125504   -8322.1166   -7778.0323   -792.71276     102002.7      46.7237      46.7237      46.7237 
  472000    90.055563   -8316.8897   -7767.1276   -610.42858     102002.7      46.7237      46.7237      46.7237 
  473000     87.59678   -8334.7637   -7800.0117   -1032.6601     102002.7      46.7237      46.7237      46.7237 
  474000    90.674782   -8328.2069   -7774.6647   -819.21734     102002.7      46.7237      46.7237      46.7237 
  475000     87.35513   -8322.5792   -7789.3024   -868.26486     102002.7      46.7237      46.7237      46.7237 
  476000     87.42512   -8341.6802   -7807.9762   -876.76876     102002.7      46.7237      46.7237      46.7237 
  477000    92.345927    -8313.814   -7750.0699   -758.96813     102002.7      46.7237      46.7237      46.7237 
  478000    90.354306   -8336.4769   -7784.8911    -878.2017     102002.7      46.7237      46.7237      46.7237 
  479000    91.979017   -8303.4848   -7741.9806   -728.40531     102002.7      46.7237      46.7237      46.7237 
  480000    91.332116   -8328.5027   -7770.9476   -650.66156     102002.7      46.7237      46.7237      46.7237 
  481000    90.083574   -8345.0647   -7795.1316    -653.7745     102002.7      46.7237      46.7237      46.7237 
  482000    91.624702   -8322.2687   -7762.9274   -561.74394     102002.7      46.7237      46.7237      46.7237 
  483000    88.776341   -8321.4406   -7779.4878   -461.75393     102002.7      46.7237      46.7237      46.7237 
  484000    91.346418   -8329.5205   -7771.8782    -703.9982     102002.7      46.7237      46.7237      46.7237 
  485000     90.83048   -8327.6236   -7773.1309   -386.55162     102002.7      46.7237      46.7237      46.7237 
  486000    91.378358   -8328.9697   -7771.1324   -706.89191     102002.7      46.7237      46.7237      46.7237 
  487000    94.731347   -8329.6382   -7751.3318   -512.67305     102002.7      46.7237      46.7237      46.7237 
  488000    91.013113   -8320.9608   -7765.3532   -806.77276     102002.7      46.7237      46.7237      46.7237 
  489000    89.630029   -8330.1066   -7782.9423   -988.13184     102002.7      46.7237      46.7237      46.7237 
  490000    90.413763   -8308.3991   -7756.4503   -814.29217     102002.7      46.7237      46.7237      46.7237 
  491000    93.320018   -8318.0333   -7748.3427    -1159.531     102002.7      46.7237      46.7237      46.7237 
  492000    89.678181   -8341.5568   -7794.0985    -729.2548     102002.7      46.7237      46.7237      46.7237 
  493000     89.98832   -8316.6615   -7767.3099   -835.35374     102002.7      46.7237      46.7237      46.7237 
  494000     89.57747   -8314.9886   -7768.1451   -1013.8101     102002.7      46.7237      46.7237      46.7237 
  495000    90.980246    -8318.549    -7763.142   -810.17431     102002.7      46.7237      46.7237      46.7237 
  496000    92.406154   -8312.6935   -7748.5818   -1063.8713     102002.7      46.7237      46.7237      46.7237 
  497000    91.648892   -8319.2769    -7759.788   -804.39004     102002.7      46.7237      46.7237      46.7237 
  498000    94.385235   -8330.4531   -7754.2596   -860.32105     102002.7      46.7237      46.7237      46.7237 
  499000    91.314604   -8327.0984   -7769.6502   -1064.9244     102002.7      46.7237      46.7237      46.7237 
  500000    89.465666   -8331.8109   -7785.6499   -665.48071     102002.7      46.7237      46.7237      46.7237 
  500502    91.274238   -8316.2457    -7759.044   -602.31388     102002.7      46.7237      46.7237      46.7237 
Loop time of 1396.08 on 16 procs for 500000 steps with 2049 atoms

Performance: 30.944 ns/day, 0.776 hours/ns, 358.146 timesteps/s
99.8% CPU use with 16 MPI tasks x no OpenMP threads

MPI task timing breakdown:
Section |  min time  |  avg time  |  max time  |%varavg| %total
---------------------------------------------------------------
Pair    | 568.86     | 773.19     | 985.82     | 532.8 | 55.38
Bond    | 162.56     | 174.49     | 182.25     |  41.2 | 12.50
Neigh   | 6.3286     | 6.3547     | 6.3745     |   0.4 |  0.46
Comm    | 214.47     | 428.3      | 638.7      | 727.1 | 30.68
Output  | 0.020401   | 0.020879   | 0.023635   |   0.5 |  0.00
Modify  | 7.5343     | 8.2312     | 9.0817     |  17.5 |  0.59
Other   |            | 5.492      |            |       |  0.39

Nlocal:    128.062 ave 162 max 100 min
Histogram: 2 1 2 3 0 4 2 0 0 2
Nghost:    2550.31 ave 2575 max 2509 min
Histogram: 1 1 0 2 0 3 3 0 3 3
Neighs:    11466.5 ave 17727 max 5697 min
Histogram: 1 1 3 3 0 2 2 2 0 2

Total # of neighbors = 183464
Ave neighs/atom = 89.5383
Ave special neighs/atom = 5.62225
Neighbor list builds = 3853
Dangerous builds = 0
Neighbor list info ...
  update every 1 steps, delay 10 steps, check yes
  max neighbors/atom: 2000, page size: 100000
  master list distance cutoff = 16
  ghost atom cutoff = 16
  binsize = 8, bins = 6 6 6
  3 neighbor lists, perpetual/occasional/extra = 3 0 0
  (1) pair buck6d/coul/gauss/dsf, perpetual, skip from (3)
      attributes: half, newton on
      pair build: skip
      stencil: none
      bin: none
  (2) pair lj/cut, perpetual, skip from (3)
      attributes: half, newton on
      pair build: skip
      stencil: none
      bin: none
  (3) neighbor class addition, perpetual
      attributes: half, newton on
      pair build: half/bin/newton
      stencil: half/bin/3d/newton
      bin: standard
Setting up Verlet run ...
  Unit style    : real
  Current step  : 500502
  Time step     : 1
WARNING: Inconsistent image flags (../domain.cpp:786)
Per MPI rank memory allocation (min/avg/max) = 23.09 | 23.29 | 23.36 Mbytes
Step Time TotEng KinEng PotEng E_mol E_pair Temp Pxx Pyy Pzz Pxy Pxz Pyz Cella Cellb Cellc CellAlpha CellBeta CellGamma Volume Press 
  500502       500000    -7759.044    557.20175   -8316.2457    4191.3777   -12507.623    91.274238   -534.99745   -363.82865   -908.11553   -62.558184   -93.128209    69.216022      46.7237      46.7237      46.7237           90           90           90     102002.7   -602.31388 
  501000       500498   -7779.2813    550.88576   -8330.1671    4205.7095   -12535.877    90.239627   -775.89015   -958.80597   -1209.1638    22.714986   -37.161158   -106.27718      46.7237      46.7237      46.7237           90           90           90     102002.7   -981.28665 
  502000       501498    -7788.604    544.76985   -8333.3739    4169.9276   -12503.302     89.23779   -639.71109   -576.03571   -817.96925   -108.28536    92.875844    183.73175      46.7237      46.7237      46.7237           90           90           90     102002.7   -677.90535 
  503000       502498   -7741.9648    550.57231   -8292.5372    4208.9241   -12501.461    90.188281   -990.01005   -839.69224   -512.32455   -247.92506    89.372405   -125.52493      46.7237      46.7237      46.7237           90           90           90     102002.7   -780.67562 
  504000       503498   -7772.4933    551.85348   -8324.3468    4203.5006   -12527.847    90.398147   -861.79516   -858.46827   -513.96393   -127.46271   -168.37023   -92.355879      46.7237      46.7237      46.7237           90           90           90     102002.7   -744.74245 
  505000       504498   -7763.6372    551.44017   -8315.0774    4177.0555   -12492.133    90.330444   -756.16928   -706.86502   -723.55311    6.6075887    123.44946   -18.954455      46.7237      46.7237      46.7237           90           90           90     102002.7   -728.86247 
  506000       505498   -7765.7577    567.87109   -8333.6288    4184.5551   -12518.184    93.021965    -1026.631   -934.50169   -734.27267    109.04293    57.159514    85.152793      46.7237      46.7237      46.7237           90           90           90     102002.7   -898.46845 
  507000       506498    -7747.813     571.5184   -8319.3314    4217.7336   -12537.065    93.619423     -1188.75   -577.14872   -853.63204    317.46586   -26.104763   -140.68715      46.7237      46.7237      46.7237           90           90           90     102002.7   -873.17694 
  508000       507498   -7765.1408    551.66464   -8316.8054    4195.6858   -12512.491    90.367215   -1279.1717   -1111.5549   -813.47103    98.074906     58.22536   -186.43806      46.7237      46.7237      46.7237           90           90           90     102002.7   -1068.0659 
  509000       508498   -7800.9372    539.82066   -8340.7578    4181.0363   -12521.794    88.427072   -710.73089    -843.8688   -403.93074   -121.00406   -63.542681    72.948869      46.7237      46.7237      46.7237           90           90           90     102002.7   -652.84348 
  510000       509498    -7775.929    550.96812   -8326.8971    4202.0345   -12528.932    90.253118   -880.64017   -699.37757   -662.62131    83.365417     26.20095    127.98229      46.7237      46.7237      46.7237           90           90           90     102002.7   -747.54635 
  511000       510498   -7778.1588    554.21895   -8332.3777    4199.0831   -12531.461    90.785631   -808.92115   -956.59029   -870.09807     -33.4484    -36.54934   -229.20983      46.7237      46.7237      46.7237           90           90           90     102002.7   -878.53651 
  512000       511498    -7785.053    543.17095   -8328.2239    4191.3441   -12519.568    88.975878   -550.29005   -495.63108   -498.50628   -37.249261    -132.6696   -267.70831      46.7237      46.7237      46.7237           90           90           90     102002.7   -514.80914 
  513000       512498   -7771.7959    561.60431   -8333.4002    4184.3073   -12517.708    91.995414   -1228.6346   -986.01781   -636.47851   -7.5988087    30.721608     40.77092      46.7237      46.7237      46.7237           90           90           90     102002.7   -950.37699 
  514000       513498   -7787.4808     538.5278   -8326.0086    4194.7203   -12520.729    88.215292   -1033.1333   -824.59853   -271.11036   -25.041919     97.98924    24.605921      46.7237      46.7237      46.7237           90           90           90     102002.7   -709.61408 
  515000       514498   -7772.5064    570.48524   -8342.9916    4189.2079     -12532.2    93.450183   -823.62784   -753.88984   -910.26059    44.531799   -74.641078   -84.336668      46.7237      46.7237      46.7237           90           90           90     102002.7   -829.25943 
  516000       515498   -7772.5163    561.18995   -8333.7063    4177.9191   -12511.625    91.927538   -530.11326   -781.34103   -444.45207      206.577    74.219303   -138.88343      46.7237      46.7237      46.7237           90           90           90     102002.7   -585.30212 
  517000       516498   -7767.1932    557.95914   -8325.1524     4198.748     -12523.9    91.398304   -271.21551   -1144.7726   -858.70341   -61.696543   -55.131888   -37.642284      46.7237      46.7237      46.7237           90           90           90     102002.7    -758.2305 
  518000       517498   -7784.5916    549.80174   -8334.3933    4187.9893   -12522.383    90.062056   -866.14755   -975.67275   -970.76701    10.380576    205.40629    126.05335      46.7237      46.7237      46.7237           90           90           90     102002.7    -937.5291 
  519000       518498   -7740.2578    569.48424   -8309.7421    4200.0315   -12509.774    93.286212   -763.89766   -840.82942   -758.61673    115.77613    286.94023    16.171201      46.7237      46.7237      46.7237           90           90           90     102002.7   -787.78127 
  520000       519498   -7782.0458    550.93566   -8332.9814    4202.2096   -12535.191    90.247802   -478.12128   -808.71365   -1017.8626    54.468412   -94.822233    62.672276      46.7237      46.7237      46.7237           90           90           90     102002.7   -768.23253 
  521000       520498    -7772.942    550.18649   -8323.1285    4186.0939   -12509.222    90.125081   -611.59265   -316.02415   -780.70749   -80.748133    153.84548    59.540637      46.7237      46.7237      46.7237           90           90           90     102002.7   -569.44143 
  522000       521498   -7763.0659    560.44375   -8323.5097    4194.6339   -12518.144    91.805305   -752.29299   -728.36359   -976.60824   -21.762698   -37.644054   -72.577401      46.7237      46.7237      46.7237           90           90           90     102002.7   -819.08827 
  523000       522498   -7780.3957    551.05119   -8331.4469    4177.9585   -12509.405    90.266727    -872.4355   -366.62232   -428.31572    237.06929    314.54371    141.82904      46.7237      46.7237      46.7237           90           90           90     102002.7   -555.79118 
  524000       523498   -7783.3961    539.01609   -8322.4122    4201.2834   -12523.696    88.295278   -958.49225   -450.67305   -595.69965    79.622446    142.30954    69.535558      46.7237      46.7237      46.7237           90           90           90     102002.7   -668.28832 
  525000       524498   -7758.4041    558.30976   -8316.7139    4199.4515   -12516.165    91.455739   -1161.1957   -929.65115   -775.77836   -162.00345   -38.439952   -43.879759      46.7237      46.7237      46.7237           90           90           90     102002.7   -955.54175 
  526000       525498   -7770.6207    545.66097   -8316.2816    4204.9875   -12521.269    89.383763   -957.87858   -555.39212   -786.07365    96.361618    241.58162   -112.45158      46.7237      46.7237      46.7237           90           90           90     102002.7   -766.44812 
  527000       526498   -7762.0367    542.36783   -8304.4045    4189.3036   -12493.708     88.84432   -1092.3071   -661.13629    -905.2205    129.40133    27.181744   -127.00593      46.7237      46.7237      46.7237           90           90           90     102002.7   -886.22128 
  528000       527498   -7768.8927    559.64163   -8328.5343    4180.8642   -12509.398     91.67391   -961.56072    -732.2762   -474.96699    87.882414    6.5138738    78.199869      46.7237      46.7237      46.7237           90           90           90     102002.7   -722.93464 
  529000       528498   -7781.3689    555.67264   -8337.0415    4183.0203   -12520.062    91.023757   -695.62162   -934.13043   -830.22351   -188.16844    44.753303    241.47865      46.7237      46.7237      46.7237           90           90           90     102002.7   -819.99185 
  530000       529498   -7767.7671    541.68601   -8309.4531    4196.5713   -12506.024    88.732632   -858.29847   -471.95954   -929.02279     55.65748   -36.421393    15.288262      46.7237      46.7237      46.7237           90           90           90     102002.7    -753.0936 
  531000       530498   -7762.8831    549.99236   -8312.8755    4190.3604   -12503.236    90.093281   -834.38949   -723.78875    10.102693    36.513623   -63.880911    74.364384      46.7237      46.7237      46.7237           90           90           90     102002.7   -516.02518 
  532000       531498   -7768.5375    561.83854    -8330.376    4190.2635   -12520.639    92.033783   -636.25721   -616.20925   -824.79267   -44.684556    60.855982    180.89297      46.7237      46.7237      46.7237           90           90           90     102002.7   -692.41971 
  533000       532498    -7755.683    557.14892   -8312.8319    4194.0028   -12506.835    91.265585   -1114.6856   -637.11759   -658.77649    314.14632    123.31854    73.724627      46.7237      46.7237      46.7237           90           90           90     102002.7   -803.52656 
  534000       533498   -7783.4115    552.37485   -8335.7864    4187.7976   -12523.584    90.483552   -478.89912   -712.68815   -798.78842     100.9955    71.924897   -78.134114      46.7237      46.7237      46.7237           90           90           90     102002.7   -663.45856 
  535000       534498   -7789.1048    550.04526     -8339.15    4174.7565   -12513.906    90.101946     -888.918   -565.18226   -683.71954    49.965772   -30.742143   -17.091596      46.7237      46.7237      46.7237           90           90           90     102002.7    -712.6066 
  536000       535498   -7746.7059    579.62927   -8326.3351    4197.7017   -12524.037     94.94805   -619.44691   -785.46167   -474.56546    -159.1439   -29.570163   -64.256873      46.7237      46.7237      46.7237           90           90           90     102002.7   -626.49135 
  537000       536498   -7770.7932    573.26969   -8344.0629    4175.1081   -12519.171    93.906299   -645.28561   -826.09711   -557.17529   -52.464076    69.283319    97.791627      46.7237      46.7237      46.7237           90           90           90     102002.7   -676.18601 
  538000       537498   -7782.0582    539.37746   -8321.4357    4186.2098   -12507.645    88.354473   -827.55081   -388.60719   -619.69456    1.0790254    205.84238    8.4482216      46.7237      46.7237      46.7237           90           90           90     102002.7   -611.95085 
  539000       538498   -7767.5393    552.13042   -8319.6698    4215.4346   -12535.104    90.443512   -967.66147   -975.69218   -207.45109    -162.8498   -98.947735    15.711206      46.7237      46.7237      46.7237           90           90           90     102002.7   -716.93491 
  540000       539498   -7803.0381    557.16351   -8360.2016    4152.2419   -12512.443    91.267974    -949.7785   -610.54351   -853.92995    38.911664    261.59389   -45.418138      46.7237      46.7237      46.7237           90           90           90     102002.7   -804.75065 
  541000       540498   -7767.9793    560.65657   -8328.6359    4193.3399   -12521.976    91.840166   -618.82731   -783.88401   -838.42243   -162.44733   -7.5032642   -21.905942      46.7237      46.7237      46.7237           90           90           90     102002.7   -747.04459 
  542000       541498   -7769.6639    557.41125   -8327.0752    4200.7728   -12527.848    91.308556   -728.12872    -935.6853    -543.5694   -75.067203   -40.984329    57.993259      46.7237      46.7237      46.7237           90           90           90     102002.7   -735.79448 
  543000       542498   -7771.5788    553.96807   -8325.5469    4180.1404   -12505.687    90.744534    -793.2429   -674.26047   -1267.8907   -172.04363   -187.03808    97.767972      46.7237      46.7237      46.7237           90           90           90     102002.7   -911.79801 
  544000       543498   -7776.1916    542.69785   -8318.8895    4211.2605    -12530.15     88.89838   -814.69524   -497.23291   -773.26287   -199.95794    -41.45109   -88.253467      46.7237      46.7237      46.7237           90           90           90     102002.7   -695.06367 
  545000       544498   -7753.9721    571.21553   -8325.1876    4190.3032   -12515.491    93.569811   -609.55534   -802.31997   -979.73968    20.442578   -9.8588515    216.28459      46.7237      46.7237      46.7237           90           90           90     102002.7     -797.205 
  546000       545498   -7781.1063    552.45934   -8333.5657    4186.0355   -12519.601    90.497392   -830.80254   -734.24769   -496.08799   -115.88107    9.1605438    102.64812      46.7237      46.7237      46.7237           90           90           90     102002.7   -687.04607 
  547000       546498   -7764.2947    568.93839    -8333.233     4190.944   -12524.177    93.196796   -708.17437   -780.50233   -792.99623   -58.136665    76.415549   -182.91655      46.7237      46.7237      46.7237           90           90           90     102002.7   -760.55764 
  548000       547498   -7747.7328     559.3311   -8307.0639     4201.383   -12508.447    91.623044   -638.14453   -1105.4582   -797.44221   -243.43256     111.3422    139.47509      46.7237      46.7237      46.7237           90           90           90     102002.7   -847.01498 
  549000       548498   -7784.3037    544.65354   -8328.9572     4193.905   -12522.862    89.218738    -988.3818   -1060.1882   -1066.3322   -63.737612    53.311634   -29.406727      46.7237      46.7237      46.7237           90           90           90     102002.7   -1038.3007 
  550000       549498   -7776.9222    543.68754   -8320.6098    4193.2688   -12513.879    89.060499   -242.90399   -701.07908   -874.47556    143.71653    163.87615   -88.508558      46.7237      46.7237      46.7237           90           90           90     102002.7   -606.15288 
  551000       550498   -7766.0382    548.38938   -8314.4276    4196.2382   -12510.666      89.8307   -1292.6769   -1093.2754   -1025.5333   -38.108241   -15.519875    261.63052      46.7237      46.7237      46.7237           90           90           90     102002.7   -1137.1619 
  552000       551498   -7753.7344    555.87119   -8309.6056    4192.1037   -12501.709    91.056282   -788.73136   -876.93073   -623.73425   -168.52926     14.34274    160.14466      46.7237      46.7237      46.7237           90           90           90     102002.7   -763.13211 
  553000       552498   -7780.7966    561.80178   -8342.5984    4170.1651   -12512.763    92.027762   -594.31597   -775.83687   -519.78985    31.671826   -32.597151   -87.687244      46.7237      46.7237      46.7237           90           90           90     102002.7    -629.9809 
  554000       553498     -7763.97    551.56007   -8315.5301    4187.5587   -12503.089    90.350085   -1180.8375   -399.30603   -1031.0973    98.148767    113.46715    32.874245      46.7237      46.7237      46.7237           90           90           90     102002.7   -870.41359 
  555000       554498   -7763.6142     560.7643   -8324.3785    4166.1566   -12490.535    91.857813   -863.09269   -917.90595   -596.61472   -7.3542863    110.26088    20.638258      46.7237      46.7237      46.7237           90           90           90     102002.7   -792.53779 
[...]
  936000       935498   -7765.4982    546.83451   -8312.3327      4199.45   -12511.783       89.576   -1165.5921   -829.32932   -628.08753   -129.95154   -80.008591    15.497421      46.7237      46.7237      46.7237           90           90           90     102002.7   -874.33631 
  937000       936498   -7785.4684    553.73054    -8339.199    4161.9864   -12501.185    90.705626   -707.49481   -930.27886    -949.1154    44.645166    41.528557    1.1951091      46.7237      46.7237      46.7237           90           90           90     102002.7   -862.29636 
  938000       937498   -7776.5538    539.80967   -8316.3635    4205.7384   -12522.102    88.425273   -475.38438   -1134.4745   -952.47088   -111.18391   -50.053374    195.27969      46.7237      46.7237      46.7237           90           90           90     102002.7   -854.10993 
  939000       938498   -7768.1402    565.05298   -8333.1932    4179.4862   -12512.679    92.560335   -1248.3867   -636.60109   -647.33343    24.594601   -34.011898   -32.791015      46.7237      46.7237      46.7237           90           90           90     102002.7   -844.10708 
  940000       939498   -7745.2037    568.21877   -8313.4225    4176.9953   -12490.418    93.078917   -882.25903   -947.14534   -358.11432   -6.4217887   -60.512382    33.393897      46.7237      46.7237      46.7237           90           90           90     102002.7    -729.1729 
  941000       940498   -7774.4934    539.35766    -8313.851    4186.1942   -12500.045     88.35123   -384.12092   -808.68691   -642.80178   -119.25728   -90.388724   -14.612267      46.7237      46.7237      46.7237           90           90           90     102002.7   -611.86987 
  942000       941498   -7785.0912    553.21822   -8338.3094    4167.0269   -12505.336    90.621704   -1106.0184   -488.48588    -715.1018    214.67245   -30.069781   -246.86012      46.7237      46.7237      46.7237           90           90           90     102002.7   -769.86869 
  943000       942498   -7777.3188    545.61319    -8322.932    4180.2377    -12503.17    89.375937   -787.59837   -403.53935   -975.29246    29.507883    7.2387396    217.36444      46.7237      46.7237      46.7237           90           90           90     102002.7    -722.1434 
  944000       943498   -7770.4991    553.75506   -8324.2542    4195.1151   -12519.369    90.709642   -1001.2439   -679.35017   -424.64602   -148.09988   -162.67907   -262.85946      46.7237      46.7237      46.7237           90           90           90     102002.7    -701.7467 
  945000       944498   -7765.3066    560.73271   -8326.0393    4190.0764   -12516.116    91.852639   -874.38279   -751.24937   -868.95521   -141.61359    19.075759   -285.69341      46.7237      46.7237      46.7237           90           90           90     102002.7   -831.52912 
  946000       945498   -7806.0201    546.93661   -8352.9567    4155.4639   -12508.421    89.592723   -394.45943   -906.77322   -1089.4666   -196.86315     209.8546    22.504013      46.7237      46.7237      46.7237           90           90           90     102002.7   -796.89974 
  947000       946498   -7767.8177    550.65111   -8318.4688    4190.5977   -12509.066     90.20119   -1095.1784   -754.07818   -728.50824    273.86071    -39.27595    111.84872      46.7237      46.7237      46.7237           90           90           90     102002.7   -859.25495 
  948000       947498   -7765.9972    553.34076   -8319.3379    4199.9134   -12519.251    90.641777   -777.91429   -673.48634   -337.85762   -159.39169    37.165219    88.287341      46.7237      46.7237      46.7237           90           90           90     102002.7   -596.41941 
  949000       948498   -7778.4384    545.59098   -8324.0294    4171.3649   -12495.394    89.372298   -741.19526   -1265.0848   -692.82971    13.580295    32.486107    105.45382      46.7237      46.7237      46.7237           90           90           90     102002.7   -899.70325 
  950000       949498   -7749.3956    567.20182   -8316.5974    4191.6297   -12508.227    92.912332   -367.72854   -919.30787   -759.93005   -42.871178    74.331137    54.454928      46.7237      46.7237      46.7237           90           90           90     102002.7   -682.32215 
  951000       950498   -7759.8007    572.29483   -8332.0955     4176.814   -12508.909    93.746609    -710.1903   -632.29724   -568.42149   -57.773004    290.40339    90.841779      46.7237      46.7237      46.7237           90           90           90     102002.7   -636.96968 
  952000       951498   -7774.3106    560.94173   -8335.2524    4168.9284   -12504.181    91.886878   -824.96531   -411.94616   -459.15657    5.5961803   -51.694608    66.642762      46.7237      46.7237      46.7237           90           90           90     102002.7   -565.35602 
  953000       952498   -7792.2592    540.69158   -8332.9507    4189.8111   -12522.762    88.569737   -646.64261   -729.02419   -1008.6742    -134.1418   -11.486056    118.64918      46.7237      46.7237      46.7237           90           90           90     102002.7   -794.78033 
  954000       953498   -7768.2325    562.83427   -8331.0667    4181.9141   -12512.981    92.196892   -369.71511   -392.07997   -1050.3821    88.435034    44.973245   -10.803357      46.7237      46.7237      46.7237           90           90           90     102002.7   -604.05905 
  955000       954498   -7759.2582    555.49381    -8314.752    4189.0215   -12503.773    90.994464    -696.3148   -930.64949   -412.56956    294.56143   -25.502528   -135.78307      46.7237      46.7237      46.7237           90           90           90     102002.7   -679.84462 
  956000       955498   -7779.6083    556.89477   -8336.5031    4174.8854   -12511.388    91.223952   -879.37618   -770.27804   -726.78187   -4.1266015   -33.525036   -94.250821      46.7237      46.7237      46.7237           90           90           90     102002.7   -792.14536 
  957000       956498   -7798.4132    541.51435   -8339.9275     4178.342    -12518.27    88.704512   -567.74093   -621.55228   -706.66623    -12.21025       160.32    4.1325297      46.7237      46.7237      46.7237           90           90           90     102002.7   -631.98648 
  958000       957498   -7777.0368    538.24516    -8315.282    4199.4515   -12514.733    88.168993   -862.88149   -1099.0162   -754.55026   -170.80504    158.09931   -111.91983      46.7237      46.7237      46.7237           90           90           90     102002.7   -905.48264 
  959000       958498   -7771.9652    545.54456   -8317.5097    4199.6437   -12517.153    89.364695   -1005.6316    -713.5462   -898.11807     108.5006    42.589959   -31.650719      46.7237      46.7237      46.7237           90           90           90     102002.7   -872.43195 
  960000       959498   -7757.0866    548.46341     -8305.55    4210.7325   -12516.283    89.842826   -477.98143   -187.39417   -757.77557   -4.1417477    133.16543    27.986397      46.7237      46.7237      46.7237           90           90           90     102002.7   -474.38373 
  961000       960498   -7766.2126    561.71318   -8327.9258     4202.311   -12530.237    92.013247   -962.81606   -302.58037   -642.07942    39.529906   -210.95746    135.15457      46.7237      46.7237      46.7237           90           90           90     102002.7   -635.82528 
  962000       961498   -7771.5442    558.76513   -8330.3094    4184.2015   -12514.511    91.530333   -555.29961   -936.12256   -678.05348    257.24085    51.723169    168.04955      46.7237      46.7237      46.7237           90           90           90     102002.7   -723.15855 
  963000       962498    -7787.968    544.92019   -8332.8882    4201.7016    -12534.59    89.262418   -801.30337   -509.11014   -805.04147    145.87912    -36.89194   -23.153688      46.7237      46.7237      46.7237           90           90           90     102002.7   -705.15166 
  964000       963498   -7773.3499    554.64141   -8327.9914    4188.8389    -12516.83    90.854834   -783.55946     -974.056   -639.57543   -37.710272   -193.41997   -16.833273      46.7237      46.7237      46.7237           90           90           90     102002.7   -799.06363 
  965000       964498    -7773.055    549.31088   -8322.3659    4211.5658   -12533.932    89.981648   -1091.1288   -796.51725   -934.84602   -90.861035   -188.42476    60.475892      46.7237      46.7237      46.7237           90           90           90     102002.7   -940.83069 
  966000       965498   -7798.5661    552.09766   -8350.6637    4170.6283   -12521.292    90.438146   -813.92098   -575.78673    -1063.377   -148.51479   -78.471578   -1.8275116      46.7237      46.7237      46.7237           90           90           90     102002.7   -817.69491 
  967000       966498   -7759.5518    562.03889   -8321.5907    4197.4563   -12519.047    92.066603   -548.04793   -814.63662   -733.03036    100.13989    271.91508    71.061374      46.7237      46.7237      46.7237           90           90           90     102002.7   -698.57164 
  968000       967498   -7758.1696    565.62133   -8323.7909    4195.4449   -12519.236    92.653435   -1086.9042   -701.74575   -1000.9024    -5.272055    89.461174   -63.566219      46.7237      46.7237      46.7237           90           90           90     102002.7   -929.85077 
  969000       968498   -7761.8998    570.76952   -8332.6694    4189.7952   -12522.465    93.496751   -1156.3946   -1063.7436   -787.31149    89.574528    62.243254     31.15943      46.7237      46.7237      46.7237           90           90           90     102002.7   -1002.4832 
  970000       969498   -7772.0706    563.81115   -8335.8818    4193.2994   -12529.181    92.356912   -919.60956   -778.65875   -925.85074   -128.16356    14.590064   -4.0081404      46.7237      46.7237      46.7237           90           90           90     102002.7   -874.70635 
  971000       970498   -7761.8145      571.842   -8333.6566    4174.0557   -12507.712    93.672432   -660.49435   -989.47314   -897.09189   -20.542783    128.40636    4.2687259      46.7237      46.7237      46.7237           90           90           90     102002.7    -849.0198 
  972000       971498    -7777.548    543.37865   -8320.9266    4210.7585   -12531.685      89.0099   -1381.5911   -880.74668   -588.87108     114.5415   -116.92032    236.19437      46.7237      46.7237      46.7237           90           90           90     102002.7   -950.40296 
  973000       972498   -7775.0978    549.29111   -8324.3889    4194.2925   -12518.681     89.97841   -794.79617   -926.71844   -601.24959    169.02254   -74.718183    43.999975      46.7237      46.7237      46.7237           90           90           90     102002.7   -774.25473 
  974000       973498   -7785.1071    541.18775   -8326.2949    4207.2658   -12533.561    88.651014   -692.43604   -1045.3621    -943.4274   -38.455195   -5.9017079    71.206721      46.7237      46.7237      46.7237           90           90           90     102002.7   -893.74185 
  975000       974498   -7755.4442    569.40025   -8324.8445    4190.6293   -12515.474    93.272453   -938.31382   -583.31758   -696.46735   -313.51084   -86.364223    90.506518      46.7237      46.7237      46.7237           90           90           90     102002.7   -739.36625 
  976000       975498   -7770.0278     554.1446   -8324.1724    4203.7324   -12527.905    90.773451   -730.21739    -649.9881   -727.69692    348.46477    123.92281    78.030817      46.7237      46.7237      46.7237           90           90           90     102002.7   -702.63413 
  977000       976498   -7776.1783     564.6642   -8340.8425    4174.3615   -12515.204    92.496649   -671.07949     -942.303   -1013.4613    83.206999    87.508246   -7.0553534      46.7237      46.7237      46.7237           90           90           90     102002.7   -875.61459 
  978000       977498    -7760.536    571.23492   -8331.7709    4200.5849   -12532.356    93.572986   -638.17121   -261.46481   -675.29636   -46.525629    64.344557   -44.646579      46.7237      46.7237      46.7237           90           90           90     102002.7   -524.97746 
  979000       978498   -7788.9806    550.43539   -8339.4159    4166.8755   -12506.291    90.165853   -879.54267   -713.37333   -630.49777   -34.840576   -26.027688   -166.21127      46.7237      46.7237      46.7237           90           90           90     102002.7   -741.13793 
  980000       979498   -7772.7338    560.12958   -8332.8634    4185.5679   -12518.431    91.753842   -681.11763    -603.7045   -589.84991   -36.048123   -65.426834    73.080143      46.7237      46.7237      46.7237           90           90           90     102002.7   -624.89068 
  981000       980498    -7745.911    577.37415   -8323.2851    4191.4801   -12514.765    94.578644    -620.1202   -338.70463   -718.77023   -6.0383382   -12.439691    111.36929      46.7237      46.7237      46.7237           90           90           90     102002.7   -559.19835 
  982000       981498   -7774.5177     554.3975   -8328.9151    4199.7708   -12528.686    90.814879   -1010.1174   -976.51525    -557.0017    56.603584   -61.393333   -66.822472      46.7237      46.7237      46.7237           90           90           90     102002.7   -847.87812 
  983000       982498   -7795.6583    543.73521   -8339.3935    4176.6457   -12516.039    89.068309   -637.07519   -1056.9676   -767.67676   -72.809144    68.017845    96.541218      46.7237      46.7237      46.7237           90           90           90     102002.7   -820.57317 
  984000       983498   -7774.9668    544.42555   -8319.3923    4194.9189   -12514.311    89.181392   -995.68957    -944.6657   -1258.6717   -217.95636    45.968042    56.709322      46.7237      46.7237      46.7237           90           90           90     102002.7   -1066.3423 
  985000       984498   -7796.5524    542.26655    -8338.819    4177.1927   -12516.012    88.827729   -908.13441   -1022.3341   -607.88431    33.087457    101.20365    164.83687      46.7237      46.7237      46.7237           90           90           90     102002.7    -846.1176 
  986000       985498   -7742.4288    570.61408   -8313.0429    4179.7406   -12492.783    93.471289   -463.89489   -283.66886   -517.08786   -54.032657   -1.2998691   -228.84052      46.7237      46.7237      46.7237           90           90           90     102002.7   -421.55054 
  987000       986498   -7762.9916    550.58712   -8313.5787    4191.9931   -12505.572    90.190708   -749.87118    -562.5601   -846.95628   -212.25274    147.02557   -144.79606      46.7237      46.7237      46.7237           90           90           90     102002.7   -719.79585 
  988000       987498   -7776.3021    556.41446   -8332.7165    4164.0555   -12496.772    91.145275   -785.62213   -746.71926   -822.71282   -46.584368    213.78261    239.18476      46.7237      46.7237      46.7237           90           90           90     102002.7   -785.01807 
  989000       988498   -7772.6464    550.39372   -8323.0401    4204.1634   -12527.204    90.159027   -1127.3526   -755.72933   -775.60111    68.853884      21.9697    234.76399      46.7237      46.7237      46.7237           90           90           90     102002.7   -886.22768 
  990000       989498   -7757.6118    557.88217    -8315.494    4201.8874   -12517.381    91.385697   -1184.5677   -935.79728     -863.669    110.87486     122.5449    18.141452      46.7237      46.7237      46.7237           90           90           90     102002.7   -994.67801 
  991000       990498   -7743.5479    561.81825   -8305.3661     4194.094    -12499.46    92.030458   -597.67262   -754.23133   -451.94752   -82.049132   -17.651368   -4.2042834      46.7237      46.7237      46.7237           90           90           90     102002.7   -601.28382 
  992000       991498   -7777.4035    553.87415   -8331.2776    4203.2772   -12534.555    90.729151   -1290.7418   -961.14234     -785.831    157.49049    13.428226   -24.747564      46.7237      46.7237      46.7237           90           90           90     102002.7   -1012.5717 
  993000       992498   -7748.6784    556.03418   -8304.7126    4213.7421   -12518.455    91.082981   -749.59702   -728.75829   -932.94191   -73.118854    173.72365   -53.859313      46.7237      46.7237      46.7237           90           90           90     102002.7   -803.76574 
  994000       993498   -7775.7667    564.59632    -8340.363    4194.6221   -12534.985     92.48553    -469.0815   -575.16418   -857.32575    62.982992    34.789408   -256.16573      46.7237      46.7237      46.7237           90           90           90     102002.7   -633.85714 
  995000       994498   -7749.7798    568.12819    -8317.908     4196.344   -12514.252    93.064079   -1048.8227    -802.5141   -1046.0073    9.7327304      136.301    144.38678      46.7237      46.7237      46.7237           90           90           90     102002.7   -965.78135 
  996000       995498   -7785.4633    546.30821   -8331.7715    4167.0538   -12498.825    89.489787   -553.65948   -501.03677   -580.27365    302.68615    -300.6253   -163.04475      46.7237      46.7237      46.7237           90           90           90     102002.7   -544.98997 
  997000       996498   -7774.3314    554.89303   -8329.2244     4197.043   -12526.267    90.896051   -580.00473   -764.96919   -1177.2447    171.14589   -76.636714    120.26329      46.7237      46.7237      46.7237           90           90           90     102002.7   -840.73955 
  998000       997498   -7790.5006    531.78454   -8322.2851    4181.4701   -12503.755     87.11069   -270.83098   -585.21852   -327.02356     114.9828    82.151125    31.265622      46.7237      46.7237      46.7237           90           90           90     102002.7   -394.35769 
  999000       998498   -7771.8998    558.39892   -8330.2988    4202.0513    -12532.35    91.470344   -689.43308   -311.46901   -549.51626   -132.09118   -121.95244   -59.591959      46.7237      46.7237      46.7237           90           90           90     102002.7   -516.80612 
 1000000       999498   -7768.1359    551.89357   -8320.0295    4202.0233   -12522.053    90.404714   -1473.1028   -811.10094    -960.7139   -46.815263    50.554743     158.8197      46.7237      46.7237      46.7237           90           90           90     102002.7   -1081.6392 
 1000502      1000000   -7777.7799     554.8702   -8332.6501    4188.2121   -12520.862    90.892311   -886.83267   -586.53033   -658.53799    60.321387   -43.241734    182.99573      46.7237      46.7237      46.7237           90           90           90     102002.7   -710.63366 
Loop time of 1655.41 on 16 procs for 500000 steps with 2049 atoms

Performance: 26.096 ns/day, 0.920 hours/ns, 302.040 timesteps/s
99.8% CPU use with 16 MPI tasks x no OpenMP threads

MPI task timing breakdown:
Section |  min time  |  avg time  |  max time  |%varavg| %total
---------------------------------------------------------------
Pair    | 630.82     | 904.45     | 1195       | 700.9 | 54.64
Bond    | 161.96     | 183.73     | 202.39     | 109.9 | 11.10
Neigh   | 6.5537     | 6.5747     | 6.5955     |   0.3 |  0.40
Comm    | 227.08     | 532.35     | 825.64     | 970.8 | 32.16
Output  | 0.1044     | 0.10916    | 0.10957    |   0.4 |  0.01
Modify  | 21.772     | 22.706     | 23.675     |  14.6 |  1.37
Other   |            | 5.498      |            |       |  0.33

Nlocal:    128.062 ave 158 max 103 min
Histogram: 2 1 2 2 2 2 1 1 2 1
Nghost:    2536.25 ave 2562 max 2510 min
Histogram: 2 2 0 1 2 4 1 1 1 2
Neighs:    11465.8 ave 17610 max 6575 min
Histogram: 2 3 1 1 2 2 2 1 0 2

Total # of neighbors = 183452
Ave neighs/atom = 89.5325
Ave special neighs/atom = 5.62225
Neighbor list builds = 3909
Dangerous builds = 0
Total wall time: 0:50:54
