LAMMPS (30 Mar 2018)
Reading data file ...
  orthogonal box = (0 0 0) to (46.7237 46.7237 46.7237)
  2 by 2 by 4 MPI processor grid
  reading atoms ...
  1728 atoms
  scanning bonds ...
  5 = max bonds/atom
  scanning angles ...
  10 = max angles/atom
  scanning dihedrals ...
  32 = max dihedrals/atom
  scanning impropers ...
  3 = max impropers/atom
  reading bonds ...
  2064 bonds
  reading angles ...
  3696 angles
  reading dihedrals ...
  6240 dihedrals
  reading impropers ...
  1008 impropers
Finding 1-2 1-3 1-4 neighbors ...
  special bond factors lj:   0          0          0         
  special bond factors coul: 0          0          0         
  5 = max # of 1-2 neighbors
  8 = max # of 1-3 neighbors
  20 = max # of 1-4 neighbors
  19 = max # of special neighbors
Finding 1-2 1-3 1-4 neighbors ...
  special bond factors lj:   0          0          1         
  special bond factors coul: 1          1          1         
  5 = max # of 1-2 neighbors
  8 = max # of 1-3 neighbors
  19 = max # of special neighbors
WARNING: Using 'neigh_modify every 1 delay 0 check yes' setting during minimization (../min.cpp:168)
Neighbor list info ...
  update every 1 steps, delay 0 steps, check yes
  max neighbors/atom: 2000, page size: 100000
  master list distance cutoff = 16
  ghost atom cutoff = 16
  binsize = 8, bins = 6 6 6
  3 neighbor lists, perpetual/occasional/extra = 3 0 0
  (1) pair buck6d/coul/gauss/dsf, perpetual, skip from (3)
      attributes: half, newton on
      pair build: skip
      stencil: none
      bin: none
  (2) pair lj/cut, perpetual, skip from (3)
      attributes: half, newton on
      pair build: skip
      stencil: none
      bin: none
  (3) neighbor class addition, perpetual
      attributes: half, newton on
      pair build: half/bin/newton
      stencil: half/bin/3d/newton
      bin: standard
Setting up cg style minimization ...
  Unit style    : real
  Current step  : 0
WARNING: Inconsistent image flags (../domain.cpp:786)
Per MPI rank memory allocation (min/avg/max) = 22.89 | 23.35 | 23.79 Mbytes
Step Temp E_pair E_mol TotEng Press 
       0            0   -11513.385    6482.8914   -5030.4933    6292.7899 
      96            0   -11677.332    4313.0533   -7364.2788   -944.96955 
Loop time of 0.549027 on 16 procs for 96 steps with 1728 atoms

99.8% CPU use with 16 MPI tasks x no OpenMP threads

Minimization stats:
  Stopping criterion = energy tolerance
  Energy initial, next-to-last, final = 
        -5030.49330467     -7364.27875534     -7364.27880511
  Force two-norm initial, final = 2577 0.25852
  Force max component initial, final = 151.958 0.0112604
  Final line search alpha, max atom move = 1 0.0112604
  Iterations, force evaluations = 96 206

MPI task timing breakdown:
Section |  min time  |  avg time  |  max time  |%varavg| %total
---------------------------------------------------------------
Pair    | 0.25074    | 0.32507    | 0.41693    |   8.8 | 59.21
Bond    | 0.048434   | 0.077234   | 0.10612    |   9.1 | 14.07
Neigh   | 0          | 0          | 0          |   0.0 |  0.00
Comm    | 0.025241   | 0.1381     | 0.23365    |  19.6 | 25.15
Output  | 0          | 0          | 0          |   0.0 |  0.00
Modify  | 0          | 0          | 0          |   0.0 |  0.00
Other   |            | 0.008619   |            |       |  1.57

Nlocal:    108 ave 138 max 78 min
Histogram: 8 0 0 0 0 0 0 0 0 8
Nghost:    2182 ave 2212 max 2152 min
Histogram: 8 0 0 0 0 0 0 0 0 8
Neighs:    11772 ave 14517 max 9513 min
Histogram: 2 2 2 2 1 1 2 1 2 1

Total # of neighbors = 188352
Ave neighs/atom = 109
Ave special neighs/atom = 6.66667
Neighbor list builds = 0
Dangerous builds = 0
Neighbor list info ...
  update every 1 steps, delay 10 steps, check yes
  max neighbors/atom: 2000, page size: 100000
  master list distance cutoff = 16
  ghost atom cutoff = 16
  binsize = 8, bins = 6 6 6
  3 neighbor lists, perpetual/occasional/extra = 3 0 0
  (1) pair buck6d/coul/gauss/dsf, perpetual, skip from (3)
      attributes: half, newton on
      pair build: skip
      stencil: none
      bin: none
  (2) pair lj/cut, perpetual, skip from (3)
      attributes: half, newton on
      pair build: skip
      stencil: none
      bin: none
  (3) neighbor class addition, perpetual
      attributes: half, newton on
      pair build: half/bin/newton
      stencil: half/bin/3d/newton
      bin: standard
Setting up Verlet run ...
  Unit style    : real
  Current step  : 96
  Time step     : 1
WARNING: Inconsistent image flags (../domain.cpp:786)
Per MPI rank memory allocation (min/avg/max) = 22.51 | 22.6 | 22.66 Mbytes
Step Temp PotEng TotEng Press Volume Lx Ly Lz 
      96           91   -7364.2788   -6895.8236   -735.03245     102002.7      46.7237      46.7237      46.7237 
    1000    95.730164   -7321.2927   -6828.4873   -807.68763     102002.7      46.7237      46.7237      46.7237 
    2000    89.021585   -7331.6788   -6873.4082   -809.94614     102002.7      46.7237      46.7237      46.7237 
    3000    90.969291    -7315.299   -6847.0019   -884.63085     102002.7      46.7237      46.7237      46.7237 
    4000    90.697874    -7328.509   -6861.6091   -676.21991     102002.7      46.7237      46.7237      46.7237 
    5000    93.698309   -7323.1089   -6840.7632   -891.38455     102002.7      46.7237      46.7237      46.7237 
    6000    91.412766   -7313.5405   -6842.9605   -1018.8016     102002.7      46.7237      46.7237      46.7237 
    7000    93.088585   -7333.3455   -6854.1386   -951.18698     102002.7      46.7237      46.7237      46.7237 
    8000    92.364912   -7303.2691   -6827.7876   -983.54607     102002.7      46.7237      46.7237      46.7237 
    9000    91.058999   -7334.3555   -6865.5966   -766.26564     102002.7      46.7237      46.7237      46.7237 
   10000    91.008415   -7315.1058   -6846.6074   -796.13011     102002.7      46.7237      46.7237      46.7237 
   11000    93.908826   -7319.6049   -6836.1755   -573.74431     102002.7      46.7237      46.7237      46.7237 
   12000    90.100851   -7328.8323   -6865.0058   -700.80947     102002.7      46.7237      46.7237      46.7237 
   13000     92.41401   -7327.3024   -6851.5681   -835.08446     102002.7      46.7237      46.7237      46.7237 
   14000    87.244177   -7323.4088   -6874.2881   -663.05957     102002.7      46.7237      46.7237      46.7237 
   15000     89.22136   -7324.8794   -6865.5804   -755.81586     102002.7      46.7237      46.7237      46.7237 
   16000    94.161736   -7306.5819   -6821.8505   -652.87668     102002.7      46.7237      46.7237      46.7237 
   17000    90.106103   -7332.5422   -6868.6887   -596.15323     102002.7      46.7237      46.7237      46.7237 
   18000    91.260131   -7317.6065   -6847.8122    -574.5096     102002.7      46.7237      46.7237      46.7237 
   19000    88.933793   -7337.7476    -6879.929    -522.8984     102002.7      46.7237      46.7237      46.7237 
   20000    89.135048   -7317.6226   -6858.7679   -827.50144     102002.7      46.7237      46.7237      46.7237 
   21000      90.9817   -7319.2225   -6850.8615   -716.45374     102002.7      46.7237      46.7237      46.7237 
   22000    90.654903   -7339.7589   -6873.0803   -668.88734     102002.7      46.7237      46.7237      46.7237 
   23000     91.08279   -7339.3053    -6870.424   -467.89143     102002.7      46.7237      46.7237      46.7237 
   24000    92.173851   -7322.2518   -6847.7539   -461.27892     102002.7      46.7237      46.7237      46.7237 
   25000    92.341849   -7331.9302   -6856.5674   -484.98235     102002.7      46.7237      46.7237      46.7237 
   26000     93.25867   -7308.4321   -6828.3496   -708.36995     102002.7      46.7237      46.7237      46.7237 
   27000    90.629727   -7321.7054   -6855.1563   -551.37666     102002.7      46.7237      46.7237      46.7237 
   28000    91.488962   -7310.1178   -6839.1455   -765.79296     102002.7      46.7237      46.7237      46.7237 
   29000     90.35541   -7321.6761   -6856.5392   -628.57404     102002.7      46.7237      46.7237      46.7237 
   30000     91.88014   -7331.7078   -6858.7218   -646.88166     102002.7      46.7237      46.7237      46.7237 
   31000    95.594335   -7321.8966   -6829.7904   -764.07478     102002.7      46.7237      46.7237      46.7237 
   32000    89.990608   -7310.0274   -6846.7684   -783.49988     102002.7      46.7237      46.7237      46.7237 
   33000    90.032865   -7334.5606   -6871.0841    -658.4522     102002.7      46.7237      46.7237      46.7237 
   34000     91.19232   -7306.5071   -6837.0619   -715.66555     102002.7      46.7237      46.7237      46.7237 
   35000     92.07638   -7323.4955   -6849.4993   -328.47518     102002.7      46.7237      46.7237      46.7237 
   36000    94.367948   -7322.9219    -6837.129   -579.57985     102002.7      46.7237      46.7237      46.7237 
   37000     89.37431   -7326.2769   -6866.1906   -627.33478     102002.7      46.7237      46.7237      46.7237 
   38000    89.346661    -7325.279    -6865.335   -636.94718     102002.7      46.7237      46.7237      46.7237 
   39000    96.080728   -7326.2864   -6831.6763   -421.64923     102002.7      46.7237      46.7237      46.7237 
   40000    90.608094   -7325.8037    -6859.366   -789.34221     102002.7      46.7237      46.7237      46.7237 
   41000    91.269913   -7319.2133   -6849.3687    -621.1654     102002.7      46.7237      46.7237      46.7237 
   42000    92.522859   -7324.2119   -6847.9173   -572.18549     102002.7      46.7237      46.7237      46.7237 
   43000    92.637452   -7317.1803   -6840.2958   -623.16404     102002.7      46.7237      46.7237      46.7237 
   44000    94.006038   -7325.3541   -6841.4242   -606.24681     102002.7      46.7237      46.7237      46.7237 
   45000    88.829529   -7310.2953   -6853.0134   -776.64379     102002.7      46.7237      46.7237      46.7237 
   46000     90.89314   -7312.4188   -6844.5137   -531.33547     102002.7      46.7237      46.7237      46.7237 
   47000    89.924848    -7313.104   -6850.1836   -595.86296     102002.7      46.7237      46.7237      46.7237 
   48000    87.875791   -7315.4648   -6863.0926      -555.72     102002.7      46.7237      46.7237      46.7237 
   49000    91.627007   -7327.5423   -6855.8594   -674.23086     102002.7      46.7237      46.7237      46.7237 
   50000    93.845269   -7308.4438   -6825.3416   -530.88478     102002.7      46.7237      46.7237      46.7237 
   51000    90.681424   -7323.4696   -6856.6544   -647.08861     102002.7      46.7237      46.7237      46.7237 
   52000    90.892715   -7334.1794   -6866.2766   -774.17506     102002.7      46.7237      46.7237      46.7237 
   53000     91.88418     -7321.11   -6848.1032    -867.7881     102002.7      46.7237      46.7237      46.7237 
   54000    92.891732   -7322.6098   -6844.4162   -685.18184     102002.7      46.7237      46.7237      46.7237 
   55000    88.641845   -7318.8274   -6862.5117   -698.33129     102002.7      46.7237      46.7237      46.7237 
   56000    91.425462   -7306.4158   -6835.7704   -670.51249     102002.7      46.7237      46.7237      46.7237 
   57000    91.033374    -7326.961    -6858.334   -792.23144     102002.7      46.7237      46.7237      46.7237 
   58000    86.389226   -7321.3584   -6876.6389   -483.49494     102002.7      46.7237      46.7237      46.7237 
   59000    88.984158   -7309.7646   -6851.6867   -578.52298     102002.7      46.7237      46.7237      46.7237 
   60000    91.560278   -7319.3655   -6848.0261   -491.80549     102002.7      46.7237      46.7237      46.7237 
   61000    91.264598   -7337.7218   -6867.9046   -559.46784     102002.7      46.7237      46.7237      46.7237 
   62000    91.636126   -7315.0495   -6843.3197   -544.21201     102002.7      46.7237      46.7237      46.7237 
   63000    88.824473   -7314.9421   -6857.6862   -479.09713     102002.7      46.7237      46.7237      46.7237 
   64000    91.471235    -7334.893    -6864.012   -698.91824     102002.7      46.7237      46.7237      46.7237 
   65000    90.135022   -7315.5991   -6851.5967    -503.0741     102002.7      46.7237      46.7237      46.7237 
   66000    92.401521   -7320.0298   -6844.3598   -314.83367     102002.7      46.7237      46.7237      46.7237 
   67000    90.165429   -7333.7143   -6869.5553    -342.2969     102002.7      46.7237      46.7237      46.7237 
   68000    90.412215   -7306.2703    -6840.841   -586.61526     102002.7      46.7237      46.7237      46.7237 
   69000     87.57697   -7330.7454   -6879.9115   -890.25629     102002.7      46.7237      46.7237      46.7237 
   70000    91.208817   -7319.2001     -6849.67   -612.35587     102002.7      46.7237      46.7237      46.7237 
   71000    92.111803   -7322.3021   -6848.1235    -820.4459     102002.7      46.7237      46.7237      46.7237 
   72000    89.086116   -7329.3091   -6870.7063   -573.16596     102002.7      46.7237      46.7237      46.7237 
   73000    88.277746   -7319.0557   -6864.6143   -752.19275     102002.7      46.7237      46.7237      46.7237 
   74000    91.764542   -7311.9586   -6839.5677   -604.49505     102002.7      46.7237      46.7237      46.7237 
   75000    88.885885   -7323.0078   -6865.4358   -344.39548     102002.7      46.7237      46.7237      46.7237 
   76000    92.380396   -7313.0721   -6837.5109   -324.29774     102002.7      46.7237      46.7237      46.7237 
   77000    88.607033   -7338.6835    -6882.547   -551.17777     102002.7      46.7237      46.7237      46.7237 
   78000    89.736791   -7324.0335   -6862.0811   -551.33396     102002.7      46.7237      46.7237      46.7237 
   79000    92.060824   -7320.2532   -6846.3371    -436.5307     102002.7      46.7237      46.7237      46.7237 
   80000    91.177129   -7324.6548   -6855.2878    -797.6009     102002.7      46.7237      46.7237      46.7237 
   81000    91.998013    -7324.932   -6851.3392    -516.2473     102002.7      46.7237      46.7237      46.7237 
   82000    92.024901   -7334.4624   -6860.7312   -543.78886     102002.7      46.7237      46.7237      46.7237 
   83000    91.204601   -7334.5055   -6864.9971   -976.08483     102002.7      46.7237      46.7237      46.7237 
   84000    90.766992   -7288.5009   -6821.2452   -746.46395     102002.7      46.7237      46.7237      46.7237 
   85000    89.843545   -7318.1603   -6855.6584   -711.63881     102002.7      46.7237      46.7237      46.7237 
   86000    88.857476   -7320.7232   -6863.2975    -584.5313     102002.7      46.7237      46.7237      46.7237 
   87000    92.082793   -7316.0566   -6842.0274   -545.66945     102002.7      46.7237      46.7237      46.7237 
   88000    92.052217   -7328.8281   -6854.9563   -826.03441     102002.7      46.7237      46.7237      46.7237 
   89000     96.79849   -7316.6279   -6818.3229   -735.17998     102002.7      46.7237      46.7237      46.7237 
   90000    92.273802   -7324.2715    -6849.259   -821.23503     102002.7      46.7237      46.7237      46.7237 
   91000    89.810569   -7330.6932   -6868.3611   -846.99741     102002.7      46.7237      46.7237      46.7237 
   92000    90.971479   -7329.8308   -6861.5224   -515.28148     102002.7      46.7237      46.7237      46.7237 
   93000    89.208901   -7324.7645   -6865.5296   -745.07765     102002.7      46.7237      46.7237      46.7237 
   94000    90.663084   -7323.6226   -6856.9019   -625.95467     102002.7      46.7237      46.7237      46.7237 
   95000    89.869712   -7310.8618   -6848.2252   -648.62812     102002.7      46.7237      46.7237      46.7237 
   96000    89.400621   -7316.1158    -6855.894   -557.84109     102002.7      46.7237      46.7237      46.7237 
   97000    90.583826   -7337.1488    -6870.836   -555.76199     102002.7      46.7237      46.7237      46.7237 
   98000    91.370925   -7317.8484   -6847.4838   -454.60213     102002.7      46.7237      46.7237      46.7237 
   99000    92.317894   -7320.5681   -6845.3286   -544.84821     102002.7      46.7237      46.7237      46.7237 
  100000    90.879028   -7320.9114    -6853.079   -687.94991     102002.7      46.7237      46.7237      46.7237 
  101000    89.816471   -7311.1527   -6848.7902   -764.44958     102002.7      46.7237      46.7237      46.7237 
  102000    89.495942   -7316.5746   -6855.8621   -730.76872     102002.7      46.7237      46.7237      46.7237 
  103000    91.226279   -7330.0916   -6860.4716   -586.99301     102002.7      46.7237      46.7237      46.7237 
  104000    93.106999   -7333.2346   -6853.9329   -344.84804     102002.7      46.7237      46.7237      46.7237 
  105000    93.517507   -7333.7125   -6852.2976   -366.53232     102002.7      46.7237      46.7237      46.7237 
  106000    90.857857   -7312.8855   -6845.1621   -516.98192     102002.7      46.7237      46.7237      46.7237 
  107000     90.21088   -7321.7456   -6857.3527   -489.75936     102002.7      46.7237      46.7237      46.7237 
  108000    90.622156   -7317.1007   -6850.5907   -466.58508     102002.7      46.7237      46.7237      46.7237 
  109000    91.022397   -7335.4034   -6866.8329   -548.94004     102002.7      46.7237      46.7237      46.7237 
  110000     94.58184   -7309.3842   -6822.4902   -456.81147     102002.7      46.7237      46.7237      46.7237 
  111000    92.175226    -7319.992   -6845.4869   -745.70574     102002.7      46.7237      46.7237      46.7237 
  112000    90.887891   -7330.0751   -6862.1971   -598.49059     102002.7      46.7237      46.7237      46.7237 
  113000    91.471682   -7315.3129   -6844.4296   -616.20775     102002.7      46.7237      46.7237      46.7237 
  114000    90.255555   -7334.0901   -6869.4672   -470.72831     102002.7      46.7237      46.7237      46.7237 
  115000    92.360105   -7317.5953   -6842.1385   -506.09604     102002.7      46.7237      46.7237      46.7237 
  116000     90.37633   -7324.1649   -6858.9203    -579.0053     102002.7      46.7237      46.7237      46.7237 
  117000    93.572255   -7298.4159   -6816.7192   -459.19809     102002.7      46.7237      46.7237      46.7237 
  118000    89.944306   -7323.6785   -6860.6579   -381.77517     102002.7      46.7237      46.7237      46.7237 
  119000    90.902628   -7316.5571   -6848.6032   -571.61599     102002.7      46.7237      46.7237      46.7237 
  120000    92.994626   -7324.0639   -6845.3406   -638.16735     102002.7      46.7237      46.7237      46.7237 
  121000    92.605762   -7317.5538   -6840.8324   -621.65347     102002.7      46.7237      46.7237      46.7237 
  122000    95.072212   -7333.6565   -6844.2381   -707.81538     102002.7      46.7237      46.7237      46.7237 
  123000    93.066878   -7309.2968   -6830.2016   -343.55739     102002.7      46.7237      46.7237      46.7237 
  124000    90.031092   -7328.6877   -6865.2203   -624.41449     102002.7      46.7237      46.7237      46.7237 
  125000    93.116219   -7310.8947   -6831.5455   -654.87706     102002.7      46.7237      46.7237      46.7237 
  126000    90.569572    -7320.616   -6854.3766   -469.68464     102002.7      46.7237      46.7237      46.7237 
  127000    93.100582   -7331.1747    -6851.906   -172.67044     102002.7      46.7237      46.7237      46.7237 
  128000    94.299408   -7311.8204   -6826.3803   -506.04734     102002.7      46.7237      46.7237      46.7237 
  129000    92.085039   -7329.9892   -6855.9484   -746.55733     102002.7      46.7237      46.7237      46.7237 
  130000    91.476798   -7318.2156   -6847.3059   -506.31024     102002.7      46.7237      46.7237      46.7237 
  131000    91.540032   -7316.9523   -6845.7171   -689.26347     102002.7      46.7237      46.7237      46.7237 
  132000    90.915819   -7315.7418     -6847.72   -526.60605     102002.7      46.7237      46.7237      46.7237 
  133000    90.702373   -7321.7317   -6854.8087   -526.30806     102002.7      46.7237      46.7237      46.7237 
  134000    93.467091   -7313.1109   -6831.9555   -787.41033     102002.7      46.7237      46.7237      46.7237 
  135000    89.363515   -7319.8522   -6859.8214   -614.18577     102002.7      46.7237      46.7237      46.7237 
  136000    90.174074    -7327.166   -6862.9626   -844.54151     102002.7      46.7237      46.7237      46.7237 
  137000    95.837992   -7319.1873   -6825.8268   -347.23324     102002.7      46.7237      46.7237      46.7237 
  138000    91.241735   -7312.2839   -6842.5843   -623.75128     102002.7      46.7237      46.7237      46.7237 
  139000    92.766594   -7332.9012   -6855.3518   -788.00006     102002.7      46.7237      46.7237      46.7237 
  140000    93.752726   -7329.8191   -6847.1933   -614.17528     102002.7      46.7237      46.7237      46.7237 
  141000    90.315037   -7311.3828   -6846.4537   -431.20806     102002.7      46.7237      46.7237      46.7237 
  142000    93.698623   -7340.8707   -6858.5234   -632.35587     102002.7      46.7237      46.7237      46.7237 
  143000    89.234799   -7309.8847   -6850.5165   -464.65283     102002.7      46.7237      46.7237      46.7237 
  144000    90.718439   -7339.8493   -6872.8435   -484.44885     102002.7      46.7237      46.7237      46.7237 
  145000    90.601921   -7307.8194   -6841.4135   -265.27838     102002.7      46.7237      46.7237      46.7237 
  146000     89.52066   -7318.6516   -6857.8118   -510.38855     102002.7      46.7237      46.7237      46.7237 
  147000    93.654315     -7324.54   -6842.4208   -494.57167     102002.7      46.7237      46.7237      46.7237 
  148000    89.897549   -7319.3893   -6856.6094   -553.65973     102002.7      46.7237      46.7237      46.7237 
  149000    92.581075    -7334.367   -6857.7727   -561.43713     102002.7      46.7237      46.7237      46.7237 
  150000    90.853743   -7303.2463   -6835.5441   -716.47839     102002.7      46.7237      46.7237      46.7237 
  151000    92.330443   -7326.9125   -6851.6084   -667.55062     102002.7      46.7237      46.7237      46.7237 
  152000    89.459382   -7311.5862   -6851.0619   -456.65151     102002.7      46.7237      46.7237      46.7237 
  153000    91.297454   -7310.2305   -6840.2441   -448.26945     102002.7      46.7237      46.7237      46.7237 
  154000    85.895495   -7319.6336   -6877.4557   -406.46818     102002.7      46.7237      46.7237      46.7237 
  155000    90.008088   -7317.4593   -6854.1104   -678.25429     102002.7      46.7237      46.7237      46.7237 
  156000    92.541995   -7322.8765   -6846.4833   -433.71308     102002.7      46.7237      46.7237      46.7237 
  157000    91.112573   -7332.2706   -6863.2359   -564.55088     102002.7      46.7237      46.7237      46.7237 
  158000    87.961628   -7305.3105   -6852.4965   -457.48825     102002.7      46.7237      46.7237      46.7237 
  159000    95.140855   -7330.6481   -6840.8764   -328.13261     102002.7      46.7237      46.7237      46.7237 
  160000     90.77758   -7314.7113   -6847.4011   -390.22098     102002.7      46.7237      46.7237      46.7237 
  161000    89.182755   -7327.9413   -6868.8411   -352.89375     102002.7      46.7237      46.7237      46.7237 
  162000     91.73815   -7314.1485   -6841.8934   -398.53334     102002.7      46.7237      46.7237      46.7237 
  163000    90.392789    -7318.049   -6852.7196   -577.35909     102002.7      46.7237      46.7237      46.7237 
  164000    92.359877   -7312.4001   -6836.9445   -754.23686     102002.7      46.7237      46.7237      46.7237 
  165000    92.194846   -7324.2878   -6849.6817   -554.06508     102002.7      46.7237      46.7237      46.7237 
  166000    87.972612   -7317.7829   -6864.9123   -555.55497     102002.7      46.7237      46.7237      46.7237 
  167000    90.862232   -7327.5836   -6859.8376   -587.41517     102002.7      46.7237      46.7237      46.7237 
  168000    94.971755    -7331.118   -6842.2168   -634.29543     102002.7      46.7237      46.7237      46.7237 
  169000     91.31515   -7323.6187   -6853.5412   -458.13751     102002.7      46.7237      46.7237      46.7237 
  170000    92.493123   -7325.2744   -6849.1329   -637.76229     102002.7      46.7237      46.7237      46.7237 
  171000    90.343994   -7313.3217   -6848.2436   -370.69831     102002.7      46.7237      46.7237      46.7237 
  172000    89.503141   -7337.0665   -6876.3169   -333.86435     102002.7      46.7237      46.7237      46.7237 
  173000     88.49706   -7310.6451   -6855.0747   -627.83534     102002.7      46.7237      46.7237      46.7237 
  174000    93.902778   -7314.2609   -6830.8626   -259.65613     102002.7      46.7237      46.7237      46.7237 
  175000    92.036208   -7328.1043   -6854.3149   -387.79217     102002.7      46.7237      46.7237      46.7237 
  176000    92.864127   -7310.1176   -6832.0662    -501.6532     102002.7      46.7237      46.7237      46.7237 
  177000    89.833563   -7312.1885    -6849.738   -172.63558     102002.7      46.7237      46.7237      46.7237 
  178000    92.068497   -7308.1557   -6834.2001   -441.33937     102002.7      46.7237      46.7237      46.7237 
  179000    91.514966   -7320.2683   -6849.1622   -551.26384     102002.7      46.7237      46.7237      46.7237 
  180000    93.662435   -7315.7496   -6833.5886   -598.48297     102002.7      46.7237      46.7237      46.7237 
  181000    92.853679   -7332.9218   -6854.9241    -591.1178     102002.7      46.7237      46.7237      46.7237 
  182000    94.051047   -7332.5133   -6848.3518     -431.561     102002.7      46.7237      46.7237      46.7237 
  183000    91.904265   -7328.0937   -6854.9835   -434.21943     102002.7      46.7237      46.7237      46.7237 
  184000    90.964587   -7330.2014   -6861.9285   -392.13822     102002.7      46.7237      46.7237      46.7237 
  185000    92.686925   -7319.2768   -6842.1376   -419.33629     102002.7      46.7237      46.7237      46.7237 
  186000     88.13753   -7321.6105   -6867.8909    -579.9908     102002.7      46.7237      46.7237      46.7237 
  187000    93.694819   -7310.3024   -6827.9746    -772.9654     102002.7      46.7237      46.7237      46.7237 
  188000    91.618821   -7325.2026   -6853.5618   -458.36011     102002.7      46.7237      46.7237      46.7237 
  189000    92.906445   -7309.4021   -6831.1328   -687.89388     102002.7      46.7237      46.7237      46.7237 
  190000    90.936298   -7333.3892   -6865.2619   -921.20144     102002.7      46.7237      46.7237      46.7237 
  191000    87.448568   -7304.0656   -6853.8927   -632.48819     102002.7      46.7237      46.7237      46.7237 
  192000    90.477266   -7316.1909   -6850.4267   -406.91741     102002.7      46.7237      46.7237      46.7237 
  193000    88.927362   -7312.2589   -6854.4734   -445.87924     102002.7      46.7237      46.7237      46.7237 
  194000    91.337351   -7311.9242   -6841.7324    -596.8799     102002.7      46.7237      46.7237      46.7237 
  195000    92.587511   -7327.4702   -6850.8428   -784.34442     102002.7      46.7237      46.7237      46.7237 
  196000     92.35055   -7335.1117   -6859.7041   -771.16098     102002.7      46.7237      46.7237      46.7237 
  197000    90.818639   -7314.4786    -6846.957   -907.79616     102002.7      46.7237      46.7237      46.7237 
  198000    89.051852   -7324.5799   -6866.1535   -706.68795     102002.7      46.7237      46.7237      46.7237 
  199000    90.263887   -7316.7621   -6852.0963   -582.28818     102002.7      46.7237      46.7237      46.7237 
  200000    90.043609   -7317.0162   -6853.4844   -639.33255     102002.7      46.7237      46.7237      46.7237 
  201000    88.124124   -7310.5983   -6856.9478    -690.3682     102002.7      46.7237      46.7237      46.7237 
  202000    90.195249   -7314.5216   -6850.2092   -396.67022     102002.7      46.7237      46.7237      46.7237 
  203000     91.73003    -7306.658   -6834.4448   -748.73583     102002.7      46.7237      46.7237      46.7237 
  204000    91.846652   -7313.1761   -6840.3625   -603.36529     102002.7      46.7237      46.7237      46.7237 
  205000    91.871181   -7316.7463   -6843.8064   -423.46127     102002.7      46.7237      46.7237      46.7237 
  206000    91.557423   -7320.6735   -6849.3488   -808.18882     102002.7      46.7237      46.7237      46.7237 
  207000    91.427154    -7327.864   -6857.2099   -470.23278     102002.7      46.7237      46.7237      46.7237 
  208000    92.534241   -7320.9575   -6844.6042   -396.52738     102002.7      46.7237      46.7237      46.7237 
  209000    90.419528    -7320.915   -6855.4481   -637.83331     102002.7      46.7237      46.7237      46.7237 
  210000    89.239551   -7325.5065   -6866.1139   -302.46232     102002.7      46.7237      46.7237      46.7237 
  211000    91.825555   -7309.7983   -6837.0933   -416.98036     102002.7      46.7237      46.7237      46.7237 
  212000    91.696599   -7310.1189   -6838.0777   -668.92569     102002.7      46.7237      46.7237      46.7237 
  213000    90.640384   -7319.7971   -6853.1932   -873.92971     102002.7      46.7237      46.7237      46.7237 
  214000    90.031321   -7322.4466    -6858.978   -468.14449     102002.7      46.7237      46.7237      46.7237 
  215000     92.64647    -7308.571   -6831.6401    -706.0715     102002.7      46.7237      46.7237      46.7237 
  216000    88.534337     -7305.34   -6849.5777   -573.98079     102002.7      46.7237      46.7237      46.7237 
  217000    88.388103   -7320.4005    -6865.391   -620.37596     102002.7      46.7237      46.7237      46.7237 
  218000    91.768032   -7309.6167   -6837.2078   -663.17022     102002.7      46.7237      46.7237      46.7237 
  219000    88.311662   -7315.1124   -6860.4964   -690.21733     102002.7      46.7237      46.7237      46.7237 
  220000    88.866345   -7326.1163   -6868.6449   -789.94685     102002.7      46.7237      46.7237      46.7237 
  221000    90.882791   -7326.5874   -6858.7356    -617.8367     102002.7      46.7237      46.7237      46.7237 
  222000    93.409815   -7313.9163   -6833.0557   -735.86667     102002.7      46.7237      46.7237      46.7237 
  223000    88.961441   -7312.7867   -6854.8257   -607.39238     102002.7      46.7237      46.7237      46.7237 
  224000    92.664642   -7314.1598   -6837.1353   -654.21428     102002.7      46.7237      46.7237      46.7237 
  225000    92.079525   -7314.7145   -6840.7021   -273.53469     102002.7      46.7237      46.7237      46.7237 
  226000     88.05136   -7330.6884   -6877.4124   -528.59327     102002.7      46.7237      46.7237      46.7237 
  227000    90.452852   -7308.8458   -6843.2073    -823.7801     102002.7      46.7237      46.7237      46.7237 
  228000    93.963531   -7325.0897   -6841.3787     -548.121     102002.7      46.7237      46.7237      46.7237 
  229000    88.730363   -7311.8496   -6855.0782   -565.74765     102002.7      46.7237      46.7237      46.7237 
  230000    91.084291   -7311.7557   -6842.8666   -418.90731     102002.7      46.7237      46.7237      46.7237 
  231000    90.427592   -7318.6474   -6853.1389   -479.35939     102002.7      46.7237      46.7237      46.7237 
  232000    94.079171   -7317.9676   -6833.6613   -621.70635     102002.7      46.7237      46.7237      46.7237 
  233000    91.737593   -7317.5126   -6845.2604   -737.66468     102002.7      46.7237      46.7237      46.7237 
  234000    87.946075   -7331.4372   -6878.7032   -541.60483     102002.7      46.7237      46.7237      46.7237 
  235000    91.065052   -7315.1138   -6846.3238   -608.86131     102002.7      46.7237      46.7237      46.7237 
  236000    88.545611   -7325.2661   -6869.4458   -622.70981     102002.7      46.7237      46.7237      46.7237 
  237000    86.963709   -7300.8249    -6853.148   -606.45314     102002.7      46.7237      46.7237      46.7237 
  238000    94.992925   -7317.0475   -6828.0373   -322.02168     102002.7      46.7237      46.7237      46.7237 
  239000    88.003002   -7311.0593   -6858.0323   -546.91786     102002.7      46.7237      46.7237      46.7237 
  240000    93.079579   -7325.2722   -6846.1117   -362.77287     102002.7      46.7237      46.7237      46.7237 
  241000    93.274157   -7326.4232    -6846.261   -706.16233     102002.7      46.7237      46.7237      46.7237 
  242000    88.526882   -7330.4693   -6874.7454   -462.02731     102002.7      46.7237      46.7237      46.7237 
  243000    91.857969   -7320.1548   -6847.2829   -573.55097     102002.7      46.7237      46.7237      46.7237 
  244000    91.134598   -7315.4302   -6846.2821   -623.01424     102002.7      46.7237      46.7237      46.7237 
  245000    87.416244   -7325.2231   -6875.2167   -537.38867     102002.7      46.7237      46.7237      46.7237 
  246000    89.671129   -7303.5736   -6841.9593   -566.22585     102002.7      46.7237      46.7237      46.7237 
  247000    90.803302    -7326.093   -6858.6504   -411.64266     102002.7      46.7237      46.7237      46.7237 
  248000     88.32628   -7316.6376   -6861.9463   -312.70166     102002.7      46.7237      46.7237      46.7237 
  249000    90.553434   -7299.3174   -6833.1611   -462.39603     102002.7      46.7237      46.7237      46.7237 
  250000    91.425665   -7324.2395   -6853.5931   -411.53922     102002.7      46.7237      46.7237      46.7237 
  251000    90.825442   -7322.1458   -6854.5892   -524.81635     102002.7      46.7237      46.7237      46.7237 
  252000    94.004663   -7316.0899   -6832.1671   -639.86919     102002.7      46.7237      46.7237      46.7237 
  253000    92.681488   -7324.5729   -6847.4617   -431.15115     102002.7      46.7237      46.7237      46.7237 
  254000     89.71953   -7315.9592   -6854.0957   -459.09025     102002.7      46.7237      46.7237      46.7237 
  255000    92.605621   -7306.4783   -6829.7576   -981.37566     102002.7      46.7237      46.7237      46.7237 
  256000    92.036804   -7339.9013   -6866.1088    -401.5238     102002.7      46.7237      46.7237      46.7237 
  257000     91.74141   -7311.1328    -6838.861   -489.55693     102002.7      46.7237      46.7237      46.7237 
  258000    87.819519   -7313.3288   -6861.2463    -510.1385     102002.7      46.7237      46.7237      46.7237 
  259000    88.748264   -7328.9547   -6872.0911   -323.56568     102002.7      46.7237      46.7237      46.7237 
  260000    91.219542   -7314.7779   -6845.1926    -598.0442     102002.7      46.7237      46.7237      46.7237 
  261000    91.713928   -7327.8925   -6855.7621   -468.26852     102002.7      46.7237      46.7237      46.7237 
  262000     90.91551   -7316.6768   -6848.6566   -629.39194     102002.7      46.7237      46.7237      46.7237 
  263000    90.249284   -7308.9181   -6844.3276   -513.38747     102002.7      46.7237      46.7237      46.7237 
  264000    89.011825   -7324.1518   -6865.9315   -558.04794     102002.7      46.7237      46.7237      46.7237 
  265000    92.128321   -7325.0021   -6850.7385   -730.92446     102002.7      46.7237      46.7237      46.7237 
  266000     90.45408   -7327.8084   -6862.1635   -470.32687     102002.7      46.7237      46.7237      46.7237 
  267000    93.683847   -7328.5673   -6846.2961   -337.73385     102002.7      46.7237      46.7237      46.7237 
  268000    92.606789   -7321.8413   -6845.1146   -590.93795     102002.7      46.7237      46.7237      46.7237 
  269000    89.387894   -7341.2853    -6881.129   -493.12929     102002.7      46.7237      46.7237      46.7237 
  270000     89.71538   -7309.6052   -6847.7631   -373.27028     102002.7      46.7237      46.7237      46.7237 
  271000    87.876532   -7334.3908   -6882.0148   -721.20149     102002.7      46.7237      46.7237      46.7237 
  272000    90.449735   -7312.3823   -6846.7598   -386.52375     102002.7      46.7237      46.7237      46.7237 
  273000    90.903087   -7318.9039   -6850.9476    -484.6702     102002.7      46.7237      46.7237      46.7237 
  274000    89.885995   -7308.1502   -6845.4297   -634.74339     102002.7      46.7237      46.7237      46.7237 
  275000    91.259011   -7315.5948   -6845.8063   -185.27045     102002.7      46.7237      46.7237      46.7237 
  276000     89.67351    -7326.407   -6864.7804   -406.61094     102002.7      46.7237      46.7237      46.7237 
  277000    92.014393   -7309.3664   -6835.6893   -453.41523     102002.7      46.7237      46.7237      46.7237 
  278000    92.729191   -7327.8368     -6850.48   -622.88355     102002.7      46.7237      46.7237      46.7237 
  279000    89.470725   -7313.3783   -6852.7956   -543.59267     102002.7      46.7237      46.7237      46.7237 
  280000    90.233829   -7333.2773   -6868.7663   -490.82829     102002.7      46.7237      46.7237      46.7237 
  281000    92.480317   -7326.5723   -6850.4967   -659.79011     102002.7      46.7237      46.7237      46.7237 
  282000    90.274837   -7312.0707   -6847.3486   -626.88413     102002.7      46.7237      46.7237      46.7237 
  283000    89.120878   -7323.7979   -6865.0162    -567.5404     102002.7      46.7237      46.7237      46.7237 
  284000     93.61172   -7315.6252   -6833.7253   -743.66548     102002.7      46.7237      46.7237      46.7237 
  285000    89.696023   -7323.8681   -6862.1256   -422.67029     102002.7      46.7237      46.7237      46.7237 
  286000    90.002346   -7312.0297   -6848.7103   -331.54221     102002.7      46.7237      46.7237      46.7237 
  287000    89.709852   -7327.3869   -6865.5732   -552.11046     102002.7      46.7237      46.7237      46.7237 
  288000    89.092583   -7320.0067   -6861.3706   -633.29694     102002.7      46.7237      46.7237      46.7237 
  289000     89.78561   -7313.4716   -6851.2679   -423.29059     102002.7      46.7237      46.7237      46.7237 
  290000     89.13066   -7328.3832   -6869.5512   -513.06624     102002.7      46.7237      46.7237      46.7237 
  291000    90.514533   -7311.6067   -6845.6507   -605.93101     102002.7      46.7237      46.7237      46.7237 
  292000    91.427615   -7325.7067   -6855.0503   -461.75369     102002.7      46.7237      46.7237      46.7237 
  293000    91.496246    -7323.479   -6852.4693   -398.39198     102002.7      46.7237      46.7237      46.7237 
  294000    93.177641   -7314.5175   -6834.8522    -658.0937     102002.7      46.7237      46.7237      46.7237 
  295000    91.093534   -7316.0695   -6847.1328   -417.63035     102002.7      46.7237      46.7237      46.7237 
  296000     89.52359   -7326.7119    -6865.857   -631.65947     102002.7      46.7237      46.7237      46.7237 
  297000    89.708852   -7327.0158   -6865.2073   -574.16882     102002.7      46.7237      46.7237      46.7237 
  298000    93.802823   -7323.3621   -6840.4784    -519.8087     102002.7      46.7237      46.7237      46.7237 
  299000    90.864407   -7329.1245   -6861.3673   -628.40693     102002.7      46.7237      46.7237      46.7237 
  300000    87.637268   -7317.9382    -6866.794   -770.98619     102002.7      46.7237      46.7237      46.7237 
  301000    92.746964   -7316.6742   -6839.2259   -662.02774     102002.7      46.7237      46.7237      46.7237 
  302000    88.967263   -7316.5203   -6858.5294   -856.66604     102002.7      46.7237      46.7237      46.7237 
  303000    89.171267   -7316.4152   -6857.3741   -783.78897     102002.7      46.7237      46.7237      46.7237 
  304000     89.58299   -7313.6121   -6852.4515   -787.21851     102002.7      46.7237      46.7237      46.7237 
  305000    92.051533   -7315.2404   -6841.3721   -592.21156     102002.7      46.7237      46.7237      46.7237 
  306000    89.679004   -7325.8201   -6864.1652   -305.20015     102002.7      46.7237      46.7237      46.7237 
  307000    89.331027   -7325.9215    -6866.058    -678.2291     102002.7      46.7237      46.7237      46.7237 
  308000    88.842328   -7306.2004   -6848.8526   -520.27301     102002.7      46.7237      46.7237      46.7237 
  309000    92.985224   -7318.9352   -6840.2604   -549.58954     102002.7      46.7237      46.7237      46.7237 
  310000    89.895446   -7328.6662   -6865.8971   -709.42492     102002.7      46.7237      46.7237      46.7237 
  311000    94.433694   -7302.0872   -6815.9559   -499.60648     102002.7      46.7237      46.7237      46.7237 
  312000    91.887752   -7316.7004   -6843.6752   -414.39936     102002.7      46.7237      46.7237      46.7237 
  313000    88.775079   -7327.5595   -6870.5579   -300.33293     102002.7      46.7237      46.7237      46.7237 
  314000    93.054703   -7315.4594    -6836.427    -813.8201     102002.7      46.7237      46.7237      46.7237 
  315000    90.252102   -7331.8849   -6867.2798   -553.19224     102002.7      46.7237      46.7237      46.7237 
  316000    91.099981   -7316.3761   -6847.4063   -530.71229     102002.7      46.7237      46.7237      46.7237 
  317000    90.115072   -7302.0037    -6838.104   -558.58778     102002.7      46.7237      46.7237      46.7237 
  318000    90.854754   -7324.5897   -6856.8822   -540.54578     102002.7      46.7237      46.7237      46.7237 
  319000    90.595962   -7326.8925   -6860.5173   -610.35854     102002.7      46.7237      46.7237      46.7237 
  320000    90.316274   -7312.0015   -6847.0661   -552.50779     102002.7      46.7237      46.7237      46.7237 
  321000    90.668226   -7316.7302   -6849.9829   -467.25457     102002.7      46.7237      46.7237      46.7237 
  322000     93.49019   -7345.4184   -6864.1441   -694.68051     102002.7      46.7237      46.7237      46.7237 
  323000    91.017348   -7324.6403   -6856.0958    -468.9341     102002.7      46.7237      46.7237      46.7237 
  324000    88.884732   -7319.3162   -6861.7502   -600.98845     102002.7      46.7237      46.7237      46.7237 
  325000     90.10718   -7303.1362   -6839.2771   -677.28971     102002.7      46.7237      46.7237      46.7237 
  326000    91.124103   -7323.7212   -6854.6271   -550.09851     102002.7      46.7237      46.7237      46.7237 
  327000    94.812956     -7319.79   -6831.7063   -829.56386     102002.7      46.7237      46.7237      46.7237 
  328000    89.420635   -7315.4549     -6855.13   -410.90957     102002.7      46.7237      46.7237      46.7237 
  329000    90.333465    -7320.831   -6855.8071   -677.35184     102002.7      46.7237      46.7237      46.7237 
  330000    92.293924   -7311.0075   -6835.8914   -688.57747     102002.7      46.7237      46.7237      46.7237 
  331000    91.502699   -7318.7119   -6847.6689   -681.83889     102002.7      46.7237      46.7237      46.7237 
  332000    93.464414   -7313.1811   -6832.0394   -439.96817     102002.7      46.7237      46.7237      46.7237 
  333000    92.202052    -7314.923   -6840.2798   -641.27045     102002.7      46.7237      46.7237      46.7237 
  334000    87.802642   -7333.9024   -6881.9068   -612.00671     102002.7      46.7237      46.7237      46.7237 
  335000     90.26183   -7317.0497   -6852.3945   -840.66078     102002.7      46.7237      46.7237      46.7237 
  336000    88.150061   -7324.9468   -6871.1627   -572.17875     102002.7      46.7237      46.7237      46.7237 
  337000    91.435324    -7324.993   -6854.2969   -664.37807     102002.7      46.7237      46.7237      46.7237 
  338000    93.955018   -7310.4053   -6826.7381    -747.2893     102002.7      46.7237      46.7237      46.7237 
  339000    89.552835   -7313.1985   -6852.1932    -656.3457     102002.7      46.7237      46.7237      46.7237 
  340000    90.031029   -7332.5503   -6869.0832   -676.44278     102002.7      46.7237      46.7237      46.7237 
  341000    88.884739   -7321.0725   -6863.5064    -430.2667     102002.7      46.7237      46.7237      46.7237 
  342000    93.061849   -7310.6635   -6831.5942    -479.9475     102002.7      46.7237      46.7237      46.7237 
  343000    90.275088   -7309.8081   -6845.0847   -811.45619     102002.7      46.7237      46.7237      46.7237 
  344000    92.150039   -7310.2688   -6835.8934   -367.05581     102002.7      46.7237      46.7237      46.7237 
  345000    88.722374   -7305.9819   -6849.2516   -628.96281     102002.7      46.7237      46.7237      46.7237 
  346000    88.365452   -7322.0474   -6867.1545   -683.37736     102002.7      46.7237      46.7237      46.7237 
  347000    92.109152   -7319.0186   -6844.8536   -963.49381     102002.7      46.7237      46.7237      46.7237 
  348000    92.230664    -7324.983   -6850.1926   -958.04132     102002.7      46.7237      46.7237      46.7237 
  349000    89.930735   -7332.1273   -6869.1765   -722.67813     102002.7      46.7237      46.7237      46.7237 
  350000    88.769875   -7326.8969   -6869.9221   -395.69531     102002.7      46.7237      46.7237      46.7237 
  351000    90.067115   -7304.7494   -6841.0966   -402.88567     102002.7      46.7237      46.7237      46.7237 
  352000    90.069332   -7325.2018   -6861.5375   -690.13031     102002.7      46.7237      46.7237      46.7237 
  353000    93.246669   -7312.4604   -6832.4397   -612.56054     102002.7      46.7237      46.7237      46.7237 
  354000    89.216142   -7309.7967   -6850.5246   -711.52358     102002.7      46.7237      46.7237      46.7237 
  355000    90.976859   -7328.4827   -6860.1467   -469.32639     102002.7      46.7237      46.7237      46.7237 
  356000     94.52774   -7311.9648   -6825.3493   -713.33293     102002.7      46.7237      46.7237      46.7237 
  357000    89.528385   -7322.8446   -6861.9651   -801.69037     102002.7      46.7237      46.7237      46.7237 
  358000    92.472313   -7310.9465   -6834.9121    -578.1175     102002.7      46.7237      46.7237      46.7237 
  359000    92.009219   -7323.9294    -6850.279   -733.45291     102002.7      46.7237      46.7237      46.7237 
  360000     91.57958   -7319.0545   -6847.6157   -439.17767     102002.7      46.7237      46.7237      46.7237 
  361000    91.504294   -7337.0851   -6866.0339   -614.96488     102002.7      46.7237      46.7237      46.7237 
  362000    89.566541   -7298.8282   -6837.7523   -515.93843     102002.7      46.7237      46.7237      46.7237 
  363000    92.755545    -7321.994   -6844.5016   -541.48491     102002.7      46.7237      46.7237      46.7237 
  364000    90.084265    -7313.185   -6849.4439   -621.65721     102002.7      46.7237      46.7237      46.7237 
  365000    89.548642   -7313.8663   -6852.8825   -348.63034     102002.7      46.7237      46.7237      46.7237 
  366000    91.922075   -7332.2626   -6859.0607   -537.67914     102002.7      46.7237      46.7237      46.7237 
  367000    92.798982   -7300.1146   -6822.3985   -844.43951     102002.7      46.7237      46.7237      46.7237 
  368000    89.396177   -7321.2978   -6861.0989   -731.87245     102002.7      46.7237      46.7237      46.7237 
  369000    88.073421   -7327.4367   -6874.0472   -529.05314     102002.7      46.7237      46.7237      46.7237 
  370000    91.462366   -7313.1011   -6842.2657   -495.42038     102002.7      46.7237      46.7237      46.7237 
  371000    89.747909   -7332.9931   -6870.9835   -523.53867     102002.7      46.7237      46.7237      46.7237 
  372000    90.990782   -7315.8605   -6847.4528   -392.58529     102002.7      46.7237      46.7237      46.7237 
  373000    91.100168   -7304.7176   -6835.7468    -320.7613     102002.7      46.7237      46.7237      46.7237 
  374000    90.635824    -7321.656   -6855.0756   -321.48346     102002.7      46.7237      46.7237      46.7237 
  375000    93.733974   -7326.4223    -6843.893   -569.33256     102002.7      46.7237      46.7237      46.7237 
  376000     93.90421    -7310.469   -6827.0634   -683.76509     102002.7      46.7237      46.7237      46.7237 
  377000    92.594795   -7321.8173   -6845.1524    -622.5427     102002.7      46.7237      46.7237      46.7237 
  378000    90.048888   -7325.6727   -6862.1137   -290.12461     102002.7      46.7237      46.7237      46.7237 
  379000    93.349523   -7316.1557   -6835.6055   -587.89678     102002.7      46.7237      46.7237      46.7237 
  380000    88.992398   -7316.1296   -6858.0093   -622.71731     102002.7      46.7237      46.7237      46.7237 
  381000    91.526147   -7316.2143   -6845.0506   -792.69022     102002.7      46.7237      46.7237      46.7237 
  382000    91.151801   -7311.7876    -6842.551   -752.13819     102002.7      46.7237      46.7237      46.7237 
  383000    89.724759   -7351.6991   -6889.8087   -599.50205     102002.7      46.7237      46.7237      46.7237 
  384000    93.551941   -7326.5281   -6844.9359    -525.6817     102002.7      46.7237      46.7237      46.7237 
  385000    90.581952   -7331.4103   -6865.1072   -474.90262     102002.7      46.7237      46.7237      46.7237 
  386000    95.357438   -7328.8335   -6837.9469   -401.15164     102002.7      46.7237      46.7237      46.7237 
  387000    93.714275     -7316.78   -6834.3521   -573.89774     102002.7      46.7237      46.7237      46.7237 
  388000    91.419032   -7316.1362   -6845.5239   -395.88206     102002.7      46.7237      46.7237      46.7237 
  389000    90.935145    -7337.121   -6868.9997   -466.04947     102002.7      46.7237      46.7237      46.7237 
  390000    93.891279    -7324.242   -6840.9029   -754.47271     102002.7      46.7237      46.7237      46.7237 
  391000    92.947007   -7303.0166   -6824.5385   -559.48299     102002.7      46.7237      46.7237      46.7237 
  392000    89.478246   -7314.3687   -6853.7473   -610.98483     102002.7      46.7237      46.7237      46.7237 
  393000    92.211625   -7306.1098   -6831.4173   -493.15913     102002.7      46.7237      46.7237      46.7237 
  394000    90.987614   -7310.4729   -6842.0815   -582.61659     102002.7      46.7237      46.7237      46.7237 
  395000    92.655947   -7329.3774   -6852.3977   -408.80048     102002.7      46.7237      46.7237      46.7237 
  396000    89.881912   -7321.6534    -6858.954   -406.13788     102002.7      46.7237      46.7237      46.7237 
  397000    96.497888   -7326.8296   -6830.0721   -517.41389     102002.7      46.7237      46.7237      46.7237 
  398000     89.40139   -7322.0868   -6861.8611   -678.11029     102002.7      46.7237      46.7237      46.7237 
  399000    94.339018   -7323.8132   -6838.1692   -420.02094     102002.7      46.7237      46.7237      46.7237 
  400000    91.098717   -7320.6798   -6851.7164   -730.01589     102002.7      46.7237      46.7237      46.7237 
  401000    88.701987   -7331.9014   -6875.2761   -640.03611     102002.7      46.7237      46.7237      46.7237 
  402000     91.87749   -7314.9664    -6841.994    -482.8832     102002.7      46.7237      46.7237      46.7237 
  403000    91.678292    -7326.453   -6854.5061    -611.3496     102002.7      46.7237      46.7237      46.7237 
  404000    95.433234   -7306.7815   -6815.5046   -573.93944     102002.7      46.7237      46.7237      46.7237 
  405000    92.046595   -7335.5205   -6861.6777   -991.65669     102002.7      46.7237      46.7237      46.7237 
  406000    91.459593   -7314.9038   -6844.0827   -584.78048     102002.7      46.7237      46.7237      46.7237 
  407000    89.972881   -7313.6145   -6850.4468   -561.04562     102002.7      46.7237      46.7237      46.7237 
  408000    92.117001   -7319.1813    -6844.976   -564.06191     102002.7      46.7237      46.7237      46.7237 
  409000    87.906902   -7297.5171   -6844.9848    -655.2454     102002.7      46.7237      46.7237      46.7237 
  410000    89.424343   -7340.1022   -6879.7583   -635.02675     102002.7      46.7237      46.7237      46.7237 
  411000     89.25399   -7309.9809   -6850.5139   -496.67399     102002.7      46.7237      46.7237      46.7237 
  412000    91.108379    -7321.741   -6852.7279   -756.64098     102002.7      46.7237      46.7237      46.7237 
  413000    87.766404    -7333.363    -6881.554   -555.03596     102002.7      46.7237      46.7237      46.7237 
  414000    91.277554   -7332.4663   -6862.5824   -741.93891     102002.7      46.7237      46.7237      46.7237 
  415000    93.587257   -7316.3171   -6834.5431   -635.39281     102002.7      46.7237      46.7237      46.7237 
  416000    88.321866   -7310.5816   -6855.9131   -777.38287     102002.7      46.7237      46.7237      46.7237 
  417000    90.789881   -7303.3331   -6835.9596   -693.89151     102002.7      46.7237      46.7237      46.7237 
  418000    90.225548   -7323.2666   -6858.7982   -445.22714     102002.7      46.7237      46.7237      46.7237 
  419000    93.793535   -7327.2038   -6844.3679   -548.38309     102002.7      46.7237      46.7237      46.7237 
  420000    89.968343   -7316.6658   -6853.5214   -775.49677     102002.7      46.7237      46.7237      46.7237 
  421000    89.703499   -7311.8176   -6850.0366   -416.86715     102002.7      46.7237      46.7237      46.7237 
  422000    91.092849   -7309.5082   -6840.5751   -464.60512     102002.7      46.7237      46.7237      46.7237 
  423000    95.674946   -7336.5951    -6844.074   -645.31921     102002.7      46.7237      46.7237      46.7237 
  424000    89.988776   -7333.8979   -6870.6483     -668.234     102002.7      46.7237      46.7237      46.7237 
  425000    89.277731   -7321.8098   -6862.2206   -383.00791     102002.7      46.7237      46.7237      46.7237 
  426000    89.511149   -7315.9948    -6855.204   -598.70533     102002.7      46.7237      46.7237      46.7237 
  427000    91.788238   -7309.9981   -6837.4852   -773.88475     102002.7      46.7237      46.7237      46.7237 
  428000    93.565673   -7328.1351   -6846.4722   -752.40355     102002.7      46.7237      46.7237      46.7237 
  429000    88.979271   -7322.6531   -6864.6003   -380.20636     102002.7      46.7237      46.7237      46.7237 
  430000    89.280979   -7307.8316   -6848.2257   -537.32617     102002.7      46.7237      46.7237      46.7237 
  431000    91.192097   -7343.9997   -6874.5556   -711.67771     102002.7      46.7237      46.7237      46.7237 
  432000    91.434953   -7309.2823   -6838.5881    -498.5408     102002.7      46.7237      46.7237      46.7237 
  433000    90.744877    -7323.357   -6856.2152   -358.44498     102002.7      46.7237      46.7237      46.7237 
  434000    92.211458   -7313.5685    -6838.877   -618.73678     102002.7      46.7237      46.7237      46.7237 
  435000    90.014638   -7336.2339   -6872.8513   -468.22164     102002.7      46.7237      46.7237      46.7237 
  436000    91.697749   -7323.8867   -6851.8397   -529.04004     102002.7      46.7237      46.7237      46.7237 
  437000    88.767416   -7307.2027   -6850.2405   -519.21229     102002.7      46.7237      46.7237      46.7237 
  438000    95.033452   -7329.3504   -6840.1316   -786.18287     102002.7      46.7237      46.7237      46.7237 
  439000    92.364019   -7316.2174   -6840.7405   -264.53242     102002.7      46.7237      46.7237      46.7237 
  440000    92.478418    -7325.313   -6849.2472   -467.29447     102002.7      46.7237      46.7237      46.7237 
  441000    91.865899   -7302.1488   -6829.2361   -429.94445     102002.7      46.7237      46.7237      46.7237 
  442000    92.339632   -7324.0123   -6848.6609   -307.70362     102002.7      46.7237      46.7237      46.7237 
  443000    91.020487   -7331.3187   -6862.7581   -565.93039     102002.7      46.7237      46.7237      46.7237 
  444000    91.908387   -7321.6014     -6848.47   -424.94787     102002.7      46.7237      46.7237      46.7237 
  445000     89.69297   -7325.9523   -6864.2255   -495.38892     102002.7      46.7237      46.7237      46.7237 
  446000    90.235062   -7323.1491   -6858.6317   -588.09104     102002.7      46.7237      46.7237      46.7237 
  447000    92.668912   -7315.0735    -6838.027   -451.33305     102002.7      46.7237      46.7237      46.7237 
  448000    92.118409   -7315.3501   -6841.1375   -533.64785     102002.7      46.7237      46.7237      46.7237 
  449000    92.304102   -7336.5359   -6861.3674   -426.24774     102002.7      46.7237      46.7237      46.7237 
  450000    91.022752   -7339.7272   -6871.1549   -515.16584     102002.7      46.7237      46.7237      46.7237 
  451000    91.378198   -7332.4703   -6862.0682    -224.4804     102002.7      46.7237      46.7237      46.7237 
  452000    92.232647   -7322.7996   -6847.9989   -512.38437     102002.7      46.7237      46.7237      46.7237 
  453000    91.679179   -7311.2442   -6839.2927   -710.63338     102002.7      46.7237      46.7237      46.7237 
  454000    93.344184   -7332.8372   -6852.3145   -367.65987     102002.7      46.7237      46.7237      46.7237 
  455000    91.619729   -7318.6461   -6847.0006   -426.21002     102002.7      46.7237      46.7237      46.7237 
  456000    88.688907   -7300.3408   -6843.7829    -479.7502     102002.7      46.7237      46.7237      46.7237 
  457000    89.974081    -7327.251   -6864.0771   -638.10388     102002.7      46.7237      46.7237      46.7237 
  458000    92.473561    -7317.091   -6841.0502   -723.02543     102002.7      46.7237      46.7237      46.7237 
  459000    90.627285   -7334.9211   -6868.3846   -455.93274     102002.7      46.7237      46.7237      46.7237 
  460000    91.668085   -7316.9049   -6845.0105   -411.74395     102002.7      46.7237      46.7237      46.7237 
  461000    89.834924   -7325.5998   -6863.1423   -495.42639     102002.7      46.7237      46.7237      46.7237 
  462000     90.70548   -7321.7687   -6854.8297   -625.80037     102002.7      46.7237      46.7237      46.7237 
  463000    92.028426   -7303.5474    -6829.798   -553.96731     102002.7      46.7237      46.7237      46.7237 
  464000    92.761727   -7322.6558   -6845.1315   -973.81453     102002.7      46.7237      46.7237      46.7237 
  465000    91.269614   -7321.8385   -6851.9954   -584.40669     102002.7      46.7237      46.7237      46.7237 
  466000    94.324381   -7327.7056    -6842.137    -657.5204     102002.7      46.7237      46.7237      46.7237 
  467000    89.135027   -7332.2859   -6873.4313   -426.87524     102002.7      46.7237      46.7237      46.7237 
  468000    91.752487   -7319.0067   -6846.6778   -533.74288     102002.7      46.7237      46.7237      46.7237 
  469000    89.751839   -7322.3642   -6860.3344   -654.23284     102002.7      46.7237      46.7237      46.7237 
  470000    94.432765   -7308.9016    -6822.775   -573.13923     102002.7      46.7237      46.7237      46.7237 
  471000    88.815941   -7316.5456   -6859.3337   -546.78621     102002.7      46.7237      46.7237      46.7237 
  472000    91.468994   -7311.9717   -6841.1022    -896.5849     102002.7      46.7237      46.7237      46.7237 
  473000    91.948639   -7350.4015   -6877.0629    -391.8728     102002.7      46.7237      46.7237      46.7237 
  474000    91.008432   -7308.8302   -6840.3316   -615.28881     102002.7      46.7237      46.7237      46.7237 
  475000    89.050079   -7320.6523    -6862.235   -542.95475     102002.7      46.7237      46.7237      46.7237 
  476000    91.248581   -7313.6401   -6843.9053   -437.08662     102002.7      46.7237      46.7237      46.7237 
  477000    89.116551   -7322.0793   -6863.3199   -545.57603     102002.7      46.7237      46.7237      46.7237 
  478000     90.01993   -7323.4277   -6860.0178   -506.86321     102002.7      46.7237      46.7237      46.7237 
  479000    92.919726    -7314.178   -6835.8403   -605.77528     102002.7      46.7237      46.7237      46.7237 
  480000    90.729018    -7312.568   -6845.5079   -575.89005     102002.7      46.7237      46.7237      46.7237 
  481000    88.209687   -7325.4298   -6871.3388   -337.66448     102002.7      46.7237      46.7237      46.7237 
  482000    91.739007   -7324.3854    -6852.126   -440.87433     102002.7      46.7237      46.7237      46.7237 
  483000    89.286437   -7315.5849   -6855.9509   -555.15789     102002.7      46.7237      46.7237      46.7237 
  484000     90.21454   -7309.2738   -6844.8621   -502.19343     102002.7      46.7237      46.7237      46.7237 
  485000    90.342854   -7334.2486   -6869.1763   -283.91421     102002.7      46.7237      46.7237      46.7237 
  486000    90.560424   -7305.9596   -6839.7673   -466.08094     102002.7      46.7237      46.7237      46.7237 
  487000    85.751735   -7338.5462   -6897.1083   -389.29482     102002.7      46.7237      46.7237      46.7237 
  488000     91.86877   -7320.2186   -6847.2911   -558.19187     102002.7      46.7237      46.7237      46.7237 
  489000    89.997656   -7308.9265   -6845.6313   -601.47264     102002.7      46.7237      46.7237      46.7237 
  490000    91.232485   -7315.4169    -6845.765   -559.56772     102002.7      46.7237      46.7237      46.7237 
  491000    91.359632   -7338.1352   -6867.8287   -578.18722     102002.7      46.7237      46.7237      46.7237 
  492000    91.337133   -7321.6191   -6851.4284   -507.28142     102002.7      46.7237      46.7237      46.7237 
  493000    91.071473   -7306.3334   -6837.5103   -396.41218     102002.7      46.7237      46.7237      46.7237 
  494000    87.799268   -7336.0379   -6884.0597    -731.4505     102002.7      46.7237      46.7237      46.7237 
  495000     89.91176   -7311.7426   -6848.8895   -687.32396     102002.7      46.7237      46.7237      46.7237 
  496000    90.679351    -7308.673   -6841.8685   -638.40383     102002.7      46.7237      46.7237      46.7237 
  497000    95.770919   -7332.5614   -6839.5462   -631.69758     102002.7      46.7237      46.7237      46.7237 
  498000    89.414162   -7325.5441   -6865.2526   -660.83217     102002.7      46.7237      46.7237      46.7237 
  499000    91.349246   -7306.0965   -6835.8435   -579.33311     102002.7      46.7237      46.7237      46.7237 
  500000    93.794287   -7325.4913   -6842.6515   -594.51911     102002.7      46.7237      46.7237      46.7237 
  500096    91.721088   -7326.2887   -6854.1215    -533.1674     102002.7      46.7237      46.7237      46.7237 
Loop time of 1269.05 on 16 procs for 500000 steps with 1728 atoms

Performance: 34.041 ns/day, 0.705 hours/ns, 393.996 timesteps/s
99.8% CPU use with 16 MPI tasks x no OpenMP threads

MPI task timing breakdown:
Section |  min time  |  avg time  |  max time  |%varavg| %total
---------------------------------------------------------------
Pair    | 488.75     | 684.59     | 884.01     | 472.2 | 53.95
Bond    | 161.53     | 173.67     | 183.79     |  48.3 | 13.69
Neigh   | 2.558      | 2.566      | 2.576      |   0.4 |  0.20
Comm    | 187.98     | 394.7      | 600.56     | 630.7 | 31.10
Output  | 0.020562   | 0.020903   | 0.023928   |   0.5 |  0.00
Modify  | 7.3359     | 8.0168     | 8.5394     |  15.6 |  0.63
Other   |            | 5.482      |            |       |  0.43

Nlocal:    108 ave 137 max 64 min
Histogram: 1 0 2 1 1 1 3 3 3 1
Nghost:    2193.12 ave 2235 max 2157 min
Histogram: 1 1 3 3 1 3 0 2 1 1
Neighs:    11470.3 ave 16933 max 6867 min
Histogram: 4 0 3 2 0 0 2 2 1 2

Total # of neighbors = 183525
Ave neighs/atom = 106.207
Ave special neighs/atom = 6.66667
Neighbor list builds = 2269
Dangerous builds = 0
Neighbor list info ...
  update every 1 steps, delay 10 steps, check yes
  max neighbors/atom: 2000, page size: 100000
  master list distance cutoff = 16
  ghost atom cutoff = 16
  binsize = 8, bins = 6 6 6
  3 neighbor lists, perpetual/occasional/extra = 3 0 0
  (1) pair buck6d/coul/gauss/dsf, perpetual, skip from (3)
      attributes: half, newton on
      pair build: skip
      stencil: none
      bin: none
  (2) pair lj/cut, perpetual, skip from (3)
      attributes: half, newton on
      pair build: skip
      stencil: none
      bin: none
  (3) neighbor class addition, perpetual
      attributes: half, newton on
      pair build: half/bin/newton
      stencil: half/bin/3d/newton
      bin: standard
Setting up Verlet run ...
  Unit style    : real
  Current step  : 500096
  Time step     : 1
WARNING: Inconsistent image flags (../domain.cpp:786)
Per MPI rank memory allocation (min/avg/max) = 22.87 | 23.21 | 23.33 Mbytes
Step Time TotEng KinEng PotEng E_mol E_pair Temp Pxx Pyy Pzz Pxy Pxz Pyz Cella Cellb Cellc CellAlpha CellBeta CellGamma Volume Press 
  500096       500000   -6854.1215    472.16722   -7326.2887    4185.6585   -11511.947    91.721088   -642.01386   -477.24677   -480.24156   -23.432095   -23.440299    15.613916      46.7237      46.7237      46.7237           90           90           90     102002.7    -533.1674 
  501000       500904   -6862.6987    468.22061   -7330.9193    4169.9991   -11500.918    90.954436   -609.73854   -1135.6546   -646.43158    187.24328    42.065783    168.93407      46.7237      46.7237      46.7237           90           90           90     102002.7   -797.27491 
  502000       501904   -6868.5064     450.4001   -7318.9065    4190.9489   -11509.855    87.492705   -584.16898    -487.9691   -446.26372    39.894787   -202.14956    115.37397      46.7237      46.7237      46.7237           90           90           90     102002.7   -506.13393 
  503000       502904   -6848.1783    469.79525   -7317.9735    4169.5622   -11487.536    91.260319   -897.04944   -635.57124   -882.99928    102.67652     68.74206    216.90956      46.7237      46.7237      46.7237           90           90           90     102002.7   -805.20665 
  504000       503904   -6848.9432    467.93219   -7316.8754     4205.485    -11522.36    90.898409   -792.81676   -1001.1578   -542.94514   -128.20914   -61.252591   -92.509569      46.7237      46.7237      46.7237           90           90           90     102002.7   -778.97323 
  505000       504904    -6862.282    466.05159   -7328.3336    4176.1714   -11504.505    90.533091   -588.38539   -814.90853   -728.94761   -83.281598   -96.271761    51.567743      46.7237      46.7237      46.7237           90           90           90     102002.7   -710.74718 
  506000       505904   -6840.6155    473.75399   -7314.3694    4194.4636   -11508.833    92.029325   -659.38873   -321.80389   -566.53048    188.40641   -14.269557   -310.65565      46.7237      46.7237      46.7237           90           90           90     102002.7    -515.9077 
  507000       506904   -6837.4742    470.18306   -7307.6572    4191.7982   -11499.455    91.335654   -452.50648   -717.83207   -560.98026   -26.761814   -73.120932    74.274815      46.7237      46.7237      46.7237           90           90           90     102002.7   -577.10627 
  508000       507904   -6856.0999    470.20586   -7326.3057    4182.6181   -11508.924    91.340083   -776.86251   -950.33497     -484.609   -66.779468   -239.14737   -86.127401      46.7237      46.7237      46.7237           90           90           90     102002.7   -737.26883 
  509000       508904   -6857.6859      454.249   -7311.9349     4186.748   -11498.683    88.240375   -362.11653   -795.42143   -122.64897    38.418697   -114.27767   -235.68546      46.7237      46.7237      46.7237           90           90           90     102002.7   -426.72897 
  510000       509904   -6825.3261    474.76556   -7300.0917    4201.5669   -11501.659     92.22583    -1075.493   -708.83975   -612.57044   -72.640878    -16.26003   -174.91907      46.7237      46.7237      46.7237           90           90           90     102002.7   -798.96773 
  511000       510904   -6865.5838    457.27799   -7322.8618    4192.2085    -11515.07    88.828772   -260.24695   -764.40651   -427.41195    42.051516   -2.5545797    113.38696      46.7237      46.7237      46.7237           90           90           90     102002.7    -484.0218 
  512000       511904   -6855.4408    463.71081   -7319.1516    4186.7905   -11505.942    90.078384   -647.49898   -643.68268   -734.69732   -74.901635    17.549116    97.549963      46.7237      46.7237      46.7237           90           90           90     102002.7   -675.29299 
  513000       512904   -6832.6035    486.30174   -7318.9052    4184.1571   -11503.062    94.466796    -950.0251   -870.94484   -1062.3987   -62.960514    131.52785   -65.682616      46.7237      46.7237      46.7237           90           90           90     102002.7   -961.12287 
  514000       513904   -6853.7348    475.68129    -7329.416    4168.6518   -11498.068    92.403715   -598.22976   -723.44535   -9.9915444   -73.482648   -26.966988   -16.323406      46.7237      46.7237      46.7237           90           90           90     102002.7   -443.88888 
  515000       514904   -6848.7482    473.29196   -7322.0402     4195.112   -11517.152    91.939574   -563.84092   -673.44295   -728.78907    -53.66859    45.769442   -126.39468      46.7237      46.7237      46.7237           90           90           90     102002.7   -655.35765 
  516000       515904   -6863.0521    465.70654   -7328.7586    4164.0101   -11492.769    90.466065   -820.51584    -821.9506   -726.38628   -80.697425   -23.798792    185.02751      46.7237      46.7237      46.7237           90           90           90     102002.7   -789.61757 
  517000       516904   -6838.8084    472.06873   -7310.8771    4181.3232     -11492.2    91.701954   -101.32666   -361.90032   -119.89342   -63.303314    33.794994   0.52648188      46.7237      46.7237      46.7237           90           90           90     102002.7   -194.37347 
  518000       517904   -6854.1253    480.62917   -7334.7545    4163.4548   -11498.209    93.364868   -575.35394   -366.83569   -366.92381     146.9288    125.28885    62.337523      46.7237      46.7237      46.7237           90           90           90     102002.7   -436.37115 
  519000       518904   -6846.9598    468.72216    -7315.682    4192.5352   -11508.217    91.051866   -846.20032   -848.00842   -658.16479    3.6862281   -12.337652    7.8598017      46.7237      46.7237      46.7237           90           90           90     102002.7   -784.12451 
  520000       519904   -6845.2659    478.31053   -7323.5764    4188.9137    -11512.49    92.914459   -606.21265    -518.6125   -548.09443    37.283691   -95.092355   -35.542522      46.7237      46.7237      46.7237           90           90           90     102002.7   -557.63986 
  521000       520904   -6859.1072    450.63037   -7309.7375    4202.0984   -11511.836    87.537435   -848.77698   -762.52096   -1010.1131    85.949664    64.594571    49.420161      46.7237      46.7237      46.7237           90           90           90     102002.7   -873.80369 
  522000       521904   -6823.7208    486.86715   -7310.5879    4209.1288   -11519.717     94.57663    -755.5008   -694.42872   -482.55981   -57.207389   -158.74217    37.980944      46.7237      46.7237      46.7237           90           90           90     102002.7   -644.16311 
  523000       522904   -6839.9188    468.44158   -7308.3604    4198.1023   -11506.463    90.997361   -770.66339   -1450.9307   -693.78772    1.7878232    82.894838   -94.984431      46.7237      46.7237      46.7237           90           90           90     102002.7   -971.79394 
  524000       523904   -6856.5062    469.59384      -7326.1      4172.45    -11498.55    91.221193   -865.29455   -1268.1602   -555.61188   -19.908579    67.996121    80.443673      46.7237      46.7237      46.7237           90           90           90     102002.7   -896.35554 
  525000       524904   -6844.5919    463.49309    -7308.085    4200.5514   -11508.636    90.036089   -712.26631   -306.63624   -511.71477    215.04308   -51.061584    177.22125      46.7237      46.7237      46.7237           90           90           90     102002.7   -510.20577 
  526000       525904    -6868.393    465.61085   -7334.0038    4163.5096   -11497.513    90.447476   -722.45607   -870.55801   -835.16111     120.1114    107.32675    -264.4058      46.7237      46.7237      46.7237           90           90           90     102002.7   -809.39173 
  527000       526904   -6838.0251    471.48092    -7309.506    4185.5592   -11495.065    91.587769   -717.92448   -770.10469    -605.0457    -141.0455    76.015967   -197.14481      46.7237      46.7237      46.7237           90           90           90     102002.7   -697.69162 
  528000       527904   -6854.8667    454.72112   -7309.5878    4188.1625    -11497.75    88.332085    -607.9339   -390.13079   -847.97446    51.019685    160.90303    45.637765      46.7237      46.7237      46.7237           90           90           90     102002.7   -615.34638 
  529000       528904   -6839.6084    454.50709   -7294.1155    4213.5266   -11507.642    88.290509   -633.31066   -445.82913   -627.27421   -27.513341    -111.0536   -28.069353      46.7237      46.7237      46.7237           90           90           90     102002.7   -568.80466 
  530000       529904   -6853.1952    467.26761   -7320.4628    4186.2045   -11506.667    90.769311   -635.06401   -788.26792   -169.04642    -196.1311    43.541986   -26.596018      46.7237      46.7237      46.7237           90           90           90     102002.7   -530.79278 
  531000       530904   -6855.8847    470.97579   -7326.8605    4182.6527   -11509.513    91.489646   -759.37317   -802.01239    -680.3258   -29.182264    112.21106   -149.08597      46.7237      46.7237      46.7237           90           90           90     102002.7   -747.23712 
  532000       531904   -6857.6703     474.6479   -7332.3182    4177.4439   -11509.762    92.202973    -209.9288   -431.32944     -561.223    168.53999    86.948527    80.865926      46.7237      46.7237      46.7237           90           90           90     102002.7   -400.82708 
  533000       532904   -6872.7589    461.34469   -7334.1036    4174.5107   -11508.614     89.61875   -399.35234    -643.1964   -597.18134    45.926938    -25.34962     9.298743      46.7237      46.7237      46.7237           90           90           90     102002.7    -546.5767 
  534000       533904   -6865.3886    471.32716   -7336.7158     4169.858   -11506.574    91.557901   -647.03856   -588.42852   -145.13928   -218.60186    76.586108    170.45392      46.7237      46.7237      46.7237           90           90           90     102002.7   -460.20212 
  535000       534904   -6836.6461    476.47661   -7313.1227    4187.8688   -11500.992    92.558211    -917.0146    -317.3255   -92.149496    137.21109   -258.41035    33.918547      46.7237      46.7237      46.7237           90           90           90     102002.7    -442.1632 
  536000       535904   -6840.6967    483.34537   -7324.0421    4188.3068   -11512.349    93.892505   -457.32219   -741.58935   -628.67282   -75.006402    40.553545    132.33276      46.7237      46.7237      46.7237           90           90           90     102002.7   -609.19479 
  537000       536904   -6872.5183    459.60405   -7332.1223    4171.4031   -11503.525    89.280622   -519.63069   -561.80905   -536.60825    2.7009858    104.85122    110.55176      46.7237      46.7237      46.7237           90           90           90     102002.7   -539.34933 
  538000       537904   -6857.0697     469.2573    -7326.327     4169.622   -11495.949    91.155819   -340.62228    79.721603   -544.39049   -22.818323    31.064065   -18.559099      46.7237      46.7237      46.7237           90           90           90     102002.7   -268.43039 
  539000       538904   -6832.5694    470.50716   -7303.0765    4191.2323   -11494.309    91.398611   -509.35278   -599.27335   -500.34553    94.728761   -1.7845278   -99.605013      46.7237      46.7237      46.7237           90           90           90     102002.7   -536.32389 
  540000       539904   -6846.5261    467.44417   -7313.9703    4198.7811   -11512.751    90.803609   -542.34261   -514.88637   -663.56552   -39.328168    44.552519    24.802388      46.7237      46.7237      46.7237           90           90           90     102002.7   -573.59817 
  541000       540904   -6847.4865     483.9876   -7331.4741    4180.6665   -11512.141    94.017261   -551.23514   -781.14629   -605.53748    106.58636    41.483439    238.49223      46.7237      46.7237      46.7237           90           90           90     102002.7   -645.97297 
  542000       541904   -6838.0954    468.37553   -7306.4709    4203.0686    -11509.54    90.984531   -460.14258   -820.04513   -595.56477   -71.932476    93.542587    51.977735      46.7237      46.7237      46.7237           90           90           90     102002.7   -625.25083 
  543000       542904    -6864.286    467.06665   -7331.3527    4155.7971    -11487.15    90.730274   -205.98405   -464.58943   -502.98059    129.34231   -15.137411   -309.19668      46.7237      46.7237      46.7237           90           90           90     102002.7   -391.18469 
  544000       543904   -6849.7079    472.99704   -7322.7049     4184.205    -11506.91    91.882283    185.74034   -355.27686   -89.667165    125.68582    148.79319    -201.1769      46.7237      46.7237      46.7237           90           90           90     102002.7   -86.401227 
  545000       544904   -6828.0956    480.18656   -7308.2821    4182.7744   -11491.057    93.278889    -645.1156   -134.23847   -743.92276   -3.3302296   -148.82669    212.07163      46.7237      46.7237      46.7237           90           90           90     102002.7   -507.75895 
  546000       545904   -6864.7599     464.2771    -7329.037    4183.1386   -11512.176    90.188387   -578.15581   -418.52821   -593.27172    200.84312   -304.56243   -3.9447056      46.7237      46.7237      46.7237           90           90           90     102002.7   -529.98525 
  547000       546904   -6867.2567    466.27182   -7333.5285    4169.5321   -11503.061    90.575873   -239.99544   -371.74544   -272.64379     194.7554    142.81651    277.46248      46.7237      46.7237      46.7237           90           90           90     102002.7   -294.79489 
  548000       547904   -6846.6333    461.74491   -7308.3783    4193.7387   -11502.117    89.696495   -799.69463   -761.60869   -525.99138   -150.87956   -11.837099    74.685817      46.7237      46.7237      46.7237           90           90           90     102002.7    -695.7649 
  549000       548904   -6856.4026    460.26355   -7316.6662    4194.2577   -11510.924    89.408734   -222.00082   -409.37653   -507.71437    -38.41391   -11.024688    182.68896      46.7237      46.7237      46.7237           90           90           90     102002.7   -379.69724 
  550000       549904   -6838.6416    472.52471   -7311.1663    4191.3688   -11502.535    91.790532   -775.04628   -160.81321   -351.89376     264.7892    173.30069    82.817381      46.7237      46.7237      46.7237           90           90           90     102002.7   -429.25108 
  551000       550904   -6853.6379    472.12359   -7325.7614    4180.5326   -11506.294    91.712611   -394.79423   -329.46391   -375.59538   -218.95042    72.747146   -85.909414      46.7237      46.7237      46.7237           90           90           90     102002.7   -366.61784 
  552000       551904   -6860.7687    459.92451   -7320.6932    4189.8967    -11510.59    89.342873   -677.69281   -353.75029   -393.69445    89.493509    82.548878    58.476153      46.7237      46.7237      46.7237           90           90           90     102002.7   -475.04585 
  553000       552904   -6850.1963    467.64687   -7317.8432    4186.3261   -11504.169    90.842984   -924.15271   -1079.8791    -761.9216    -176.0858    21.399964    136.12914      46.7237      46.7237      46.7237           90           90           90     102002.7   -921.98448 
  554000       553904   -6873.7559    459.83898   -7333.5949    4167.9841   -11501.579    89.326258   -410.81465   -391.71401   -335.89968   -309.36236    28.266727    103.44916      46.7237      46.7237      46.7237           90           90           90     102002.7   -379.47611 
  555000       554904   -6870.4198    456.63848   -7327.0583    4181.0892   -11508.147    88.704543   -703.58918   -631.63977   -571.78384    144.95323   -255.32479    293.73519      46.7237      46.7237      46.7237           90           90           90     102002.7   -635.67093 
[...]
  936000       935904   -6841.0664      472.192   -7313.2584    4182.2896   -11495.548      91.7259   -374.56149    -781.4252   -496.44631    70.411933   -94.869383    253.76858      46.7237      46.7237      46.7237           90           90           90     102002.7     -550.811 
  937000       936904   -6849.2242    464.88865   -7314.1129    4169.7168    -11483.83    90.307185   -301.69202   -542.94261   -623.35236   -4.4308142   -428.71261   -115.81432      46.7237      46.7237      46.7237           90           90           90     102002.7     -489.329 
  938000       937904   -6836.0531    465.50547   -7301.5586    4202.4221   -11503.981    90.427006   -108.85637   -639.93112    269.49393   -77.121909    144.27375   -41.795159      46.7237      46.7237      46.7237           90           90           90     102002.7   -159.76452 
  939000       938904   -6861.3413    466.56746   -7327.9087    4175.9118   -11503.821    90.633303    -66.22491   -29.610294   -384.66974    16.985857    73.250531    204.93261      46.7237      46.7237      46.7237           90           90           90     102002.7   -160.16831 
  940000       939904   -6842.2759    476.30887   -7318.5848    4176.3783   -11494.963    92.525626   -239.68598   -139.43504   -309.76588    96.021165   -149.29249   -192.25256      46.7237      46.7237      46.7237           90           90           90     102002.7   -229.62897 
  941000       940904   -6861.1794    467.83279   -7329.0122    4172.9584   -11501.971      90.8791   -495.70939   -334.10972   -297.99495    107.79829     16.55108   -18.647443      46.7237      46.7237      46.7237           90           90           90     102002.7   -375.93802 
  942000       941904   -6836.8397    467.62363   -7304.4633    4206.4554   -11510.919     90.83847    59.469112   -94.356585   -460.39389   -24.048652   -123.63579   -124.89881      46.7237      46.7237      46.7237           90           90           90     102002.7   -165.09379 
  943000       942904    -6861.546    469.46484   -7331.0108    4169.7488    -11500.76    91.196135   -372.41317   -566.01186   -483.53333    -168.3666    -85.43169   -302.81993      46.7237      46.7237      46.7237           90           90           90     102002.7   -473.98612 
  944000       943904   -6838.3468     475.4186   -7313.7654    4191.7688   -11505.534    92.352685   -573.16713   -582.03065   -423.39589    188.68029    274.95529   -88.619248      46.7237      46.7237      46.7237           90           90           90     102002.7   -526.19789 
  945000       944904   -6852.6897    476.01936   -7328.7091    4170.3927   -11499.102    92.469387   -534.35064   -529.24316   -537.32398    121.22816   -19.998466    -1.945977      46.7237      46.7237      46.7237           90           90           90     102002.7   -533.63926 
  946000       945904   -6857.1076    456.44825   -7313.5558    4182.8916   -11496.447    88.667591   -335.52693   -860.51648   -537.55166    -177.5833   -15.807443    170.73319      46.7237      46.7237      46.7237           90           90           90     102002.7   -577.86502 
  947000       946904   -6828.7488    481.37426   -7310.1231    4187.6235   -11497.747    93.509605     -405.254   -351.93489   -722.27033   -226.16961   -85.587419    7.8382361      46.7237      46.7237      46.7237           90           90           90     102002.7   -493.15307 
  948000       947904   -6864.2191    452.20659   -7316.4257    4186.2652   -11502.691    87.843625   -388.61246   -313.14989   -189.82343   -162.35784   -124.52443    172.44987      46.7237      46.7237      46.7237           90           90           90     102002.7   -297.19526 
  949000       948904   -6832.4778    463.95236   -7296.4301    4196.6985   -11493.129    90.125305   -261.25295   -381.05305   -446.67372   -197.81854    27.996994    85.228481      46.7237      46.7237      46.7237           90           90           90     102002.7   -362.99324 
  950000       949904   -6878.3907    449.68651   -7328.0772    4171.3067   -11499.384    87.354085   -279.62412   -608.44589   -391.89611   -89.800468    -59.72777   -28.644703      46.7237      46.7237      46.7237           90           90           90     102002.7   -426.65537 
  951000       950904   -6836.8859    474.89698   -7311.7828    4190.0191   -11501.802    92.251358   -582.97472   -400.36673   -164.60062   -179.67327    -27.38732   -49.812587      46.7237      46.7237      46.7237           90           90           90     102002.7   -382.64736 
  952000       951904   -6872.3494    453.64911   -7325.9985    4180.8634   -11506.862    88.123842   -661.38663   -436.08031   -915.95282    156.31518   -178.35803   -25.815373      46.7237      46.7237      46.7237           90           90           90     102002.7   -671.13992 
  953000       952904   -6839.2959    483.24923   -7322.5451    4176.4253    -11498.97    93.873829   -271.67423   -261.74657   -50.004071    79.419979    -75.51361   -146.65675      46.7237      46.7237      46.7237           90           90           90     102002.7   -194.47496 
  954000       953904   -6846.6714    476.51347   -7323.1849    4172.6003   -11495.785     92.56537   -74.443557     -524.723   -235.49559   -158.09767   -27.813555   -148.24914      46.7237      46.7237      46.7237           90           90           90     102002.7   -278.22072 
  955000       954904   -6871.8241    451.94758   -7323.7716     4179.984   -11503.756     87.79331    -585.7653   -805.30774   -416.17186    104.72813    81.203676    174.90158      46.7237      46.7237      46.7237           90           90           90     102002.7   -602.41496 
  956000       955904   -6850.5499    451.62947   -7302.1794    4189.2285   -11491.408    87.731517   -765.61294   -396.75197   -645.37845   -61.518135   -19.351101    100.51489      46.7237      46.7237      46.7237           90           90           90     102002.7   -602.58112 
  957000       956904   -6853.7592    482.08717   -7335.8464      4162.07   -11497.916    93.648093   -658.28855   -927.33168   -572.96382    121.25293   -41.202919   -25.651643      46.7237      46.7237      46.7237           90           90           90     102002.7   -719.52802 
  958000       957904   -6866.5023    473.67539   -7340.1777    4165.2788   -11505.457    92.014058   -638.08009   -461.77345   -249.96768    41.946848   -126.50241   -245.87341      46.7237      46.7237      46.7237           90           90           90     102002.7   -449.94041 
  959000       958904   -6849.5567    466.19259   -7315.7492    4189.7979   -11505.547    90.560482   -282.28419    -330.6652   -547.08234    93.923139   -219.10276    31.645498      46.7237      46.7237      46.7237           90           90           90     102002.7   -386.67724 
  960000       959904   -6858.8622    469.60219   -7328.4644    4155.5498   -11484.014    91.222816   -744.38787   -339.78453   -140.78368    219.62631   -190.65142    237.65106      46.7237      46.7237      46.7237           90           90           90     102002.7   -408.31869 
  961000       960904   -6868.4611    452.17214   -7320.6332    4193.6395   -11514.273    87.836932   -834.00258   -798.42634    -460.3258    166.95464   -163.43642    116.49529      46.7237      46.7237      46.7237           90           90           90     102002.7   -697.58491 
  962000       961904   -6855.5169    466.65018   -7322.1671    4175.1273   -11497.294    90.649372   -702.68385   -302.27078   -367.15563    66.676017   -169.99448    42.839272      46.7237      46.7237      46.7237           90           90           90     102002.7   -457.37009 
  963000       962904   -6861.1639    466.71732   -7327.8812     4186.671   -11514.552    90.662415   -665.21643   -765.13007   -412.29108   -148.13865    125.28918    1.3774396      46.7237      46.7237      46.7237           90           90           90     102002.7   -614.21253 
  964000       963904   -6852.2149    475.49074   -7327.7057    4168.4336   -11496.139    92.366699   -691.54435   -773.19417     -600.728     20.33323      58.1977    67.067127      46.7237      46.7237      46.7237           90           90           90     102002.7   -688.48884 
  965000       964904   -6832.3894    476.12374   -7308.5132    4200.1052   -11508.618    92.489662   -665.54422   -439.96575   -800.05613    176.68254    45.758624   -39.565022      46.7237      46.7237      46.7237           90           90           90     102002.7    -635.1887 
  966000       965904   -6846.3552    470.49512   -7316.8503    4180.3972   -11497.247    91.396273    65.442686   -668.12612   -453.78317    171.07736    57.293174   -52.548062      46.7237      46.7237      46.7237           90           90           90     102002.7   -352.15553 
  967000       966904   -6840.1635    479.08019   -7319.2437    4184.6791   -11503.923    93.063971   -376.43443   -511.58148   -496.60422    179.02279    77.399524   -84.412484      46.7237      46.7237      46.7237           90           90           90     102002.7   -461.54004 
  968000       967904   -6856.7217    467.47527    -7324.197    4177.7415   -11501.938    90.809651   -414.65789   -410.96075   -381.56064   -88.337759    22.144832    35.567937      46.7237      46.7237      46.7237           90           90           90     102002.7   -402.39309 
  969000       968904   -6832.2364    483.64457   -7315.8809     4195.822   -11511.703    93.950625   -991.28234   -868.44379   -398.73902   -40.358158   -355.38896    67.491471      46.7237      46.7237      46.7237           90           90           90     102002.7   -752.82172 
  970000       969904   -6845.1024    471.11778   -7316.2202    4190.0215   -11506.242    91.517228   -580.16122    -506.9728   -158.21298    93.871558    22.674119    38.958284      46.7237      46.7237      46.7237           90           90           90     102002.7   -415.11567 
  971000       970904   -6839.6896     474.4572   -7314.1468    4183.4037   -11497.551    92.165929   -361.71556   -756.98411   -163.02079   -20.529502   -112.98895   -1.0581204      46.7237      46.7237      46.7237           90           90           90     102002.7   -427.24015 
  972000       971904   -6859.3857    452.36427     -7311.75    4201.0394   -11512.789    87.874255   -1011.8886   -657.73317   -718.22794    -124.3945    75.440486   -60.817502      46.7237      46.7237      46.7237           90           90           90     102002.7   -795.94992 
  973000       972904   -6843.2238    472.64038   -7315.8641    4184.3431   -11500.207    91.813002   -849.90328   -330.46266   -137.22423   -235.61603   -331.34651   -132.18991      46.7237      46.7237      46.7237           90           90           90     102002.7   -439.19672 
  974000       973904   -6850.5894    465.54362    -7316.133    4177.4508   -11493.584    90.434416   -676.69015   -143.23539    -464.8979    53.848059    -45.93466    70.781318      46.7237      46.7237      46.7237           90           90           90     102002.7   -428.27448 
  975000       974904   -6866.6056    457.51539    -7324.121    4180.7149   -11504.836    88.874889   -661.78585   -499.21323   -287.34137    16.448559   -115.66874    72.571588      46.7237      46.7237      46.7237           90           90           90     102002.7   -482.78015 
  976000       975904   -6834.2244    477.97867    -7312.203    4180.4695   -11492.673    92.849992   -498.60865   -326.96852   -549.92704   -103.99556   -131.71193    150.73446      46.7237      46.7237      46.7237           90           90           90     102002.7    -458.5014 
  977000       976904   -6852.5073    469.20538   -7321.7126    4180.6563   -11502.369    91.145734   -798.29317   -821.30488   -652.28218   -180.02455    20.323338    168.03402      46.7237      46.7237      46.7237           90           90           90     102002.7   -757.29341 
  978000       977904    -6857.647    456.12133   -7313.7683    4186.0724   -11499.841    88.604084   -431.06682   -456.05869   -564.35316   -125.18378   -122.98542   -4.1863695      46.7237      46.7237      46.7237           90           90           90     102002.7   -483.82622 
  979000       978904   -6832.1321    485.53674   -7317.6689    4196.1724   -11513.841    94.318191   -599.57463   -697.98608   -637.78535       36.249    -212.1097    126.83176      46.7237      46.7237      46.7237           90           90           90     102002.7   -645.11535 
  980000       979904   -6843.0268    476.25725   -7319.2841     4188.478   -11507.762    92.515598   -760.24007   -638.61938   -387.71704    137.10411   -183.67576   -188.47357      46.7237      46.7237      46.7237           90           90           90     102002.7    -595.5255 
  981000       980904   -6876.1169    453.34691   -7329.4638    4189.0787   -11518.542    88.065138   -406.79045   -252.61844   -1126.2386   -100.93592    87.791483   -25.804961      46.7237      46.7237      46.7237           90           90           90     102002.7   -595.21584 
  982000       981904    -6860.214    465.61249   -7325.8265    4180.5862   -11506.413    90.447795   -158.97296   -355.52438   -730.97962   -108.74884    207.05611   -100.86732      46.7237      46.7237      46.7237           90           90           90     102002.7   -415.15899 
  983000       982904   -6834.7905    487.07703   -7321.8675    4194.8956   -11516.763    94.617401   -532.86517   -678.21127    -596.8775    262.59261   -201.83299   -117.19976      46.7237      46.7237      46.7237           90           90           90     102002.7   -602.65132 
  984000       983904   -6841.7965    471.93753   -7313.7341    4196.7138   -11510.448    91.676469   -931.70519   -822.77746   -525.14027    191.11076    73.565691    23.585348      46.7237      46.7237      46.7237           90           90           90     102002.7   -759.87431 
  985000       984904    -6855.635    468.33925   -7323.9742    4177.7594   -11501.734    90.977483   -177.01622   -760.11075   -716.55188    51.999118   -52.137172    25.879825      46.7237      46.7237      46.7237           90           90           90     102002.7   -551.22628 
  986000       985904   -6854.4417    472.76515   -7327.2068    4182.0943   -11509.301    91.837238   -509.70201   -425.35278    -431.5198   -99.528117   -92.063298      -137.12      46.7237      46.7237      46.7237           90           90           90     102002.7   -455.52487 
  987000       986904   -6842.5772    471.26771   -7313.8449    4173.0387   -11486.884    91.546352   -574.93346   -581.06172   -435.82744   -238.56892    35.704117    129.57002      46.7237      46.7237      46.7237           90           90           90     102002.7   -530.60754 
  988000       987904   -6850.1927    469.41287   -7319.6056    4200.3507   -11519.956    91.186039    -687.3697   -217.83513   -189.76909    143.02101    111.47626   -28.758839      46.7237      46.7237      46.7237           90           90           90     102002.7   -364.99131 
  989000       988904   -6853.5973    470.72084   -7324.3181     4181.316   -11505.634    91.440119   -420.36405   -614.74455   -534.51139     -215.263   -49.880815    14.099228      46.7237      46.7237      46.7237           90           90           90     102002.7   -523.20666 
  990000       989904   -6839.8663    458.67308   -7298.5394    4214.3665   -11512.906    89.099776   -442.50984   -847.06927   -400.24803   -67.166126   -31.188279   -110.80271      46.7237      46.7237      46.7237           90           90           90     102002.7   -563.27571 
  991000       990904   -6843.9701    468.87727   -7312.8474    4195.6871   -11508.534    91.081997   -560.46149   -104.69973    -756.1902    2.4165092    96.489371   -82.471651      46.7237      46.7237      46.7237           90           90           90     102002.7    -473.7838 
  992000       991904   -6859.4214    462.43584   -7321.8572     4164.604   -11486.461    89.830714   -547.22826    -858.7401   -390.59145   -257.33202    321.02728    84.085602      46.7237      46.7237      46.7237           90           90           90     102002.7   -598.85327 
  993000       992904   -6858.9421    460.57126   -7319.5134    4190.3672   -11509.881    89.468508   -342.76018   -646.92827   -320.29739   -40.979521   -132.87468    103.38439      46.7237      46.7237      46.7237           90           90           90     102002.7   -436.66194 
  994000       993904   -6868.2547     466.2529   -7334.5076    4157.1743   -11491.682    90.572198   -335.43003   -814.36978   -668.90911   -56.083666     176.3165    44.827105      46.7237      46.7237      46.7237           90           90           90     102002.7   -606.23631 
  995000       994904    -6847.049    462.67527   -7309.7243    4184.9159    -11494.64    89.877224   -199.98974   -714.49376   -432.69151    265.20151   -38.299239    34.274525      46.7237      46.7237      46.7237           90           90           90     102002.7   -449.05833 
  996000       995904   -6864.9794    465.22339   -7330.2027     4151.987    -11482.19     90.37221   -187.63058   -366.84845   -132.46551   -156.63709    107.97748    127.38226      46.7237      46.7237      46.7237           90           90           90     102002.7   -228.98151 
  997000       996904   -6846.8003    479.58772    -7326.388    4175.5121     -11501.9     93.16256   -1005.1158   -868.32551   -392.26161   -90.271548   -172.43645   -72.162655      46.7237      46.7237      46.7237           90           90           90     102002.7   -755.23432 
  998000       997904   -6860.9935    461.93772   -7322.9312    4183.2519   -11506.183     89.73395   -211.04402   -941.14133   -960.92222   -252.69607    282.55542   -9.4659492      46.7237      46.7237      46.7237           90           90           90     102002.7   -704.36919 
  999000       998904   -6836.5101    485.09739   -7321.6075    4184.9752   -11506.583    94.232844   -269.76518    -710.4926   -425.05954   -262.54025   -150.73417   -213.03785      46.7237      46.7237      46.7237           90           90           90     102002.7   -468.43911 
 1000000       999904   -6850.6358    463.65919    -7314.295     4182.031   -11496.326    90.068356    102.64506   -430.19793   -265.89837    -49.12075    -192.9029   -169.84247      46.7237      46.7237      46.7237           90           90           90     102002.7   -197.81708 
 1000096      1000000   -6850.0268    463.52698   -7313.5538    4181.6305   -11495.184    90.042673   -87.065071   -535.13806   -524.50103   -51.078852    36.838931    56.320131      46.7237      46.7237      46.7237           90           90           90     102002.7   -382.23472 
Loop time of 1410.15 on 16 procs for 500000 steps with 1728 atoms

Performance: 30.635 ns/day, 0.783 hours/ns, 354.573 timesteps/s
99.8% CPU use with 16 MPI tasks x no OpenMP threads

MPI task timing breakdown:
Section |  min time  |  avg time  |  max time  |%varavg| %total
---------------------------------------------------------------
Pair    | 546.09     | 767.41     | 989.64     | 496.9 | 54.42
Bond    | 170.86     | 182.82     | 192.74     |  51.5 | 12.96
Neigh   | 2.4264     | 2.4397     | 2.4535     |   0.6 |  0.17
Comm    | 199.76     | 429.88     | 662.41     | 672.8 | 30.48
Output  | 0.096537   | 0.10196    | 0.10244    |   0.4 |  0.01
Modify  | 21.657     | 22.152     | 22.712     |   7.9 |  1.57
Other   |            | 5.341      |            |       |  0.38

Nlocal:    108 ave 144 max 77 min
Histogram: 1 0 2 0 7 4 0 0 1 1
Nghost:    2191.75 ave 2221 max 2153 min
Histogram: 1 1 0 0 2 4 5 1 1 1
Neighs:    11474.4 ave 17416 max 6106 min
Histogram: 1 2 3 2 2 0 2 2 0 2

Total # of neighbors = 183590
Ave neighs/atom = 106.244
Ave special neighs/atom = 6.66667
Neighbor list builds = 2178
Dangerous builds = 0
Total wall time: 0:44:39
