LAMMPS (30 Mar 2018)
Reading data file ...
  orthogonal box = (0 0 0) to (46.7237 46.7237 46.7237)
  2 by 2 by 4 MPI processor grid
  reading atoms ...
  2070 atoms
  scanning bonds ...
  5 = max bonds/atom
  scanning angles ...
  10 = max angles/atom
  scanning dihedrals ...
  32 = max dihedrals/atom
  scanning impropers ...
  3 = max impropers/atom
  reading bonds ...
  2064 bonds
  reading angles ...
  3696 angles
  reading dihedrals ...
  6240 dihedrals
  reading impropers ...
  1008 impropers
Finding 1-2 1-3 1-4 neighbors ...
  special bond factors lj:   0          0          0         
  special bond factors coul: 0          0          0         
  5 = max # of 1-2 neighbors
  8 = max # of 1-3 neighbors
  20 = max # of 1-4 neighbors
  19 = max # of special neighbors
Finding 1-2 1-3 1-4 neighbors ...
  special bond factors lj:   0          0          1         
  special bond factors coul: 1          1          1         
  5 = max # of 1-2 neighbors
  8 = max # of 1-3 neighbors
  19 = max # of special neighbors
WARNING: Using 'neigh_modify every 1 delay 0 check yes' setting during minimization (../min.cpp:168)
Neighbor list info ...
  update every 1 steps, delay 0 steps, check yes
  max neighbors/atom: 2000, page size: 100000
  master list distance cutoff = 16
  ghost atom cutoff = 16
  binsize = 8, bins = 6 6 6
  3 neighbor lists, perpetual/occasional/extra = 3 0 0
  (1) pair buck6d/coul/gauss/dsf, perpetual, skip from (3)
      attributes: half, newton on
      pair build: skip
      stencil: none
      bin: none
  (2) pair lj/cut, perpetual, skip from (3)
      attributes: half, newton on
      pair build: skip
      stencil: none
      bin: none
  (3) neighbor class addition, perpetual
      attributes: half, newton on
      pair build: half/bin/newton
      stencil: half/bin/3d/newton
      bin: standard
Setting up cg style minimization ...
  Unit style    : real
  Current step  : 0
WARNING: Inconsistent image flags (../domain.cpp:786)
Per MPI rank memory allocation (min/avg/max) = 22.91 | 23.37 | 23.82 Mbytes
Step Temp E_pair E_mol TotEng Press 
       0            0   -12484.755    6482.8914   -6001.8635    6110.5824 
     501            0   -12655.493    3721.6329   -8933.8597   -671.66995 
Loop time of 3.2279 on 16 procs for 501 steps with 2070 atoms

99.9% CPU use with 16 MPI tasks x no OpenMP threads

Minimization stats:
  Stopping criterion = max force evaluations
  Energy initial, next-to-last, final = 
         -6001.8634712     -8933.79687662     -8933.85974141
  Force two-norm initial, final = 2575.37 11.5445
  Force max component initial, final = 152.13 1.5007
  Final line search alpha, max atom move = 0.00376643 0.00565227
  Iterations, force evaluations = 501 1000

MPI task timing breakdown:
Section |  min time  |  avg time  |  max time  |%varavg| %total
---------------------------------------------------------------
Pair    | 1.4607     | 1.8453     | 2.3672     |  22.8 | 57.17
Bond    | 0.30546    | 0.35952    | 0.42876    |   6.4 | 11.14
Neigh   | 0.024188   | 0.024405   | 0.024772   |   0.1 |  0.76
Comm    | 0.36804    | 0.95901    | 1.3762     |  32.3 | 29.71
Output  | 0          | 0          | 0          |   0.0 |  0.00
Modify  | 0          | 0          | 0          |   0.0 |  0.00
Other   |            | 0.03966    |            |       |  1.23

Nlocal:    129.375 ave 162 max 111 min
Histogram: 3 2 2 3 1 1 3 0 0 1
Nghost:    2545.06 ave 2572 max 2513 min
Histogram: 2 0 2 1 1 3 2 3 0 2
Neighs:    11464.8 ave 17350 max 7670 min
Histogram: 4 2 2 0 2 2 1 1 1 1

Total # of neighbors = 183436
Ave neighs/atom = 88.6164
Ave special neighs/atom = 5.56522
Neighbor list builds = 14
Dangerous builds = 0
Neighbor list info ...
  update every 1 steps, delay 10 steps, check yes
  max neighbors/atom: 2000, page size: 100000
  master list distance cutoff = 16
  ghost atom cutoff = 16
  binsize = 8, bins = 6 6 6
  3 neighbor lists, perpetual/occasional/extra = 3 0 0
  (1) pair buck6d/coul/gauss/dsf, perpetual, skip from (3)
      attributes: half, newton on
      pair build: skip
      stencil: none
      bin: none
  (2) pair lj/cut, perpetual, skip from (3)
      attributes: half, newton on
      pair build: skip
      stencil: none
      bin: none
  (3) neighbor class addition, perpetual
      attributes: half, newton on
      pair build: half/bin/newton
      stencil: half/bin/3d/newton
      bin: standard
Setting up Verlet run ...
  Unit style    : real
  Current step  : 501
  Time step     : 1
WARNING: Inconsistent image flags (../domain.cpp:786)
Per MPI rank memory allocation (min/avg/max) = 22.56 | 22.66 | 22.88 Mbytes
Step Temp PotEng TotEng Press Volume Lx Ly Lz 
     501          130   -8933.8597   -8132.1113   -312.36821     102002.7      46.7237      46.7237      46.7237 
    1000    114.55648   -8241.4687    -7534.965   -581.40982     102002.7      46.7237      46.7237      46.7237 
    2000    139.15944   -8107.6941   -7249.4566   -832.86048     102002.7      46.7237      46.7237      46.7237 
    3000    129.13041   -8072.8444   -7276.4589   -796.56533     102002.7      46.7237      46.7237      46.7237 
    4000    130.71028   -8071.6553   -7265.5263   -763.04213     102002.7      46.7237      46.7237      46.7237 
    5000    129.16353   -8095.6932   -7299.1035    -984.9472     102002.7      46.7237      46.7237      46.7237 
    6000    129.11255   -8084.0925   -7287.8172   -835.68771     102002.7      46.7237      46.7237      46.7237 
    7000     129.6469   -8064.3212   -7264.7504   -755.52568     102002.7      46.7237      46.7237      46.7237 
    8000    131.24474    -8097.022   -7287.5968    -474.1623     102002.7      46.7237      46.7237      46.7237 
    9000    130.74984   -8089.5518   -7283.1789   -550.75817     102002.7      46.7237      46.7237      46.7237 
   10000    130.17394   -8087.8077   -7284.9864    -626.9169     102002.7      46.7237      46.7237      46.7237 
   11000    132.28988   -8101.4332   -7285.5623     -636.772     102002.7      46.7237      46.7237      46.7237 
   12000    131.52517   -8100.1472   -7288.9926   -791.90517     102002.7      46.7237      46.7237      46.7237 
   13000    132.63017   -8077.7205    -7259.751   -907.47166     102002.7      46.7237      46.7237      46.7237 
   14000    128.28395   -8071.5177   -7280.3527   -741.38286     102002.7      46.7237      46.7237      46.7237 
   15000    129.99578   -8085.5529   -7283.8305   -834.25184     102002.7      46.7237      46.7237      46.7237 
   16000    127.38697   -8085.6526   -7300.0195    -1126.335     102002.7      46.7237      46.7237      46.7237 
   17000    131.77069   -8092.8926   -7280.2238   -646.64071     102002.7      46.7237      46.7237      46.7237 
   18000    131.30673   -8086.4491   -7276.6416   -785.75103     102002.7      46.7237      46.7237      46.7237 
   19000    128.13356    -8064.583   -7274.3454   -680.89365     102002.7      46.7237      46.7237      46.7237 
   20000    133.16159   -8079.5118   -7258.2648   -841.69112     102002.7      46.7237      46.7237      46.7237 
   21000    128.18821   -8098.0828   -7307.5081   -766.87673     102002.7      46.7237      46.7237      46.7237 
   22000    127.14001   -8073.9376   -7289.8275   -1056.9069     102002.7      46.7237      46.7237      46.7237 
   23000    132.31813   -8070.6899   -7254.6448     -1010.14     102002.7      46.7237      46.7237      46.7237 
   24000    130.05787   -8052.3295   -7250.2241    -1120.586     102002.7      46.7237      46.7237      46.7237 
   25000     131.9434   -8045.2709   -7231.5369   -1035.6081     102002.7      46.7237      46.7237      46.7237 
   26000    130.72756   -8070.7837   -7264.5482   -683.70366     102002.7      46.7237      46.7237      46.7237 
   27000    129.37965   -8078.8601   -7280.9375   -1001.8321     102002.7      46.7237      46.7237      46.7237 
   28000    130.25228   -8093.3282   -7290.0238   -425.95344     102002.7      46.7237      46.7237      46.7237 
   29000    126.66231   -8079.2653   -7298.1014   -950.10732     102002.7      46.7237      46.7237      46.7237 
   30000    132.05102   -8052.8983   -7238.5005    -589.0673     102002.7      46.7237      46.7237      46.7237 
   31000    129.68297   -8059.1683   -7259.3751   -792.76618     102002.7      46.7237      46.7237      46.7237 
   32000    133.14478   -8051.7556   -7230.6123   -847.39935     102002.7      46.7237      46.7237      46.7237 
   33000    131.70344   -8057.4831    -7245.229   -484.99068     102002.7      46.7237      46.7237      46.7237 
   34000    124.69583   -8070.9441   -7301.9081   -669.87294     102002.7      46.7237      46.7237      46.7237 
   35000    129.99572   -8037.0058   -7235.2837   -664.78999     102002.7      46.7237      46.7237      46.7237 
   36000    130.28391   -8057.6801   -7254.1807   -752.28413     102002.7      46.7237      46.7237      46.7237 
   37000     130.1429   -8063.8734   -7261.2436   -873.13722     102002.7      46.7237      46.7237      46.7237 
   38000    129.06884   -8074.4842   -7278.4785   -674.23109     102002.7      46.7237      46.7237      46.7237 
   39000    126.81065   -8049.1613   -7267.0825   -1028.8151     102002.7      46.7237      46.7237      46.7237 
   40000    128.91509   -8062.3602   -7267.3027   -930.00772     102002.7      46.7237      46.7237      46.7237 
   41000    132.06142    -8060.599   -7246.1371   -770.07618     102002.7      46.7237      46.7237      46.7237 
   42000    130.22797   -8059.9993   -7256.8449   -692.67452     102002.7      46.7237      46.7237      46.7237 
   43000    129.17082   -8068.1634   -7271.5287   -864.10426     102002.7      46.7237      46.7237      46.7237 
   44000    130.49758   -8031.7872     -7226.97   -416.80695     102002.7      46.7237      46.7237      46.7237 
   45000    133.16179   -8076.7891   -7255.5409   -1077.6622     102002.7      46.7237      46.7237      46.7237 
   46000    126.51516   -8086.1972   -7305.9408   -979.26738     102002.7      46.7237      46.7237      46.7237 
   47000    127.37295   -8053.2428   -7267.6961   -816.64159     102002.7      46.7237      46.7237      46.7237 
   48000     133.3468   -8072.3873   -7249.9981   -988.15714     102002.7      46.7237      46.7237      46.7237 
   49000    132.16805   -8051.9335    -7236.814   -527.03825     102002.7      46.7237      46.7237      46.7237 
   50000    128.84206   -8045.5149   -7250.9078    -671.1589     102002.7      46.7237      46.7237      46.7237 
   51000    131.59023   -8069.0814   -7257.5255   -494.97335     102002.7      46.7237      46.7237      46.7237 
   52000    130.08368   -8085.8992   -7283.6347   -642.61884     102002.7      46.7237      46.7237      46.7237 
   53000    132.07979    -8076.622   -7262.0468   -625.01968     102002.7      46.7237      46.7237      46.7237 
   54000    131.47496   -8061.7864   -7250.9414   -581.41561     102002.7      46.7237      46.7237      46.7237 
   55000    126.54291   -8066.6196    -7286.192   -888.77765     102002.7      46.7237      46.7237      46.7237 
   56000    131.00951   -8082.6375   -7274.6631   -764.68726     102002.7      46.7237      46.7237      46.7237 
   57000    130.52297   -8087.0388    -7282.065   -817.22349     102002.7      46.7237      46.7237      46.7237 
   58000    133.85277    -8071.275   -7245.7653   -774.98287     102002.7      46.7237      46.7237      46.7237 
   59000    127.47196   -8052.1698   -7266.0125    -679.1753     102002.7      46.7237      46.7237      46.7237 
   60000     132.5405   -8068.0621   -7250.6456   -1041.9752     102002.7      46.7237      46.7237      46.7237 
   61000    131.66764   -8049.3665   -7237.3332   -627.94875     102002.7      46.7237      46.7237      46.7237 
   62000    129.84747   -8027.0435   -7226.2357   -741.75833     102002.7      46.7237      46.7237      46.7237 
   63000    130.60155   -8040.4135   -7234.9552    -711.3459     102002.7      46.7237      46.7237      46.7237 
   64000    129.05279   -8048.6839   -7252.7771   -549.94565     102002.7      46.7237      46.7237      46.7237 
   65000    127.77083    -8047.828   -7259.8275   -909.78614     102002.7      46.7237      46.7237      46.7237 
   66000    125.90384   -8069.7711   -7293.2848   -950.02123     102002.7      46.7237      46.7237      46.7237 
   67000    129.31676   -8045.6308   -7248.0961   -559.35473     102002.7      46.7237      46.7237      46.7237 
   68000    132.49133   -8080.9742   -7263.8609   -583.25201     102002.7      46.7237      46.7237      46.7237 
   69000    127.05087   -8072.3035   -7288.7432   -713.34747     102002.7      46.7237      46.7237      46.7237 
   70000    129.60107   -8041.6742    -7242.386   -395.51927     102002.7      46.7237      46.7237      46.7237 
   71000     128.8567   -8083.0369   -7288.3395   -753.73732     102002.7      46.7237      46.7237      46.7237 
   72000     129.0938   -8089.9468   -7293.7871   -1149.2162     102002.7      46.7237      46.7237      46.7237 
   73000    132.06656   -8058.4935        -7244   -700.27478     102002.7      46.7237      46.7237      46.7237 
   74000    129.74078   -8055.2895   -7255.1398   -563.27662     102002.7      46.7237      46.7237      46.7237 
   75000    130.17173   -8091.7398   -7288.9322   -493.45602     102002.7      46.7237      46.7237      46.7237 
   76000    132.15376   -8063.0434    -7248.012   -272.66882     102002.7      46.7237      46.7237      46.7237 
   77000    135.17528   -8101.6804   -7268.0144   -401.52048     102002.7      46.7237      46.7237      46.7237 
   78000    130.29833     -8058.43   -7254.8416    -791.4114     102002.7      46.7237      46.7237      46.7237 
   79000    131.09793   -8053.2224   -7244.7026   -554.88069     102002.7      46.7237      46.7237      46.7237 
   80000    130.20036    -8084.094   -7281.1099   -970.62513     102002.7      46.7237      46.7237      46.7237 
   81000    132.21166   -8054.5206   -7239.1322   -966.68333     102002.7      46.7237      46.7237      46.7237 
   82000    128.09342   -8042.5103   -7252.5203   -711.89488     102002.7      46.7237      46.7237      46.7237 
   83000    128.78387   -8079.7533   -7285.5051   -694.33022     102002.7      46.7237      46.7237      46.7237 
   84000    129.44374   -8068.0997   -7269.7818   -848.75555     102002.7      46.7237      46.7237      46.7237 
   85000    132.24092   -8042.8978   -7227.3289   -661.46838     102002.7      46.7237      46.7237      46.7237 
   86000    129.90369   -8057.7329   -7256.5784   -899.84277     102002.7      46.7237      46.7237      46.7237 
   87000    131.60062   -8077.9179   -7266.2979   -838.80388     102002.7      46.7237      46.7237      46.7237 
   88000    125.57262   -8045.1897   -7270.7462   -784.23044     102002.7      46.7237      46.7237      46.7237 
   89000    129.14773    -8053.194   -7256.7017   -748.81109     102002.7      46.7237      46.7237      46.7237 
   90000    126.53134   -8079.3024   -7298.9462   -875.20342     102002.7      46.7237      46.7237      46.7237 
   91000    131.57455   -8053.9309   -7242.4718   -939.69854     102002.7      46.7237      46.7237      46.7237 
   92000    129.32437   -8040.7868   -7243.2051   -894.50329     102002.7      46.7237      46.7237      46.7237 
   93000    127.03498   -8081.2638   -7297.8015    -725.8655     102002.7      46.7237      46.7237      46.7237 
   94000    127.43422   -8050.6638   -7264.7393    -891.4888     102002.7      46.7237      46.7237      46.7237 
   95000    133.00702   -8049.1377    -7228.844   -754.59029     102002.7      46.7237      46.7237      46.7237 
   96000    131.00529    -8078.655   -7270.7066   -697.53186     102002.7      46.7237      46.7237      46.7237 
   97000    132.38631   -8084.8398   -7268.3743   -668.45766     102002.7      46.7237      46.7237      46.7237 
   98000    132.88015   -8045.3944   -7225.8832   -801.12533     102002.7      46.7237      46.7237      46.7237 
   99000    133.63587   -8068.8423   -7244.6704   -1048.5875     102002.7      46.7237      46.7237      46.7237 
  100000     132.1441   -8061.4867   -7246.5149   -638.48249     102002.7      46.7237      46.7237      46.7237 
  101000    128.68438   -8080.1055   -7286.4708    -977.3234     102002.7      46.7237      46.7237      46.7237 
  102000    131.98886   -8064.8431   -7250.8288   -700.29546     102002.7      46.7237      46.7237      46.7237 
  103000    135.46322   -8058.3266   -7222.8849   -937.62858     102002.7      46.7237      46.7237      46.7237 
  104000    125.31857   -8069.9104   -7297.0337   -698.77237     102002.7      46.7237      46.7237      46.7237 
  105000    128.89105   -8048.0335   -7253.1243   -854.79041     102002.7      46.7237      46.7237      46.7237 
  106000    129.94816   -8049.8626   -7248.4338   -839.02097     102002.7      46.7237      46.7237      46.7237 
  107000     131.0715    -8096.877   -7288.5203   -492.17266     102002.7      46.7237      46.7237      46.7237 
  108000     128.7025   -8046.1147   -7252.3683   -989.02459     102002.7      46.7237      46.7237      46.7237 
  109000    130.54572   -8051.5616   -7246.4475   -509.84744     102002.7      46.7237      46.7237      46.7237 
  110000    129.26771     -8081.83   -7284.5977   -817.81434     102002.7      46.7237      46.7237      46.7237 
  111000    131.24902   -8059.4107   -7249.9591   -921.55469     102002.7      46.7237      46.7237      46.7237 
  112000    130.80526   -8091.9939   -7285.2791   -801.05591     102002.7      46.7237      46.7237      46.7237 
  113000    127.91386   -8043.7881   -7254.9055   -518.05658     102002.7      46.7237      46.7237      46.7237 
  114000    130.24601   -8076.1258   -7272.8601   -543.78344     102002.7      46.7237      46.7237      46.7237 
  115000    129.11819   -8059.5576   -7263.2475   -633.30316     102002.7      46.7237      46.7237      46.7237 
  116000    129.74431   -8056.8639   -7256.6923   -226.42347     102002.7      46.7237      46.7237      46.7237 
  117000    132.29835   -8050.2883   -7234.3652   -588.83119     102002.7      46.7237      46.7237      46.7237 
  118000    131.50506   -8027.6771   -7216.6464   -569.13221     102002.7      46.7237      46.7237      46.7237 
  119000    130.97442   -8046.2157   -7238.4577   -530.09582     102002.7      46.7237      46.7237      46.7237 
  120000    130.17087   -8049.1024   -7246.3001    -991.5868     102002.7      46.7237      46.7237      46.7237 
  121000    130.49482   -8061.5566   -7256.7564   -746.94413     102002.7      46.7237      46.7237      46.7237 
  122000    129.16806   -8030.5645   -7233.9469    -725.0691     102002.7      46.7237      46.7237      46.7237 
  123000    132.57098   -8088.4832   -7270.8788   -583.71001     102002.7      46.7237      46.7237      46.7237 
  124000    128.25004   -8083.5184   -7292.5624   -685.85586     102002.7      46.7237      46.7237      46.7237 
  125000    129.42015   -8075.4488   -7277.2764   -775.44814     102002.7      46.7237      46.7237      46.7237 
  126000     131.0342    -8072.251   -7264.1242   -799.09004     102002.7      46.7237      46.7237      46.7237 
  127000    129.46837   -8072.3378   -7273.8681   -885.24672     102002.7      46.7237      46.7237      46.7237 
  128000    129.82043   -8068.7432   -7268.1022   -492.95543     102002.7      46.7237      46.7237      46.7237 
  129000    128.31556    -8076.714   -7285.3539   -918.11037     102002.7      46.7237      46.7237      46.7237 
  130000    133.32367   -8051.6845    -7229.438   -773.10579     102002.7      46.7237      46.7237      46.7237 
  131000    131.93279   -8059.9005   -7246.2319   -711.66179     102002.7      46.7237      46.7237      46.7237 
  132000    129.76282   -8068.1361   -7267.8503   -877.62131     102002.7      46.7237      46.7237      46.7237 
  133000    130.31909   -8088.9201   -7285.2037   -783.40665     102002.7      46.7237      46.7237      46.7237 
  134000    128.13941   -8064.8227    -7274.549   -676.74699     102002.7      46.7237      46.7237      46.7237 
  135000    128.62212   -8060.1393   -7266.8886    -604.8244     102002.7      46.7237      46.7237      46.7237 
  136000    129.87984   -8064.4539   -7263.4464   -780.74972     102002.7      46.7237      46.7237      46.7237 
  137000    135.66144   -8048.3975   -7211.7332   -727.13183     102002.7      46.7237      46.7237      46.7237 
  138000    132.20114   -8065.6386   -7250.3151   -927.40345     102002.7      46.7237      46.7237      46.7237 
  139000    127.08942   -8067.3385   -7283.5405   -746.01789     102002.7      46.7237      46.7237      46.7237 
  140000    127.55973   -8072.1504   -7285.4518   -666.76191     102002.7      46.7237      46.7237      46.7237 
  141000     133.4165   -8072.4487   -7249.6296   -679.61459     102002.7      46.7237      46.7237      46.7237 
  142000    126.97094   -8073.4439   -7290.3765   -594.12195     102002.7      46.7237      46.7237      46.7237 
  143000    127.06226    -8064.184   -7280.5534   -495.44838     102002.7      46.7237      46.7237      46.7237 
  144000    126.23813    -8088.754   -7310.2061   -603.35006     102002.7      46.7237      46.7237      46.7237 
  145000    128.98963   -8044.1349   -7248.6177   -857.86029     102002.7      46.7237      46.7237      46.7237 
  146000     130.1522   -8049.4789   -7246.7918   -878.48739     102002.7      46.7237      46.7237      46.7237 
  147000    126.27971   -8055.7422   -7276.9379   -869.67676     102002.7      46.7237      46.7237      46.7237 
  148000    132.57319    -8093.669   -7276.0509   -1127.0763     102002.7      46.7237      46.7237      46.7237 
  149000    131.43285   -8044.6365   -7234.0512    -1035.245     102002.7      46.7237      46.7237      46.7237 
  150000    132.33989   -8050.8608   -7234.6815   -512.78871     102002.7      46.7237      46.7237      46.7237 
  151000    129.96485   -8028.4386   -7226.9069   -987.14325     102002.7      46.7237      46.7237      46.7237 
  152000    133.28248   -8074.4716   -7252.4791    -930.8605     102002.7      46.7237      46.7237      46.7237 
  153000    130.76065   -8046.8316   -7240.3919   -961.57479     102002.7      46.7237      46.7237      46.7237 
  154000    129.13052   -8072.2726   -7275.8865   -448.00163     102002.7      46.7237      46.7237      46.7237 
  155000    125.03333   -8085.9258   -7314.8082   -727.43917     102002.7      46.7237      46.7237      46.7237 
  156000    128.55466   -8075.8544   -7283.0198   -1003.6341     102002.7      46.7237      46.7237      46.7237 
  157000    133.99471   -8083.0932   -7256.7082   -981.29511     102002.7      46.7237      46.7237      46.7237 
  158000    132.46898   -8087.9367   -7270.9613   -993.74928     102002.7      46.7237      46.7237      46.7237 
  159000    129.47371   -8053.8069   -7255.3043   -576.45035     102002.7      46.7237      46.7237      46.7237 
  160000    130.40039   -8100.8413   -7296.6235   -694.76113     102002.7      46.7237      46.7237      46.7237 
  161000    129.44549   -8064.0379   -7265.7092   -800.81478     102002.7      46.7237      46.7237      46.7237 
  162000     129.0806   -8087.6736   -7291.5954   -728.69689     102002.7      46.7237      46.7237      46.7237 
  163000    125.25672   -8076.1165   -7303.6212   -682.14882     102002.7      46.7237      46.7237      46.7237 
  164000    131.82744   -8087.4709    -7274.452     -719.456     102002.7      46.7237      46.7237      46.7237 
  165000    133.10543   -8070.3666    -7249.466   -678.66878     102002.7      46.7237      46.7237      46.7237 
  166000    130.61742   -8059.8582   -7254.3019   -762.39586     102002.7      46.7237      46.7237      46.7237 
  167000    128.58594   -8066.4451   -7273.4175   -644.37038     102002.7      46.7237      46.7237      46.7237 
  168000    131.22177   -8059.9069   -7250.6234   -919.25379     102002.7      46.7237      46.7237      46.7237 
  169000    129.71909   -8075.9294   -7275.9134   -776.79098     102002.7      46.7237      46.7237      46.7237 
  170000    124.55414   -8067.9042   -7299.7419   -695.09236     102002.7      46.7237      46.7237      46.7237 
  171000    131.51397   -8046.4204   -7235.3348   -724.88989     102002.7      46.7237      46.7237      46.7237 
  172000    129.18451   -8065.9674   -7269.2483   -821.26118     102002.7      46.7237      46.7237      46.7237 
  173000    131.98035   -8047.8871   -7233.9252   -733.22897     102002.7      46.7237      46.7237      46.7237 
  174000    129.03434   -8065.3438   -7269.5508   -767.63226     102002.7      46.7237      46.7237      46.7237 
  175000    131.00371   -8050.0714   -7242.1328   -1024.9924     102002.7      46.7237      46.7237      46.7237 
  176000    130.78373   -8026.9193   -7220.3374   -1037.0625     102002.7      46.7237      46.7237      46.7237 
  177000    129.69998   -8060.8456   -7260.9474   -665.38514     102002.7      46.7237      46.7237      46.7237 
  178000    127.20424   -8074.2168   -7289.7106   -968.53828     102002.7      46.7237      46.7237      46.7237 
  179000    129.03406   -8049.2335   -7253.4423   -723.61876     102002.7      46.7237      46.7237      46.7237 
  180000    133.10457   -8069.2579   -7248.3626   -1032.3592     102002.7      46.7237      46.7237      46.7237 
  181000    132.60529   -8077.7341    -7259.918   -966.75709     102002.7      46.7237      46.7237      46.7237 
  182000    125.80185   -8041.9326   -7266.0754   -595.50652     102002.7      46.7237      46.7237      46.7237 
  183000    135.56173   -8045.9029   -7209.8535   -1061.6561     102002.7      46.7237      46.7237      46.7237 
  184000    131.68504    -8067.253   -7255.1124   -953.02682     102002.7      46.7237      46.7237      46.7237 
  185000     127.7022   -8065.0433    -7277.466   -498.12086     102002.7      46.7237      46.7237      46.7237 
  186000    130.24178   -8027.8107   -7224.5711   -929.12864     102002.7      46.7237      46.7237      46.7237 
  187000    134.01696   -8052.5502    -7226.028   -746.55248     102002.7      46.7237      46.7237      46.7237 
  188000     129.7611   -8071.1359   -7270.8608   -648.96139     102002.7      46.7237      46.7237      46.7237 
  189000    128.40772   -8085.3269   -7293.3984   -706.86553     102002.7      46.7237      46.7237      46.7237 
  190000    130.48574   -8054.9002   -7250.1561   -776.92848     102002.7      46.7237      46.7237      46.7237 
  191000    127.58022   -8084.1019   -7297.2769   -887.96381     102002.7      46.7237      46.7237      46.7237 
  192000    128.85968   -8073.7756   -7279.0598   -585.45487     102002.7      46.7237      46.7237      46.7237 
  193000    132.55609   -8059.1001   -7241.5874   -729.46567     102002.7      46.7237      46.7237      46.7237 
  194000    128.65809   -8073.8745   -7280.4019    -613.9499     102002.7      46.7237      46.7237      46.7237 
  195000    132.20719   -8091.2345   -7275.8736   -794.38522     102002.7      46.7237      46.7237      46.7237 
  196000    127.84535   -8055.3489   -7266.8887   -1114.2392     102002.7      46.7237      46.7237      46.7237 
  197000    129.33933   -8058.9575   -7261.2835   -747.24017     102002.7      46.7237      46.7237      46.7237 
  198000    129.27333   -8079.6591   -7282.3922   -942.17785     102002.7      46.7237      46.7237      46.7237 
  199000    133.84956    -8071.385   -7245.8951   -920.17853     102002.7      46.7237      46.7237      46.7237 
  200000    131.12454    -8069.575   -7260.8911   -795.24411     102002.7      46.7237      46.7237      46.7237 
  201000    128.55392   -8046.5276   -7253.6975   -955.73222     102002.7      46.7237      46.7237      46.7237 
  202000    133.15652   -8048.9591   -7227.7434   -649.54218     102002.7      46.7237      46.7237      46.7237 
  203000    126.37345   -8039.4641   -7260.0816   -552.82211     102002.7      46.7237      46.7237      46.7237 
  204000    124.90585   -8036.2321   -7265.9007   -831.05434     102002.7      46.7237      46.7237      46.7237 
  205000    129.74945   -8060.0923   -7259.8891   -841.08562     102002.7      46.7237      46.7237      46.7237 
  206000    130.22534   -8090.3373    -7287.199   -799.87231     102002.7      46.7237      46.7237      46.7237 
  207000    136.68051   -8051.5517   -7208.6025   -611.17933     102002.7      46.7237      46.7237      46.7237 
  208000    132.95134   -8091.0154   -7271.0651   -639.40394     102002.7      46.7237      46.7237      46.7237 
  209000    133.43901   -8087.3259    -7264.368   -655.91558     102002.7      46.7237      46.7237      46.7237 
  210000    127.50468   -8080.5425   -7294.1834   -725.90567     102002.7      46.7237      46.7237      46.7237 
  211000    131.13449    -8055.269   -7246.5238   -728.51724     102002.7      46.7237      46.7237      46.7237 
  212000    130.20118   -8085.3077   -7282.3185   -669.88653     102002.7      46.7237      46.7237      46.7237 
  213000    125.77231     -8056.05   -7280.3749   -580.30406     102002.7      46.7237      46.7237      46.7237 
  214000     127.0801    -8053.065   -7269.3244   -656.48136     102002.7      46.7237      46.7237      46.7237 
  215000    128.28118   -8105.6103   -7314.4623    -609.5943     102002.7      46.7237      46.7237      46.7237 
  216000    129.01728    -8089.548   -7293.8603   -668.36287     102002.7      46.7237      46.7237      46.7237 
  217000    130.72847    -8062.761   -7256.5198   -872.90752     102002.7      46.7237      46.7237      46.7237 
  218000     126.9021    -8045.472   -7262.8292   -811.73835     102002.7      46.7237      46.7237      46.7237 
  219000    130.52144    -8023.597   -7218.6326   -621.97892     102002.7      46.7237      46.7237      46.7237 
  220000    130.05008   -8041.1813   -7239.1239   -713.16683     102002.7      46.7237      46.7237      46.7237 
  221000     130.6705   -8063.7772   -7257.8936   -843.36552     102002.7      46.7237      46.7237      46.7237 
  222000    134.84998   -8036.4921   -7204.8323   -776.63418     102002.7      46.7237      46.7237      46.7237 
  223000    128.91484   -8075.2146   -7280.1587   -821.80336     102002.7      46.7237      46.7237      46.7237 
  224000    130.04315   -8093.3592   -7291.3446   -604.80867     102002.7      46.7237      46.7237      46.7237 
  225000    132.05834   -8071.1241   -7256.6813   -775.07061     102002.7      46.7237      46.7237      46.7237 
  226000    127.16297   -8060.2358   -7275.9842   -1047.9619     102002.7      46.7237      46.7237      46.7237 
  227000    129.73572    -8073.135   -7273.0164   -415.35094     102002.7      46.7237      46.7237      46.7237 
  228000    132.83754   -8064.1066   -7244.8582   -571.21076     102002.7      46.7237      46.7237      46.7237 
  229000    131.46891   -8057.7347    -7246.927   -641.03058     102002.7      46.7237      46.7237      46.7237 
  230000    132.64483   -8056.6668   -7238.6068   -697.07961     102002.7      46.7237      46.7237      46.7237 
  231000    127.97285   -8059.5024   -7270.2559   -373.21998     102002.7      46.7237      46.7237      46.7237 
  232000    127.64164   -8066.6367   -7279.4329    -1044.052     102002.7      46.7237      46.7237      46.7237 
  233000    128.31059   -8070.2245   -7278.8951   -817.75236     102002.7      46.7237      46.7237      46.7237 
  234000    128.48248   -8078.2552   -7285.8657   -687.36108     102002.7      46.7237      46.7237      46.7237 
  235000    133.77507   -8074.5331   -7249.5027   -736.04177     102002.7      46.7237      46.7237      46.7237 
  236000    128.04125   -8099.2892   -7309.6209   -611.41209     102002.7      46.7237      46.7237      46.7237 
  237000    127.71951   -8074.2965   -7286.6125   -677.20093     102002.7      46.7237      46.7237      46.7237 
  238000    129.97257   -8053.2635   -7251.6842   -806.88193     102002.7      46.7237      46.7237      46.7237 
  239000    132.61475   -8081.6222   -7263.7478   -855.56727     102002.7      46.7237      46.7237      46.7237 
  240000    136.24469    -8106.548   -7266.2867   -493.13077     102002.7      46.7237      46.7237      46.7237 
  241000    128.19357   -8075.8949   -7285.2872   -611.08704     102002.7      46.7237      46.7237      46.7237 
  242000    130.45828   -8072.6293   -7268.0544    -654.8581     102002.7      46.7237      46.7237      46.7237 
  243000      130.025    -8095.323   -7293.4204   -694.63917     102002.7      46.7237      46.7237      46.7237 
  244000    132.81939   -8070.6981   -7251.5616   -799.36653     102002.7      46.7237      46.7237      46.7237 
  245000    130.79482   -8056.3786   -7249.7282    -723.7717     102002.7      46.7237      46.7237      46.7237 
  246000    129.48201   -8085.7898   -7287.2359   -1087.4496     102002.7      46.7237      46.7237      46.7237 
  247000    131.75668   -8069.8794    -7257.297   -973.56049     102002.7      46.7237      46.7237      46.7237 
  248000    131.83117   -8050.2548    -7237.213   -724.77891     102002.7      46.7237      46.7237      46.7237 
  249000    129.68841   -8074.8917   -7275.0649   -639.13854     102002.7      46.7237      46.7237      46.7237 
  250000    131.28764   -8072.4892   -7262.7995   -785.93262     102002.7      46.7237      46.7237      46.7237 
  251000    132.72395   -8047.8978     -7229.35   -1021.9027     102002.7      46.7237      46.7237      46.7237 
  252000    127.25363   -8089.6189   -7304.8081   -509.02203     102002.7      46.7237      46.7237      46.7237 
  253000    126.61851   -8034.8986   -7254.0047   -714.70377     102002.7      46.7237      46.7237      46.7237 
  254000    127.06816   -8054.8417   -7271.1747   -592.65141     102002.7      46.7237      46.7237      46.7237 
  255000    134.51659   -8057.7218   -7228.1182   -960.37329     102002.7      46.7237      46.7237      46.7237 
  256000    127.00277   -8054.7344   -7271.4707   -876.61155     102002.7      46.7237      46.7237      46.7237 
  257000    134.00517   -8080.3271   -7253.8776    -374.1679     102002.7      46.7237      46.7237      46.7237 
  258000    127.28313   -8074.7477   -7289.7549   -661.84453     102002.7      46.7237      46.7237      46.7237 
  259000    125.36634   -8081.9252   -7308.7538   -678.24477     102002.7      46.7237      46.7237      46.7237 
  260000    134.73609   -8062.9802   -7232.0228   -501.38296     102002.7      46.7237      46.7237      46.7237 
  261000     128.1961   -8049.3527   -7258.7295    -945.7495     102002.7      46.7237      46.7237      46.7237 
  262000    129.71593   -8045.8013   -7245.8048   -859.84916     102002.7      46.7237      46.7237      46.7237 
  263000    129.80013   -8057.1125   -7256.5967   -525.06051     102002.7      46.7237      46.7237      46.7237 
  264000    130.00823   -8037.9487   -7236.1495   -774.52002     102002.7      46.7237      46.7237      46.7237 
  265000    130.68494   -8050.7871   -7244.8144   -864.71661     102002.7      46.7237      46.7237      46.7237 
  266000    127.07065   -8061.8431   -7278.1608   -1018.5596     102002.7      46.7237      46.7237      46.7237 
  267000    130.56424   -8037.9888   -7232.7605   -1045.2287     102002.7      46.7237      46.7237      46.7237 
  268000    131.01584   -8074.2202   -7266.2067   -442.63569     102002.7      46.7237      46.7237      46.7237 
  269000    132.14316   -8087.4614   -7272.4954   -652.84285     102002.7      46.7237      46.7237      46.7237 
  270000    130.45661   -8056.9292   -7252.3647   -742.25821     102002.7      46.7237      46.7237      46.7237 
  271000    133.21637   -8067.7296   -7246.1448   -664.47605     102002.7      46.7237      46.7237      46.7237 
  272000    130.91222   -8047.6802   -7240.3058   -817.02023     102002.7      46.7237      46.7237      46.7237 
  273000    126.58442   -8059.6536     -7278.97   -508.08253     102002.7      46.7237      46.7237      46.7237 
  274000    128.42063   -8043.4327   -7251.4246   -881.86619     102002.7      46.7237      46.7237      46.7237 
  275000    130.85206   -8060.5858   -7253.5824   -1001.5203     102002.7      46.7237      46.7237      46.7237 
  276000    128.43861   -8098.1466   -7306.0277   -810.42091     102002.7      46.7237      46.7237      46.7237 
  277000    132.12596   -8044.1033   -7229.2434   -1029.4444     102002.7      46.7237      46.7237      46.7237 
  278000    126.06237   -8077.4215   -7299.9576   -895.86632     102002.7      46.7237      46.7237      46.7237 
  279000    130.78861   -8053.8167   -7247.2046   -668.77746     102002.7      46.7237      46.7237      46.7237 
  280000    129.28787   -8082.7602   -7285.4036   -1053.9215     102002.7      46.7237      46.7237      46.7237 
  281000    130.96473   -8049.4074   -7241.7092   -779.60497     102002.7      46.7237      46.7237      46.7237 
  282000    125.40328   -8046.5213   -7273.1222   -914.75337     102002.7      46.7237      46.7237      46.7237 
  283000    127.67774   -8042.8551   -7255.4287   -677.77574     102002.7      46.7237      46.7237      46.7237 
  284000     125.8975   -8022.4521    -7246.005   -566.95869     102002.7      46.7237      46.7237      46.7237 
  285000    132.54799   -8046.3327     -7228.87   -717.64028     102002.7      46.7237      46.7237      46.7237 
  286000    129.90262   -8072.6535   -7271.5056   -383.78361     102002.7      46.7237      46.7237      46.7237 
  287000    130.24115   -8064.2854   -7261.0497   -994.33344     102002.7      46.7237      46.7237      46.7237 
  288000    131.86938   -8077.9838   -7264.7063   -478.83342     102002.7      46.7237      46.7237      46.7237 
  289000    130.48487    -8061.775   -7257.0362   -948.41534     102002.7      46.7237      46.7237      46.7237 
  290000    131.34241   -8060.1532   -7250.1257   -329.07308     102002.7      46.7237      46.7237      46.7237 
  291000    129.99268   -8030.5782   -7228.8749    -665.3646     102002.7      46.7237      46.7237      46.7237 
  292000    130.35016   -8060.5681     -7256.66   -934.27851     102002.7      46.7237      46.7237      46.7237 
  293000    129.00967   -8044.2033   -7248.5625   -704.75742     102002.7      46.7237      46.7237      46.7237 
  294000    126.85816   -8051.8988    -7269.527   -879.46069     102002.7      46.7237      46.7237      46.7237 
  295000    132.31187   -8043.9601   -7227.9536   -734.44128     102002.7      46.7237      46.7237      46.7237 
  296000    132.51861   -8050.9674   -7233.6859     -876.726     102002.7      46.7237      46.7237      46.7237 
  297000     129.6084   -8066.6883    -7267.355   -976.07982     102002.7      46.7237      46.7237      46.7237 
  298000    126.88012      -8050.8   -7268.2927   -754.80802     102002.7      46.7237      46.7237      46.7237 
  299000     131.1345   -8092.2769   -7283.5316   -1211.3238     102002.7      46.7237      46.7237      46.7237 
  300000    129.23361    -8038.705   -7241.6831   -684.15567     102002.7      46.7237      46.7237      46.7237 
  301000    127.26019   -7999.4569   -7214.6057   -474.15878     102002.7      46.7237      46.7237      46.7237 
  302000    128.69977   -8059.4985   -7265.7689   -977.47459     102002.7      46.7237      46.7237      46.7237 
  303000    125.83584   -8078.9841   -7302.9172   -585.52969     102002.7      46.7237      46.7237      46.7237 
  304000    127.19076   -8034.3291    -7249.906   -713.97463     102002.7      46.7237      46.7237      46.7237 
  305000    129.04095   -8033.0632   -7237.2295   -636.58712     102002.7      46.7237      46.7237      46.7237 
  306000      127.425   -8053.2092   -7267.3415    -670.3851     102002.7      46.7237      46.7237      46.7237 
  307000    124.94133    -8082.352   -7311.8018   -861.50269     102002.7      46.7237      46.7237      46.7237 
  308000    128.85723    -8060.607   -7265.9063   -415.92592     102002.7      46.7237      46.7237      46.7237 
  309000    129.22757   -8095.8348   -7298.8501    -525.7499     102002.7      46.7237      46.7237      46.7237 
  310000    133.97508   -8082.1071   -7255.8432   -936.05144     102002.7      46.7237      46.7237      46.7237 
  311000    137.59181   -8078.9267   -7230.3573   -548.97054     102002.7      46.7237      46.7237      46.7237 
  312000    129.93319   -8051.0947   -7249.7583   -824.62847     102002.7      46.7237      46.7237      46.7237 
  313000    130.67324   -8063.4945    -7257.594   -949.53254     102002.7      46.7237      46.7237      46.7237 
  314000    128.57157   -8076.2075   -7283.2686   -817.05868     102002.7      46.7237      46.7237      46.7237 
  315000    130.26953    -8069.759   -7266.3483   -667.83015     102002.7      46.7237      46.7237      46.7237 
  316000    128.53708   -8034.1179   -7241.3917   -716.82053     102002.7      46.7237      46.7237      46.7237 
  317000     129.1203    -8065.722   -7269.3989   -871.01472     102002.7      46.7237      46.7237      46.7237 
  318000    131.36361    -8050.473   -7240.3147   -638.48972     102002.7      46.7237      46.7237      46.7237 
  319000    128.73569   -8074.3886   -7280.4375   -650.42823     102002.7      46.7237      46.7237      46.7237 
  320000    133.34211   -8043.9688   -7221.6086   -872.03808     102002.7      46.7237      46.7237      46.7237 
  321000    129.76816   -8062.0054   -7261.6868   -817.07419     102002.7      46.7237      46.7237      46.7237 
  322000    131.00793   -8044.5552   -7236.5906   -921.61771     102002.7      46.7237      46.7237      46.7237 
  323000    126.07301   -8063.3195     -7285.79   -1015.9812     102002.7      46.7237      46.7237      46.7237 
  324000    129.06706   -8063.1462   -7267.1514   -517.52757     102002.7      46.7237      46.7237      46.7237 
  325000    134.00728   -8049.6501   -7223.1875    -718.9724     102002.7      46.7237      46.7237      46.7237 
  326000    131.42585   -8038.9125   -7228.3704   -616.80242     102002.7      46.7237      46.7237      46.7237 
  327000     132.5607   -8074.7022   -7257.1612    -426.4599     102002.7      46.7237      46.7237      46.7237 
  328000    129.87885   -8074.5527   -7273.5514   -572.15321     102002.7      46.7237      46.7237      46.7237 
  329000    131.03017   -8047.2041   -7239.1022   -677.56837     102002.7      46.7237      46.7237      46.7237 
  330000    131.48694   -8067.5974   -7256.6785   -762.84416     102002.7      46.7237      46.7237      46.7237 
  331000    127.51128   -8049.1198     -7262.72   -566.33264     102002.7      46.7237      46.7237      46.7237 
  332000    132.25082   -8035.2169   -7219.5869   -881.15912     102002.7      46.7237      46.7237      46.7237 
  333000    131.59557   -8061.5744   -7249.9855   -928.64692     102002.7      46.7237      46.7237      46.7237 
  334000    128.71735     -8075.85    -7282.012   -582.24436     102002.7      46.7237      46.7237      46.7237 
  335000    128.16448   -8040.1564   -7249.7281   -915.04076     102002.7      46.7237      46.7237      46.7237 
  336000    130.65944   -8034.6881   -7228.8727   -735.77335     102002.7      46.7237      46.7237      46.7237 
  337000    125.80842   -8038.0881   -7262.1904   -658.56099     102002.7      46.7237      46.7237      46.7237 
  338000    127.92473   -8080.5655   -7291.6158   -1108.5939     102002.7      46.7237      46.7237      46.7237 
  339000    133.17821   -8062.4903   -7241.1409   -794.58276     102002.7      46.7237      46.7237      46.7237 
  340000    125.66007   -8058.0483   -7283.0654   -890.03978     102002.7      46.7237      46.7237      46.7237 
  341000    132.83649   -8059.2125   -7239.9705   -787.30141     102002.7      46.7237      46.7237      46.7237 
  342000    131.60843   -8075.2109   -7263.5427   -785.77868     102002.7      46.7237      46.7237      46.7237 
  343000    132.38797   -8075.8731   -7259.3973   -990.32592     102002.7      46.7237      46.7237      46.7237 
  344000    130.56335   -8110.5743   -7305.3515   -812.36975     102002.7      46.7237      46.7237      46.7237 
  345000    129.59013   -8066.1906     -7266.97   -827.26115     102002.7      46.7237      46.7237      46.7237 
  346000    133.78311   -8052.8998   -7227.8198   -1017.7447     102002.7      46.7237      46.7237      46.7237 
  347000    125.04165   -8074.3548    -7303.186   -641.55634     102002.7      46.7237      46.7237      46.7237 
  348000    131.83569   -8095.1102   -7282.0405   -763.84424     102002.7      46.7237      46.7237      46.7237 
  349000    129.68439   -8074.4584   -7274.6563   -802.67029     102002.7      46.7237      46.7237      46.7237 
  350000    130.25901   -8060.3075   -7256.9617   -640.45322     102002.7      46.7237      46.7237      46.7237 
  351000    127.14589   -8080.1505   -7296.0041   -570.67845     102002.7      46.7237      46.7237      46.7237 
  352000    130.33623   -8059.1709   -7255.3488   -665.86665     102002.7      46.7237      46.7237      46.7237 
  353000    127.88404   -8037.6512   -7248.9525   -780.01227     102002.7      46.7237      46.7237      46.7237 
  354000    125.35858   -8082.7117   -7309.5882   -743.53093     102002.7      46.7237      46.7237      46.7237 
  355000    130.74405   -8055.7769   -7249.4396   -1044.2264     102002.7      46.7237      46.7237      46.7237 
  356000    132.21593   -8078.2362   -7262.8214    -744.4708     102002.7      46.7237      46.7237      46.7237 
  357000    131.93535   -8071.4411   -7257.7567   -541.92949     102002.7      46.7237      46.7237      46.7237 
  358000    127.40713   -8056.8607   -7271.1033    -431.9781     102002.7      46.7237      46.7237      46.7237 
  359000    133.13025   -8050.9302   -7229.8765   -619.71611     102002.7      46.7237      46.7237      46.7237 
  360000      129.726   -8050.2584   -7250.1998   -519.18686     102002.7      46.7237      46.7237      46.7237 
  361000     124.8331   -8089.0582   -7319.1756   -761.96944     102002.7      46.7237      46.7237      46.7237 
  362000    132.82669   -8062.1981   -7243.0165   -389.22678     102002.7      46.7237      46.7237      46.7237 
  363000    127.84278   -8045.8042   -7257.3599   -492.60347     102002.7      46.7237      46.7237      46.7237 
  364000    130.16323   -8081.6379   -7278.8827   -740.47432     102002.7      46.7237      46.7237      46.7237 
  365000    125.81758    -8064.371   -7288.4167   -536.74732     102002.7      46.7237      46.7237      46.7237 
  366000    131.71376   -8054.0752   -7241.7575   -606.25424     102002.7      46.7237      46.7237      46.7237 
  367000    128.57267   -8079.4014   -7286.4557   -830.17534     102002.7      46.7237      46.7237      46.7237 
  368000    129.70037   -8061.3593   -7261.4587   -982.81022     102002.7      46.7237      46.7237      46.7237 
  369000    131.44622   -8068.6276   -7257.9598   -925.64657     102002.7      46.7237      46.7237      46.7237 
  370000    130.86509   -8076.3133   -7269.2295   -642.14513     102002.7      46.7237      46.7237      46.7237 
  371000    130.52585   -8089.0327   -7284.0412   -698.53986     102002.7      46.7237      46.7237      46.7237 
  372000    128.29007   -8084.1712   -7292.9683   -999.36659     102002.7      46.7237      46.7237      46.7237 
  373000    130.08537   -8066.1343   -7263.8593   -877.59057     102002.7      46.7237      46.7237      46.7237 
  374000     131.7858   -8029.4254   -7216.6633   -780.81211     102002.7      46.7237      46.7237      46.7237 
  375000    130.41505   -8095.6587   -7291.3504   -797.32002     102002.7      46.7237      46.7237      46.7237 
  376000    130.08798   -8050.4819   -7248.1908    -563.7429     102002.7      46.7237      46.7237      46.7237 
  377000     125.1351   -8088.4836   -7316.7384   -670.82091     102002.7      46.7237      46.7237      46.7237 
  378000    129.17376    -8080.094   -7283.4412   -871.71226     102002.7      46.7237      46.7237      46.7237 
  379000    127.61911   -8051.6459   -7264.5811   -757.97953     102002.7      46.7237      46.7237      46.7237 
  380000    133.29254   -8060.9982   -7238.9437   -825.49106     102002.7      46.7237      46.7237      46.7237 
  381000    128.78972   -8065.7276   -7271.4433   -971.16431     102002.7      46.7237      46.7237      46.7237 
  382000    129.07288   -8088.9672   -7292.9366   -759.94964     102002.7      46.7237      46.7237      46.7237 
  383000    125.81257   -8081.8046   -7305.8813   -992.44675     102002.7      46.7237      46.7237      46.7237 
  384000    131.10867   -8078.6509    -7270.065   -828.14086     102002.7      46.7237      46.7237      46.7237 
  385000    132.92893   -8062.7924   -7242.9803   -793.72261     102002.7      46.7237      46.7237      46.7237 
  386000    128.70384   -8099.0407    -7305.286     -625.327     102002.7      46.7237      46.7237      46.7237 
  387000    130.23459   -8076.5601   -7273.3649      -842.06     102002.7      46.7237      46.7237      46.7237 
  388000    133.87883   -8056.9234   -7231.2531   -804.79931     102002.7      46.7237      46.7237      46.7237 
  389000    129.93772   -8059.3336   -7257.9692   -800.69199     102002.7      46.7237      46.7237      46.7237 
  390000    129.26669   -8071.6373   -7274.4114   -1104.1933     102002.7      46.7237      46.7237      46.7237 
  391000    129.71977   -8089.2576   -7289.2374   -691.62296     102002.7      46.7237      46.7237      46.7237 
  392000    127.07046   -8053.2844   -7269.6032   -672.04537     102002.7      46.7237      46.7237      46.7237 
  393000    129.24708   -8064.6141   -7267.5091   -475.93814     102002.7      46.7237      46.7237      46.7237 
  394000    127.05918   -8079.4082   -7295.7966   -783.12801     102002.7      46.7237      46.7237      46.7237 
  395000    131.20023   -8076.4512   -7267.3005   -795.99347     102002.7      46.7237      46.7237      46.7237 
  396000    131.88753   -8078.0425    -7264.653   -730.34589     102002.7      46.7237      46.7237      46.7237 
  397000    130.48058   -8064.7514    -7260.039   -728.89666     102002.7      46.7237      46.7237      46.7237 
  398000     128.1411   -8027.4003   -7237.1162   -844.51007     102002.7      46.7237      46.7237      46.7237 
  399000    128.94536   -8075.5348   -7280.2906   -1206.6135     102002.7      46.7237      46.7237      46.7237 
  400000    131.13182   -8065.5725   -7256.8438   -691.73421     102002.7      46.7237      46.7237      46.7237 
  401000    128.44186   -8080.1096   -7287.9706   -838.24696     102002.7      46.7237      46.7237      46.7237 
  402000    132.61913   -8074.0568   -7256.1553   -708.02092     102002.7      46.7237      46.7237      46.7237 
  403000    131.80852   -8069.8316   -7256.9295   -657.29769     102002.7      46.7237      46.7237      46.7237 
  404000    130.89537   -8056.3786   -7249.1082   -729.35188     102002.7      46.7237      46.7237      46.7237 
  405000    130.50873   -8080.7572   -7275.8712   -647.63306     102002.7      46.7237      46.7237      46.7237 
  406000    127.65748    -8062.313   -7275.0115    -655.5634     102002.7      46.7237      46.7237      46.7237 
  407000    128.75098   -8085.7256   -7291.6802    -780.7644     102002.7      46.7237      46.7237      46.7237 
  408000    128.91617   -8070.7099   -7275.6458   -1015.6285     102002.7      46.7237      46.7237      46.7237 
  409000    127.87046   -8071.6314   -7283.0164   -507.77729     102002.7      46.7237      46.7237      46.7237 
  410000    123.57364   -8085.3779   -7323.2626   -860.63186     102002.7      46.7237      46.7237      46.7237 
  411000    130.69062   -8074.8873   -7268.8795   -808.15732     102002.7      46.7237      46.7237      46.7237 
  412000    128.42747   -8081.5292    -7289.479   -766.74114     102002.7      46.7237      46.7237      46.7237 
  413000    129.39246   -8105.7103   -7307.7087   -1024.6605     102002.7      46.7237      46.7237      46.7237 
  414000    128.70427   -8108.7205   -7314.9632   -589.84274     102002.7      46.7237      46.7237      46.7237 
  415000    129.95101   -8070.5366   -7269.0902   -1149.3982     102002.7      46.7237      46.7237      46.7237 
  416000    134.31306   -8078.2823   -7249.9338   -704.90064     102002.7      46.7237      46.7237      46.7237 
  417000    130.18746   -8060.4566    -7257.552    -959.0008     102002.7      46.7237      46.7237      46.7237 
  418000    129.07454   -8103.2855   -7307.2446   -667.36851     102002.7      46.7237      46.7237      46.7237 
  419000    130.83595   -8059.6594   -7252.7554   -790.91999     102002.7      46.7237      46.7237      46.7237 
  420000    127.81938   -8086.3669   -7298.0669    -812.5785     102002.7      46.7237      46.7237      46.7237 
  421000    129.96626   -8061.6204     -7260.08   -702.55558     102002.7      46.7237      46.7237      46.7237 
  422000    129.21617   -8068.0891   -7271.1748   -817.35269     102002.7      46.7237      46.7237      46.7237 
  423000    127.56312   -8039.9518   -7253.2323   -771.33547     102002.7      46.7237      46.7237      46.7237 
  424000    131.83689   -8027.1073   -7214.0302   -680.40121     102002.7      46.7237      46.7237      46.7237 
  425000    130.36352   -8078.1976   -7274.2071   -677.88028     102002.7      46.7237      46.7237      46.7237 
  426000    130.32527   -8071.4675    -7267.713   -920.35683     102002.7      46.7237      46.7237      46.7237 
  427000    126.85185   -8083.7064   -7301.3734   -757.96025     102002.7      46.7237      46.7237      46.7237 
  428000    130.94732   -8051.9528   -7244.3619   -363.41025     102002.7      46.7237      46.7237      46.7237 
  429000    128.07735   -8090.8042   -7300.9132   -1044.9297     102002.7      46.7237      46.7237      46.7237 
  430000    136.00827   -8050.1015   -7211.2983   -806.02086     102002.7      46.7237      46.7237      46.7237 
  431000     127.6945   -8049.9341   -7262.4043   -858.79653     102002.7      46.7237      46.7237      46.7237 
  432000    128.89219   -8075.6934   -7280.7771   -1012.3052     102002.7      46.7237      46.7237      46.7237 
  433000    129.51828   -8037.9773   -7239.1997   -678.61476     102002.7      46.7237      46.7237      46.7237 
  434000    129.61953   -8055.9467   -7256.5447   -727.54174     102002.7      46.7237      46.7237      46.7237 
  435000    131.37915   -8068.8676   -7258.6135   -991.97028     102002.7      46.7237      46.7237      46.7237 
  436000    132.29256   -8058.5315   -7242.6441   -1043.8619     102002.7      46.7237      46.7237      46.7237 
  437000    131.60225   -8084.7017   -7273.0717   -766.06682     102002.7      46.7237      46.7237      46.7237 
  438000    131.22899   -8043.6518   -7234.3238   -677.35851     102002.7      46.7237      46.7237      46.7237 
  439000    130.32721   -8057.9538   -7254.1873   -504.03849     102002.7      46.7237      46.7237      46.7237 
  440000    131.68717   -8066.7212   -7254.5674    -769.4897     102002.7      46.7237      46.7237      46.7237 
  441000     127.3887   -8090.4948    -7304.851   -869.92462     102002.7      46.7237      46.7237      46.7237 
  442000    129.48483   -8072.8596   -7274.2883   -1012.1761     102002.7      46.7237      46.7237      46.7237 
  443000    130.54135   -8075.3398   -7270.2527   -876.01495     102002.7      46.7237      46.7237      46.7237 
  444000    134.54907   -8075.8308   -7246.0268   -861.18831     102002.7      46.7237      46.7237      46.7237 
  445000    128.70412   -8085.7029   -7291.9465   -698.47298     102002.7      46.7237      46.7237      46.7237 
  446000    131.86165   -8068.8027   -7255.5729   -789.78034     102002.7      46.7237      46.7237      46.7237 
  447000    131.89191   -8047.4257   -7234.0092   -731.93244     102002.7      46.7237      46.7237      46.7237 
  448000    128.67508    -8062.332   -7268.7547   -724.06648     102002.7      46.7237      46.7237      46.7237 
  449000    128.36614   -8060.7603   -7269.0883   -632.59519     102002.7      46.7237      46.7237      46.7237 
  450000    133.47178     -8070.45   -7247.2901   -843.33433     102002.7      46.7237      46.7237      46.7237 
  451000    128.35518   -8068.4717   -7276.8673     -741.118     102002.7      46.7237      46.7237      46.7237 
  452000    128.73911   -8098.0132    -7304.041   -631.14345     102002.7      46.7237      46.7237      46.7237 
  453000    127.99611   -8045.5443   -7256.1544   -927.41446     102002.7      46.7237      46.7237      46.7237 
  454000    127.34767   -8034.2417    -7248.851   -849.25709     102002.7      46.7237      46.7237      46.7237 
  455000    129.88112    -8067.822   -7266.8067   -871.77769     102002.7      46.7237      46.7237      46.7237 
  456000    126.70816   -8069.0706   -7287.6238    -744.7645     102002.7      46.7237      46.7237      46.7237 
  457000    133.50774   -8059.1434   -7235.7616   -534.32294     102002.7      46.7237      46.7237      46.7237 
  458000    125.90952   -8065.0679   -7288.5466    -632.1229     102002.7      46.7237      46.7237      46.7237 
  459000    127.44216   -8075.3263   -7289.3528   -797.94565     102002.7      46.7237      46.7237      46.7237 
  460000    130.95152   -8076.9291   -7269.3123   -772.92789     102002.7      46.7237      46.7237      46.7237 
  461000    131.17921   -8081.2637   -7272.2427   -230.30753     102002.7      46.7237      46.7237      46.7237 
  462000    130.03911   -8085.3441   -7283.3544   -829.07412     102002.7      46.7237      46.7237      46.7237 
  463000    128.60102   -8043.1893   -7250.0687   -336.90732     102002.7      46.7237      46.7237      46.7237 
  464000    130.28029   -8075.7745   -7272.2974   -477.06367     102002.7      46.7237      46.7237      46.7237 
  465000    127.71159   -8078.9134   -7291.2782   -521.13442     102002.7      46.7237      46.7237      46.7237 
  466000    129.99321   -8069.0632   -7267.3566   -538.54166     102002.7      46.7237      46.7237      46.7237 
  467000    128.39307   -8061.6424   -7269.8043   -883.06685     102002.7      46.7237      46.7237      46.7237 
  468000    129.62792   -8053.8668    -7254.413   -284.08622     102002.7      46.7237      46.7237      46.7237 
  469000     132.2851   -8107.2716   -7291.4302    -456.6808     102002.7      46.7237      46.7237      46.7237 
  470000    128.78714   -8052.4544    -7258.186     -368.456     102002.7      46.7237      46.7237      46.7237 
  471000     130.1882   -8068.0239   -7265.1147   -548.87802     102002.7      46.7237      46.7237      46.7237 
  472000    134.78301   -8078.6715   -7247.4248   -876.63483     102002.7      46.7237      46.7237      46.7237 
  473000    131.56639   -8057.8349    -7246.426   -147.58476     102002.7      46.7237      46.7237      46.7237 
  474000    127.56052    -8058.383   -7271.6795   -756.53247     102002.7      46.7237      46.7237      46.7237 
  475000    134.12028   -8056.3404    -7229.181   -906.30082     102002.7      46.7237      46.7237      46.7237 
  476000    130.73522   -8040.1715   -7233.8886   -715.51494     102002.7      46.7237      46.7237      46.7237 
  477000    127.86823   -8068.2475   -7279.6463   -709.58365     102002.7      46.7237      46.7237      46.7237 
  478000    132.35622   -8036.9839   -7220.7038   -974.06648     102002.7      46.7237      46.7237      46.7237 
  479000    135.02626   -8075.6586   -7242.9117   -700.62513     102002.7      46.7237      46.7237      46.7237 
  480000    130.34749   -8081.1467   -7277.2552   -791.11687     102002.7      46.7237      46.7237      46.7237 
  481000    127.32481   -8071.3439   -7286.0941   -737.76614     102002.7      46.7237      46.7237      46.7237 
  482000    127.55174   -8061.7148   -7275.0654   -853.24288     102002.7      46.7237      46.7237      46.7237 
  483000    128.11423   -8080.4186   -7290.3003   -929.62263     102002.7      46.7237      46.7237      46.7237 
  484000     130.4175   -8066.1746   -7261.8513   -1031.7257     102002.7      46.7237      46.7237      46.7237 
  485000    131.15916    -8087.122   -7278.2246    -771.0875     102002.7      46.7237      46.7237      46.7237 
  486000    127.71642   -8049.8627   -7262.1977    -726.5959     102002.7      46.7237      46.7237      46.7237 
  487000    127.88473   -8047.7136   -7259.0106   -1013.8371     102002.7      46.7237      46.7237      46.7237 
  488000    129.01831   -8063.0128   -7267.3187   -610.73416     102002.7      46.7237      46.7237      46.7237 
  489000    131.06412   -8066.8864   -7258.5752   -883.51461     102002.7      46.7237      46.7237      46.7237 
  490000    131.66745   -8071.2762   -7259.2441    -955.8602     102002.7      46.7237      46.7237      46.7237 
  491000    129.57523   -8092.2972   -7293.1684   -742.29241     102002.7      46.7237      46.7237      46.7237 
  492000    131.69954   -8081.6347   -7269.4047   -829.25871     102002.7      46.7237      46.7237      46.7237 
  493000     129.4896   -8077.8114   -7279.2107   -793.40999     102002.7      46.7237      46.7237      46.7237 
  494000    134.86303   -8045.2659   -7213.5256   -911.20701     102002.7      46.7237      46.7237      46.7237 
  495000    129.11276   -8074.1303   -7277.8537   -599.76573     102002.7      46.7237      46.7237      46.7237 
  496000    129.59457   -8048.4762   -7249.2281   -865.37274     102002.7      46.7237      46.7237      46.7237 
  497000    130.99986    -8070.892   -7262.9771   -921.64854     102002.7      46.7237      46.7237      46.7237 
  498000    128.68155   -8061.2132    -7267.596   -886.12135     102002.7      46.7237      46.7237      46.7237 
  499000    126.86373   -8088.6587   -7306.2526   -651.71419     102002.7      46.7237      46.7237      46.7237 
  500000    128.89499    -8047.731   -7252.7974   -1077.5448     102002.7      46.7237      46.7237      46.7237 
  500501    130.48279   -8071.9561   -7267.2301   -792.05832     102002.7      46.7237      46.7237      46.7237 
Loop time of 1353.07 on 16 procs for 500000 steps with 2070 atoms

Performance: 31.927 ns/day, 0.752 hours/ns, 369.530 timesteps/s
99.8% CPU use with 16 MPI tasks x no OpenMP threads

MPI task timing breakdown:
Section |  min time  |  avg time  |  max time  |%varavg| %total
---------------------------------------------------------------
Pair    | 627.46     | 777.49     | 924.31     | 335.7 | 57.46
Bond    | 150.27     | 174.28     | 196.67     | 123.3 | 12.88
Neigh   | 8.0041     | 8.0673     | 8.1755     |   2.2 |  0.60
Comm    | 233.75     | 379.25     | 515.64     | 439.1 | 28.03
Output  | 0.020427   | 0.020877   | 0.023713   |   0.5 |  0.00
Modify  | 7.7992     | 8.4666     | 9.3821     |  17.7 |  0.63
Other   |            | 5.498      |            |       |  0.41

Nlocal:    129.375 ave 155 max 95 min
Histogram: 1 2 1 2 0 2 1 0 3 4
Nghost:    2625.69 ave 2670 max 2596 min
Histogram: 3 3 2 0 2 1 1 2 0 2
Neighs:    11474.3 ave 14367 max 9154 min
Histogram: 1 2 0 4 2 4 1 0 1 1

Total # of neighbors = 183589
Ave neighs/atom = 88.6903
Ave special neighs/atom = 5.56522
Neighbor list builds = 4843
Dangerous builds = 0
Neighbor list info ...
  update every 1 steps, delay 10 steps, check yes
  max neighbors/atom: 2000, page size: 100000
  master list distance cutoff = 16
  ghost atom cutoff = 16
  binsize = 8, bins = 6 6 6
  3 neighbor lists, perpetual/occasional/extra = 3 0 0
  (1) pair buck6d/coul/gauss/dsf, perpetual, skip from (3)
      attributes: half, newton on
      pair build: skip
      stencil: none
      bin: none
  (2) pair lj/cut, perpetual, skip from (3)
      attributes: half, newton on
      pair build: skip
      stencil: none
      bin: none
  (3) neighbor class addition, perpetual
      attributes: half, newton on
      pair build: half/bin/newton
      stencil: half/bin/3d/newton
      bin: standard
Setting up Verlet run ...
  Unit style    : real
  Current step  : 500501
  Time step     : 1
WARNING: Inconsistent image flags (../domain.cpp:786)
Per MPI rank memory allocation (min/avg/max) = 23.17 | 23.34 | 23.37 Mbytes
Step Time TotEng KinEng PotEng E_mol E_pair Temp Pxx Pyy Pzz Pxy Pxz Pyz Cella Cellb Cellc CellAlpha CellBeta CellGamma Volume Press 
  500501       500000   -7267.2301    804.72599   -8071.9561    4377.7973   -12449.753    130.48279   -707.71247    -576.7859   -1091.6766    187.85645    -195.1231    311.13801      46.7237      46.7237      46.7237           90           90           90     102002.7   -792.05832 
  501000       500499    -7255.335    800.62515   -8055.9602    4382.5809   -12438.541    129.81786   -1206.3274   -1110.9661   -517.18206    8.1992722    -232.0447    91.815298      46.7237      46.7237      46.7237           90           90           90     102002.7   -944.82522 
  502000       501499   -7262.1021    806.16918   -8068.2713    4375.2294   -12443.501     130.7168   -832.99124   -710.75731    -777.6241   -49.339054   -213.94778   -79.355312      46.7237      46.7237      46.7237           90           90           90     102002.7   -773.79089 
  503000       502499   -7300.7548    775.88794   -8076.6427    4371.4244   -12448.067    125.80683   -878.22951   -858.83652   -1186.9731    27.561883    -76.54294   -132.38904      46.7237      46.7237      46.7237           90           90           90     102002.7   -974.67972 
  504000       503499   -7282.4772    790.85359   -8073.3308    4383.2269   -12456.558    128.23344   -802.64275   -920.38374   -861.55948    31.492015   -234.15214   -352.34574      46.7237      46.7237      46.7237           90           90           90     102002.7   -861.52866 
  505000       504499   -7251.2831    818.84181   -8070.1249    4386.3711   -12456.496    132.77161   -1277.1644   -843.82765   -1430.1804    241.73512   -79.529208   -145.28125      46.7237      46.7237      46.7237           90           90           90     102002.7   -1183.7242 
  506000       505499   -7235.8777    804.75997   -8040.6377    4406.5124    -12447.15     130.4883   -1119.1159   -1225.5344   -1325.5318   -120.24584    56.752308    44.512487      46.7237      46.7237      46.7237           90           90           90     102002.7   -1223.3941 
  507000       506499   -7288.5733    796.85936   -8085.4327    4388.8237   -12474.256    129.20725   -635.27809   -1163.3303   -774.74742   -10.101184    28.564977    98.430744      46.7237      46.7237      46.7237           90           90           90     102002.7   -857.78527 
  508000       507499   -7242.9423    814.18827   -8057.1306    4380.5104   -12437.641    132.01706   -802.23831   -531.32824   -934.52536    113.50699    154.71447   -29.609654      46.7237      46.7237      46.7237           90           90           90     102002.7   -756.03064 
  509000       508499   -7232.5247    829.29485   -8061.8196    4383.8276   -12445.647    134.46652   -731.30609    -844.9809   -801.06357    119.97553   -168.56495   -20.133004      46.7237      46.7237      46.7237           90           90           90     102002.7   -792.45019 
  510000       509499   -7274.7543    790.28408   -8065.0384    4370.1848   -12435.223     128.1411   -374.11981   -737.59011   -347.21484    89.038887   -341.94822    23.348134      46.7237      46.7237      46.7237           90           90           90     102002.7   -486.30825 
  511000       510499    -7248.479    811.24125   -8059.7203    4395.9864   -12455.707    131.53921   -715.46731    -957.7216   -664.75553    -129.4134    9.7431069    30.983425      46.7237      46.7237      46.7237           90           90           90     102002.7   -779.31482 
  512000       511499   -7267.5225     819.3476   -8086.8701    4365.6871   -12452.557    132.85362    -917.8764   -1127.6181   -990.11039    -11.46862     145.9468   -12.222539      46.7237      46.7237      46.7237           90           90           90     102002.7   -1011.8683 
  513000       512499   -7233.8304    799.75643   -8033.5868    4403.6161   -12437.203      129.677   -439.16797   -48.832837   -765.08996    116.32829   -126.25486     38.54823      46.7237      46.7237      46.7237           90           90           90     102002.7   -417.69693 
  514000       513499   -7226.0493    801.46486   -8027.5142    4402.3483   -12429.863    129.95401   -486.80926   -808.86987   -688.05471    124.61559    182.61202     -208.128      46.7237      46.7237      46.7237           90           90           90     102002.7   -661.24462 
  515000       514499   -7231.5289    788.64274   -8020.1717    4407.5491   -12427.721    127.87496   -1142.9659   -568.46953   -363.19076   -204.76987    13.893884   -176.08263      46.7237      46.7237      46.7237           90           90           90     102002.7   -691.54205 
  516000       515499   -7259.9363    822.56894   -8082.5052    4377.4996   -12460.005    133.37595   -746.41735   -548.79058   -998.91301    245.40358     226.7011   -233.43213      46.7237      46.7237      46.7237           90           90           90     102002.7   -764.70698 
  517000       516499   -7244.4068    800.63969   -8045.0465    4388.7591   -12433.806    129.82022   -388.49423   -804.60146   -761.35112   -118.33964    94.182103    220.33708      46.7237      46.7237      46.7237           90           90           90     102002.7   -651.48227 
  518000       517499   -7235.8743     818.0306   -8053.9049    4376.8445   -12430.749    132.64007   -553.09258   -407.02122   -309.31476   -21.974838   -212.18315    375.61193      46.7237      46.7237      46.7237           90           90           90     102002.7   -423.14286 
  519000       518499     -7238.11    811.56698    -8049.677     4374.917   -12424.594    131.59203   -643.17816   -658.12782   -625.20326   -28.027338   -406.17513   -121.60595      46.7237      46.7237      46.7237           90           90           90     102002.7   -642.16975 
  520000       519499   -7283.0473    792.45408   -8075.5014    4356.5881   -12432.089    128.49295    -718.8238   -1039.5857   -414.73932   -89.827343   -93.804835    10.393493      46.7237      46.7237      46.7237           90           90           90     102002.7   -724.38294 
  521000       520499   -7275.0225    783.21125   -8058.2337     4371.154   -12429.388    126.99427    -569.7676   -888.48954   -783.43841    185.88678    14.978439    34.812969      46.7237      46.7237      46.7237           90           90           90     102002.7   -747.23185 
  522000       521499   -7224.7105    798.40392   -8023.1144    4385.9289   -12409.043    129.45769   -757.06188   -723.63803   -369.10464   -141.87784    58.030311    118.84487      46.7237      46.7237      46.7237           90           90           90     102002.7   -616.60152 
  523000       522499   -7270.4895    802.47904   -8072.9686     4371.566   -12444.535    130.11846   -666.86448   -839.62019    -644.8526   -141.32833   -33.705019   -206.71759      46.7237      46.7237      46.7237           90           90           90     102002.7   -717.11243 
  524000       523499   -7282.2604     786.4602   -8068.7206    4358.1235   -12426.844    127.52107   -290.82064   -973.39475   -593.66836   -22.650329    139.10516   -3.3332304      46.7237      46.7237      46.7237           90           90           90     102002.7   -619.29458 
  525000       524499   -7277.4023     788.9851   -8066.3874    4363.1671   -12429.555    127.93047   -713.37724   -1079.9492   -1161.3934   -41.316957    48.152006   -121.16005      46.7237      46.7237      46.7237           90           90           90     102002.7   -984.90659 
  526000       525499   -7271.0963    791.34588   -8062.4421    4399.3246   -12461.767    128.31326   -680.63439   -989.72691   -181.44335    22.912654    354.88738    150.24652      46.7237      46.7237      46.7237           90           90           90     102002.7   -617.26822 
  527000       526499   -7285.4773    785.46637   -8070.9437    4375.4936   -12446.437    127.35993   -593.75486   -781.16152    -1057.368   -94.018008    292.59925   -53.884624      46.7237      46.7237      46.7237           90           90           90     102002.7   -810.76146 
  528000       527499   -7234.8631    810.15093   -8045.0141    4396.0439   -12441.058    131.36242   -701.37286   -967.98475    -582.9874    59.428314    277.44831    84.087472      46.7237      46.7237      46.7237           90           90           90     102002.7   -750.78167 
  529000       528499   -7270.6135    801.44679   -8072.0603    4389.1629   -12461.223    129.95108   -875.86392   -304.04161   -602.65366    153.14249    67.590417    40.779957      46.7237      46.7237      46.7237           90           90           90     102002.7   -594.18639 
  530000       529499   -7238.0956    796.03699   -8034.1326    4415.2489   -12449.381    129.07391   -1210.7976   -840.45601   -1225.5521    50.549446   -6.4681669    -228.3248      46.7237      46.7237      46.7237           90           90           90     102002.7   -1092.2686 
  531000       530499   -7255.1743    785.36966   -8040.5439    4377.3032   -12417.847    127.34425   -759.49924    -599.8419   -346.74468   -178.18451   -207.62918    128.66051      46.7237      46.7237      46.7237           90           90           90     102002.7   -568.69527 
  532000       531499   -7254.8057    813.00762   -8067.8133    4359.7479   -12427.561    131.82562   -873.38518   -1007.8582   -578.80643   -53.549688    141.40597   -148.79364      46.7237      46.7237      46.7237           90           90           90     102002.7   -820.01661 
  533000       532499   -7255.6405    814.08858   -8069.7291    4398.0739   -12467.803    132.00089   -682.85232   -574.29988   -678.71751    -77.65131   -56.612829    119.49096      46.7237      46.7237      46.7237           90           90           90     102002.7    -645.2899 
  534000       533499   -7289.9662    787.88813   -8077.8543    4362.6941   -12440.548    127.75261   -634.62617   -132.93572   -712.57747   -262.43206    20.699619    285.27336      46.7237      46.7237      46.7237           90           90           90     102002.7   -493.37979 
  535000       534499   -7260.8484    793.25357   -8054.1019    4381.1249   -12435.227    128.62259   -910.09645   -1029.7951   -576.05866    10.021963    148.42195    120.31907      46.7237      46.7237      46.7237           90           90           90     102002.7   -838.65006 
  536000       535499   -7273.0675    797.84214   -8070.9096    4380.2547   -12451.164     129.3666    -738.5474   -462.41511    -634.4023   -171.84138    21.583659    87.131599      46.7237      46.7237      46.7237           90           90           90     102002.7   -611.78827 
  537000       536499   -7276.2554     785.6328   -8061.8882    4382.1142   -12444.002    127.38691   -507.12799   -574.65454   -1013.3197   -196.22023    2.3873627    228.95011      46.7237      46.7237      46.7237           90           90           90     102002.7   -698.36742 
  538000       537499   -7229.9079    802.32569   -8032.2335    4399.5475   -12431.781    130.09359    -828.8667   -225.77039   -1129.7009    203.00403    89.109691    122.15541      46.7237      46.7237      46.7237           90           90           90     102002.7   -728.11265 
  539000       538499   -7263.9525     824.3778   -8088.3303    4365.7454   -12454.076    133.66925     -632.528   -730.31598    -759.8675   -44.516354   -280.16317    133.83496      46.7237      46.7237      46.7237           90           90           90     102002.7   -707.57049 
  540000       539499   -7281.0878    793.59386   -8074.6817    4380.0912   -12454.773    128.67776   -487.17394   -744.42379   -799.21527    169.31652   -25.403636   -142.46126      46.7237      46.7237      46.7237           90           90           90     102002.7   -676.93767 
  541000       540499   -7267.6133    805.70101   -8073.3144    4372.3354    -12445.65    130.64089   -817.54072   -1099.4078   -691.34403    199.43494    148.21217   -78.772689      46.7237      46.7237      46.7237           90           90           90     102002.7   -869.43084 
  542000       541499   -7284.8622    804.04359   -8088.9058    4366.5126   -12455.418    130.37214   -403.09353      -975.01   -796.58194    214.28337    82.803852    29.349874      46.7237      46.7237      46.7237           90           90           90     102002.7   -724.89515 
  543000       542499   -7257.3334    809.36306   -8066.6965    4383.4758   -12450.172    131.23467   -802.08834   -509.77896   -881.66517   -16.993188   -142.79686   -124.10391      46.7237      46.7237      46.7237           90           90           90     102002.7   -731.17749 
  544000       543499   -7218.6111    822.87508   -8041.4862    4388.9788   -12430.465    133.42559   -828.68168   -974.47711   -800.59345   -6.7957788   -125.79728   -240.82632      46.7237      46.7237      46.7237           90           90           90     102002.7   -867.91742 
  545000       544499   -7223.9947    818.10079   -8042.0955    4427.2375   -12469.333    132.65146   -666.08202   -421.16512   -1153.0859   -213.65805   -36.454989   -72.664929      46.7237      46.7237      46.7237           90           90           90     102002.7   -746.77768 
  546000       545499    -7246.044    818.51549   -8064.5594    4385.1854   -12449.745     132.7187   -1062.9784   -469.04719   -804.37023   -59.961937   -73.160798    96.014093      46.7237      46.7237      46.7237           90           90           90     102002.7   -778.79861 
  547000       546499   -7259.6486     812.6531   -8072.3017    4373.7566   -12446.058    131.76814   -958.00339   -1073.6228   -605.01763   -104.66469    15.998967   -73.236473      46.7237      46.7237      46.7237           90           90           90     102002.7   -878.88126 
  548000       547499   -7230.6312    812.68234   -8043.3135    4392.9388   -12436.252    131.77288   -575.16842   -708.02233   -925.97911    176.37838   -57.101892   -80.815999      46.7237      46.7237      46.7237           90           90           90     102002.7   -736.38995 
  549000       548499   -7269.9099    806.64574   -8076.5556    4367.2138   -12443.769    130.79407   -727.46958   -52.151669   -619.63942    65.469274     -98.2092    201.44252      46.7237      46.7237      46.7237           90           90           90     102002.7   -466.42023 
  550000       549499    -7259.944    804.50727   -8064.4513    4401.6554   -12466.107    130.44733   -1130.0565   -864.75481   -1070.1979   -134.96828   -131.95922   -224.99818      46.7237      46.7237      46.7237           90           90           90     102002.7   -1021.6697 
  551000       550499   -7265.0131    796.35805   -8061.3711    4395.7779   -12457.149    129.12597    -212.2721   -520.82528   -695.38597    100.17439   -28.877575   -126.87148      46.7237      46.7237      46.7237           90           90           90     102002.7   -476.16111 
  552000       551499   -7311.5855    775.82275   -8087.4082    4368.3619    -12455.77    125.79626    -820.2403   -775.39061   -665.10296    196.16244    54.668985   -63.103627      46.7237      46.7237      46.7237           90           90           90     102002.7   -753.57796 
  553000       552499   -7254.1648    819.36682   -8073.5316     4380.774   -12454.306    132.85674   -413.67396    130.62875   -695.11133   -222.01061    -82.31977   -283.54362      46.7237      46.7237      46.7237           90           90           90     102002.7   -326.05218 
  554000       553499   -7334.7942    780.42206   -8115.2163    4346.2394   -12461.456    126.54202   -794.56954   -470.76957     -246.549   -169.23263    12.049307   -173.12839      46.7237      46.7237      46.7237           90           90           90     102002.7    -503.9627 
  555000       554499    -7264.076    807.13707   -8071.2131    4381.9428   -12453.156    130.87374   -1099.8799   -583.72392   -184.84446    114.70102     99.59586   -142.10648      46.7237      46.7237      46.7237           90           90           90     102002.7   -622.81609 
[...]
  936000       935499   -7246.8471    775.63696    -8022.484    4403.8448   -12426.329    125.76613    -740.7541    -261.0312    -513.9259    -279.9831    237.27529   -231.30445      46.7237      46.7237      46.7237           90           90           90     102002.7   -505.23707 
  937000       936499   -7256.9738    785.64478   -8042.6186    4423.2883   -12465.907    127.38886   -814.29687   -164.04754    -1063.804    -20.99535     10.39804    97.080258      46.7237      46.7237      46.7237           90           90           90     102002.7   -680.71615 
  938000       937499    -7298.328    779.44547   -8077.7735    4375.1959   -12452.969    126.38366   -958.69868   -642.24175   -566.17239   -96.681999    14.493589    166.85711      46.7237      46.7237      46.7237           90           90           90     102002.7   -722.37094 
  939000       938499   -7256.9777    789.14778   -8046.1255    4393.6594   -12439.785    127.95685   -832.66293    -790.4466   -822.93841    44.861501    48.192287   -82.405525      46.7237      46.7237      46.7237           90           90           90     102002.7   -815.34931 
  940000       939499   -7239.4114    829.23839   -8068.6498    4380.4832   -12449.133    134.45737   -1065.6118   -470.31077   -881.63429   -48.182843   -255.16895   -183.17765      46.7237      46.7237      46.7237           90           90           90     102002.7   -805.85229 
  941000       940499   -7291.0958    786.96655   -8078.0624     4370.308    -12448.37    127.60317   -341.28746   -974.12203   -1165.4936    125.12063   -51.418055   -204.67503      46.7237      46.7237      46.7237           90           90           90     102002.7   -826.96771 
  942000       941499   -7231.4824    817.78041   -8049.2628    4392.6879   -12441.951    132.59951   -744.17516      -433.87   -1205.0325   -58.945799   -90.660928   -396.00011      46.7237      46.7237      46.7237           90           90           90     102002.7   -794.35923 
  943000       942499   -7263.3844    786.85301   -8050.2374    4392.0199   -12442.257    127.58476   -1247.7328   -845.28795   -448.44622   -142.97861   -186.56861    140.82023      46.7237      46.7237      46.7237           90           90           90     102002.7   -847.15564 
  944000       943499   -7275.5079    800.92971   -8076.4376    4361.1579   -12437.596    129.86724   -537.77025     -890.732   -1027.4453     110.4076    5.3786886    150.86903      46.7237      46.7237      46.7237           90           90           90     102002.7   -818.64917 
  945000       944499   -7251.9075    807.36507   -8059.2726    4389.6082   -12448.881    130.91071   -1052.8456   -890.43405   -932.54304    300.59214    298.72643    139.63957      46.7237      46.7237      46.7237           90           90           90     102002.7   -958.60757 
  946000       945499     -7273.83    780.91093   -8054.7409     4388.511   -12443.252    126.62128   -1348.0794   -495.02101   -514.07769    67.620819    121.00748   -53.542784      46.7237      46.7237      46.7237           90           90           90     102002.7   -785.72603 
  947000       946499   -7252.8776    795.35655   -8048.2341    4403.2992   -12451.533    128.96358   -769.65506   -695.45546   -656.45175    115.90343   -253.27056   -85.218578      46.7237      46.7237      46.7237           90           90           90     102002.7   -707.18742 
  948000       947499   -7269.1201    798.70373   -8067.8238    4371.4727   -12439.297    129.50631   -765.28671   -786.87588   -1059.3007   -52.710817   -117.91279    468.40346      46.7237      46.7237      46.7237           90           90           90     102002.7   -870.48776 
  949000       948499   -7261.5084    801.86867   -8063.3771    4385.5951   -12448.972    130.01949   -741.43272   -822.88255   -748.77207    36.507477    200.36218    65.583378      46.7237      46.7237      46.7237           90           90           90     102002.7   -771.02911 
  950000       949499   -7230.6919    809.47823   -8040.1701    4403.2703    -12443.44    131.25335   -697.97491   -589.47617   -511.37834    2.8157376   -38.452519   -226.09926      46.7237      46.7237      46.7237           90           90           90     102002.7   -599.60981 
  951000       950499   -7269.4402    810.29806   -8079.7383    4366.4396   -12446.178    131.38628   -441.92164    -721.0906   -201.14526   -151.33357    55.208927    -53.49267      46.7237      46.7237      46.7237           90           90           90     102002.7   -454.71917 
  952000       951499   -7291.3114    808.54453   -8099.8559    4368.8677   -12468.724    131.10195   -1038.5911   -920.56037   -944.52423    30.639797      28.3388    88.568763      46.7237      46.7237      46.7237           90           90           90     102002.7   -967.89192 
  953000       952499   -7290.0982    807.64268   -8097.7409    4351.4375   -12449.178    130.95572   -929.94046   -598.46095   -540.44798    177.26819    86.313284   -72.048984      46.7237      46.7237      46.7237           90           90           90     102002.7   -689.61646 
  954000       953499   -7258.6923    805.48424   -8064.1765    4383.0603   -12447.237    130.60574   -609.01614   -483.50214   -200.66975   -137.31768    177.24265   -276.45984      46.7237      46.7237      46.7237           90           90           90     102002.7   -431.06267 
  955000       954499   -7267.5281    789.79439   -8057.3225    4394.7603   -12452.083     128.0617   -621.31209   -1021.9955   -212.04257   -325.92354   -241.93691   -127.02752      46.7237      46.7237      46.7237           90           90           90     102002.7   -618.45005 
  956000       955499    -7300.425    794.41281   -8094.8378    4365.4014   -12460.239    128.81055   -578.77426   -897.82437   -603.64978   -116.60889   -24.048861    -43.74356      46.7237      46.7237      46.7237           90           90           90     102002.7   -693.41614 
  957000       956499   -7240.9955    796.05298   -8037.0485    4425.5304   -12462.579     129.0765   -1305.2565   -876.87502   -1103.2061    241.47952     258.0673    103.60226      46.7237      46.7237      46.7237           90           90           90     102002.7   -1095.1126 
  958000       957499   -7290.0506    785.28811   -8075.3387    4379.1734   -12454.512    127.33102   -438.59194   -1051.0956   -1322.1545   -240.93185   -12.683067    163.10685      46.7237      46.7237      46.7237           90           90           90     102002.7   -937.28066 
  959000       958499   -7281.3694    800.70173   -8082.0711     4399.299    -12481.37    129.83027   -1208.5253   -753.70882   -963.71129   -206.72547    132.64557    60.526632      46.7237      46.7237      46.7237           90           90           90     102002.7   -975.31515 
  960000       959499   -7267.6324    801.06663    -8068.699    4375.1212    -12443.82    129.88944   -1420.4583   -380.30281   -586.09027    95.370714    -74.51551    -391.8466      46.7237      46.7237      46.7237           90           90           90     102002.7   -795.61714 
  961000       960499   -7280.7655    798.29076   -8079.0563    4358.7969   -12437.853    129.43935   -900.62197   -710.61823   -880.81296    341.17958    164.56905    -238.5301      46.7237      46.7237      46.7237           90           90           90     102002.7   -830.68439 
  962000       961499   -7269.6062    813.83218   -8083.4384    4380.4141   -12463.853    131.95932   -1256.5038   -712.13902   -654.05576   -145.37836    82.010789   -121.09911      46.7237      46.7237      46.7237           90           90           90     102002.7   -874.23285 
  963000       962499    -7222.012    809.10571   -8031.1178    4403.3042   -12434.422    131.19294   -694.03286   -589.01675   -514.02881    75.319814    402.99441   -13.149528      46.7237      46.7237      46.7237           90           90           90     102002.7   -599.02614 
  964000       963499   -7279.3783    781.77251   -8061.1508    4389.8515   -12451.002    126.76098   -636.20606   -608.24637   -639.77417   -49.153553    14.118192    70.186842      46.7237      46.7237      46.7237           90           90           90     102002.7   -628.07553 
  965000       964499   -7286.3748    795.42019    -8081.795      4389.73   -12471.525     128.9739   -947.87767   -322.07981   -992.81676   -26.180678   -227.75278    328.53209      46.7237      46.7237      46.7237           90           90           90     102002.7   -754.25808 
  966000       965499   -7293.8089    803.36215    -8097.171    4385.6975   -12482.869    130.26165   -509.67001   -896.13107   -633.62951   -158.22569    60.015458   -382.05236      46.7237      46.7237      46.7237           90           90           90     102002.7    -679.8102 
  967000       966499   -7270.4483    782.88756   -8053.3359    4423.1566   -12476.492    126.94179   -970.63989   -790.96014   -420.29524   -150.01351    310.30249   -145.17343      46.7237      46.7237      46.7237           90           90           90     102002.7   -727.29842 
  968000       967499   -7249.7549    824.97229   -8074.7272    4382.9133    -12457.64    133.76564   -843.89741   -661.48669   -524.28798    292.11539   -224.98826    45.956301      46.7237      46.7237      46.7237           90           90           90     102002.7   -676.55736 
  969000       968499   -7258.2491    822.21187   -8080.4609    4372.1327   -12452.594    133.31805   -1585.4958   -831.20837   -1036.6302   -250.29018   -130.91089    57.607634      46.7237      46.7237      46.7237           90           90           90     102002.7   -1151.1115 
  970000       969499   -7275.0339    796.66526   -8071.6992    4381.7971   -12453.496    129.17578   -872.61638   -791.65893   -893.10112    69.744864     111.0975   -231.62368      46.7237      46.7237      46.7237           90           90           90     102002.7   -852.45881 
  971000       970499   -7275.6762    792.63232   -8068.3086    4386.9751   -12455.284    128.52186    -879.4431   -1030.1256   -842.97723    69.431861    9.1552984   -49.194987      46.7237      46.7237      46.7237           90           90           90     102002.7    -917.5153 
  972000       971499   -7299.0947    786.02849   -8085.1231    4364.8283   -12449.951    127.45107   -1280.1432   -848.07192   -1116.8659   -55.432367    97.291534   -1.0316183      46.7237      46.7237      46.7237           90           90           90     102002.7   -1081.6937 
  973000       972499   -7271.5117    793.68876   -8065.2004    4372.8998     -12438.1    128.69315   -635.19778   -558.72463   -737.19102    227.21452    62.666352   -170.24318      46.7237      46.7237      46.7237           90           90           90     102002.7   -643.70448 
  974000       973499   -7255.0696    811.72415   -8066.7937    4399.8082   -12466.602    131.61751   -1033.7778   -1104.7878   -1174.1238    46.929984    152.40123   -412.51353      46.7237      46.7237      46.7237           90           90           90     102002.7   -1104.2298 
  975000       974499     -7250.66    810.96905    -8061.629    4387.7312    -12449.36    131.49507   -555.17597   -653.90061   -791.63002    184.93773    27.360663    15.924084      46.7237      46.7237      46.7237           90           90           90     102002.7    -666.9022 
  976000       975499   -7281.1218    805.63086   -8086.7527    4355.1304   -12441.883    130.62951   -481.94656   -996.32851   -760.12131   -70.521019   -135.78624   -40.439251      46.7237      46.7237      46.7237           90           90           90     102002.7   -746.13213 
  977000       976499   -7288.9264    784.38037   -8073.3067    4378.7038   -12452.011    127.18384   -985.99718   -752.36588   -988.65338   -67.457349   -51.570035   -5.9549771      46.7237      46.7237      46.7237           90           90           90     102002.7   -909.00548 
  978000       977499   -7223.9227    823.22543   -8047.1481    4421.9176   -12469.066    133.48239   -381.76012   -908.58157   -402.22709   -102.05201    115.48329    120.10255      46.7237      46.7237      46.7237           90           90           90     102002.7   -564.18959 
  979000       978499   -7266.8686    805.92699   -8072.7956    4381.1999   -12453.996    130.67753   -859.63135   -567.21791   -846.17277   -68.632219   -169.86244    152.34015      46.7237      46.7237      46.7237           90           90           90     102002.7   -757.67401 
  980000       979499   -7258.6567    790.79133    -8049.448    4377.3387   -12426.787    128.22335   -772.28095   -823.63422   -834.03778   -264.69058    114.98085   -142.15215      46.7237      46.7237      46.7237           90           90           90     102002.7   -809.98432 
  981000       980499   -7266.3303     796.0068   -8062.3371    4405.7773   -12468.114    129.06901   -897.64643   -786.90691   -816.68003   -145.48262   -110.02804    172.09017      46.7237      46.7237      46.7237           90           90           90     102002.7   -833.74446 
  982000       981499   -7275.7757    792.22391   -8067.9996    4358.1576   -12426.157    128.45563   -258.57219   -519.96961   -795.85551    219.40396   -16.340624   -37.490403      46.7237      46.7237      46.7237           90           90           90     102002.7    -524.7991 
  983000       982499   -7276.5105    777.78359   -8054.2941    4386.8704   -12441.165     126.1142   -290.47816   -349.02332    -762.5612    75.664614   -107.20925   -365.63835      46.7237      46.7237      46.7237           90           90           90     102002.7   -467.35423 
  984000       983499   -7277.8795    804.48088   -8082.3604    4372.3188   -12454.679    130.44305   -1024.2959   -1397.3252   -1175.4368   -36.320774   -27.209689    11.558484      46.7237      46.7237      46.7237           90           90           90     102002.7   -1199.0193 
  985000       984499   -7235.5644    815.79214   -8051.3565    4370.5974   -12421.954    132.27712   -83.301023   -414.41446   -492.24009    89.949023   -273.62322    251.43703      46.7237      46.7237      46.7237           90           90           90     102002.7   -329.98519 
  986000       985499    -7242.202    810.16016   -8052.3622    4388.6884   -12441.051    131.36392   -278.98501   -360.65587   -927.93624    196.30607   -54.828327   -363.51169      46.7237      46.7237      46.7237           90           90           90     102002.7   -522.52571 
  987000       986499   -7253.9644    799.84294   -8053.8074    4399.0033   -12452.811    129.69102   -716.17076   -378.92701    41.114248   -35.866777    111.20511    51.634123      46.7237      46.7237      46.7237           90           90           90     102002.7   -351.32784 
  988000       987499   -7266.5289    808.55807    -8075.087    4403.3179   -12478.405    131.10415   -810.64923   -482.47713   -828.74015   -35.652935    111.34738   -165.81976      46.7237      46.7237      46.7237           90           90           90     102002.7   -707.28884 
  989000       988499   -7285.1359    801.02165   -8086.1575    4366.5336   -12452.691    129.88215   -325.79705   -1016.2095   -952.80043     45.66919   -177.21149    84.283849      46.7237      46.7237      46.7237           90           90           90     102002.7   -764.93567 
  990000       989499   -7260.7556    808.96523   -8069.7208    4367.4351   -12437.156    131.17017   -853.25763   -825.75957    -599.9135   -193.21827    119.68022    274.30773      46.7237      46.7237      46.7237           90           90           90     102002.7   -759.64357 
  991000       990499   -7257.5647    806.04066   -8063.6053    4364.8738   -12428.479    130.69596   -863.31409    -660.4994   -80.343267    44.798104   -55.353277    -132.3302      46.7237      46.7237      46.7237           90           90           90     102002.7   -534.71892 
  992000       991499   -7226.8252    802.14204   -8028.9673    4423.9135   -12452.881    130.06381   -815.07437   -749.18824   -483.22915     21.40755   -2.8958654   -349.16231      46.7237      46.7237      46.7237           90           90           90     102002.7   -682.49725 
  993000       992499   -7244.8311    792.43915   -8037.2702    4419.7507   -12457.021    128.49053   -1317.8825   -703.16523   -645.92514    85.477998    19.227672    220.55522      46.7237      46.7237      46.7237           90           90           90     102002.7   -888.99095 
  994000       993499   -7200.7232    818.80013   -8019.5233    4411.3692   -12430.893    132.76485    -401.8772   -757.32757   -973.03135    152.74384    80.331394   -103.11959      46.7237      46.7237      46.7237           90           90           90     102002.7   -710.74537 
  995000       994499   -7230.0069     798.7121    -8028.719    4407.2922   -12436.011    129.50766   -768.89754   -926.64281   -660.39247    144.37166    15.825336   -152.87237      46.7237      46.7237      46.7237           90           90           90     102002.7   -785.31094 
  996000       995499    -7280.706     778.0831   -8058.7891    4392.2498   -12451.039    126.16276   -477.81438   -779.71776   -1191.6563   -324.36403    -155.9789   -23.119705      46.7237      46.7237      46.7237           90           90           90     102002.7   -816.39614 
  997000       996499   -7222.1639    830.88079   -8053.0447    4400.0016   -12453.046    134.72368   -438.97399   -1077.4354   -692.60721    28.651927   -64.849583    82.597163      46.7237      46.7237      46.7237           90           90           90     102002.7   -736.33886 
  998000       997499   -7242.6661    809.46022   -8052.1264    4364.1718   -12416.298    131.25043    371.49123    12.698105   -950.18954    140.86574     -94.2438    -124.2585      46.7237      46.7237      46.7237           90           90           90     102002.7   -188.66673 
  999000       998499   -7242.3902    820.32621   -8062.7164    4385.2116   -12447.928     133.0123   -894.56823   -425.27138   -958.39908    269.36767     189.1811    231.60533      46.7237      46.7237      46.7237           90           90           90     102002.7    -759.4129 
 1000000       999499   -7257.2935    801.05857   -8058.3521    4359.8787   -12418.231    129.88813   -809.26306   -345.73473   -115.96541    77.711622   -88.852284    61.298974      46.7237      46.7237      46.7237           90           90           90     102002.7    -423.6544 
 1000501      1000000   -7267.1584    790.70398   -8057.8623    4364.9084   -12422.771    128.20918   -773.00217   -392.45209   -655.84794    129.37462    242.13027    207.56512      46.7237      46.7237      46.7237           90           90           90     102002.7   -607.10073 
Loop time of 1499.53 on 16 procs for 500000 steps with 2070 atoms

Performance: 28.809 ns/day, 0.833 hours/ns, 333.437 timesteps/s
99.8% CPU use with 16 MPI tasks x no OpenMP threads

MPI task timing breakdown:
Section |  min time  |  avg time  |  max time  |%varavg| %total
---------------------------------------------------------------
Pair    | 708.12     | 904.09     | 1091.1     | 342.2 | 60.29
Bond    | 121.53     | 183.01     | 241.83     | 413.1 | 12.20
Neigh   | 8.0719     | 8.146      | 8.2696     |   2.5 |  0.54
Comm    | 132.27     | 374.73     | 629.44     | 775.9 | 24.99
Output  | 0.10623    | 0.11127    | 0.11169    |   0.4 |  0.01
Modify  | 21.997     | 23.944     | 25.666     |  32.2 |  1.60
Other   |            | 5.504      |            |       |  0.37

Nlocal:    129.375 ave 160 max 98 min
Histogram: 5 1 2 0 0 0 0 1 2 5
Nghost:    2658.12 ave 2706 max 2610 min
Histogram: 5 1 2 0 0 0 0 1 4 3
Neighs:    11467.3 ave 13329 max 9439 min
Histogram: 1 2 3 2 0 1 1 2 0 4

Total # of neighbors = 183477
Ave neighs/atom = 88.6362
Ave special neighs/atom = 5.56522
Neighbor list builds = 4846
Dangerous builds = 0
Total wall time: 0:47:35
