LAMMPS (30 Mar 2018)
Reading data file ...
  orthogonal box = (0 0 0) to (46.7237 46.7237 46.7237)
  2 by 3 by 4 MPI processor grid
  reading atoms ...
  1944 atoms
  scanning bonds ...
  5 = max bonds/atom
  scanning angles ...
  10 = max angles/atom
  scanning dihedrals ...
  32 = max dihedrals/atom
  scanning impropers ...
  3 = max impropers/atom
  reading bonds ...
  2064 bonds
  reading angles ...
  3696 angles
  reading dihedrals ...
  6240 dihedrals
  reading impropers ...
  1008 impropers
Finding 1-2 1-3 1-4 neighbors ...
  special bond factors lj:   0          0          0         
  special bond factors coul: 0          0          0         
  5 = max # of 1-2 neighbors
  8 = max # of 1-3 neighbors
  20 = max # of 1-4 neighbors
  19 = max # of special neighbors
Finding 1-2 1-3 1-4 neighbors ...
  special bond factors lj:   0          0          1         
  special bond factors coul: 1          1          1         
  5 = max # of 1-2 neighbors
  8 = max # of 1-3 neighbors
  19 = max # of special neighbors
WARNING: Using 'neigh_modify every 1 delay 0 check yes' setting during minimization (../min.cpp:168)
Neighbor list info ...
  update every 1 steps, delay 0 steps, check yes
  max neighbors/atom: 2000, page size: 100000
  master list distance cutoff = 16
  ghost atom cutoff = 16
  binsize = 8, bins = 6 6 6
  3 neighbor lists, perpetual/occasional/extra = 3 0 0
  (1) pair buck6d/coul/gauss/dsf, perpetual, skip from (3)
      attributes: half, newton on
      pair build: skip
      stencil: none
      bin: none
  (2) pair lj/cut, perpetual, skip from (3)
      attributes: half, newton on
      pair build: skip
      stencil: none
      bin: none
  (3) neighbor class addition, perpetual
      attributes: half, newton on
      pair build: half/bin/newton
      stencil: half/bin/3d/newton
      bin: standard
Setting up cg style minimization ...
  Unit style    : real
  Current step  : 0
WARNING: Inconsistent image flags (../domain.cpp:786)
Per MPI rank memory allocation (min/avg/max) = 22.88 | 23.29 | 24.43 Mbytes
Step Temp E_pair E_mol TotEng Press 
       0            0   -12162.629    6482.8914   -5679.7376    6133.1695 
     501            0   -12242.195    3716.8614   -8525.3336   -602.34842 
Loop time of 1.37191 on 24 procs for 501 steps with 1944 atoms

99.7% CPU use with 24 MPI tasks x no OpenMP threads

Minimization stats:
  Stopping criterion = max force evaluations
  Energy initial, next-to-last, final = 
         -5679.7376404     -8525.30709422     -8525.33361155
  Force two-norm initial, final = 2575.97 7.30929
  Force max component initial, final = 152.059 0.659545
  Final line search alpha, max atom move = 0.0113149 0.00746269
  Iterations, force evaluations = 501 1000

MPI task timing breakdown:
Section |  min time  |  avg time  |  max time  |%varavg| %total
---------------------------------------------------------------
Pair    | 0.42854    | 0.6646     | 0.93435    |  16.7 | 48.44
Bond    | 0.11199    | 0.15786    | 0.1977     |   6.4 | 11.51
Neigh   | 0.010251   | 0.010897   | 0.011381   |   0.4 |  0.79
Comm    | 0.21959    | 0.51173    | 0.79442    |  20.7 | 37.30
Output  | 0          | 0          | 0          |   0.0 |  0.00
Modify  | 0          | 0          | 0          |   0.0 |  0.00
Other   |            | 0.02682    |            |       |  1.96

Nlocal:    81 ave 102 max 65 min
Histogram: 3 5 1 2 4 2 2 1 3 1
Nghost:    2174.29 ave 2347 max 2086 min
Histogram: 15 1 0 0 0 0 0 0 4 4
Neighs:    7640.79 ave 11622 max 4653 min
Histogram: 3 5 1 2 3 2 4 2 0 2

Total # of neighbors = 183379
Ave neighs/atom = 94.3308
Ave special neighs/atom = 5.92593
Neighbor list builds = 14
Dangerous builds = 0
Neighbor list info ...
  update every 1 steps, delay 10 steps, check yes
  max neighbors/atom: 2000, page size: 100000
  master list distance cutoff = 16
  ghost atom cutoff = 16
  binsize = 8, bins = 6 6 6
  3 neighbor lists, perpetual/occasional/extra = 3 0 0
  (1) pair buck6d/coul/gauss/dsf, perpetual, skip from (3)
      attributes: half, newton on
      pair build: skip
      stencil: none
      bin: none
  (2) pair lj/cut, perpetual, skip from (3)
      attributes: half, newton on
      pair build: skip
      stencil: none
      bin: none
  (3) neighbor class addition, perpetual
      attributes: half, newton on
      pair build: half/bin/newton
      stencil: half/bin/3d/newton
      bin: standard
Setting up Verlet run ...
  Unit style    : real
  Current step  : 501
  Time step     : 1
WARNING: Inconsistent image flags (../domain.cpp:786)
Per MPI rank memory allocation (min/avg/max) = 22.53 | 22.72 | 23.31 Mbytes
Step Temp PotEng TotEng Press Volume Lx Ly Lz 
     501          110   -8525.3336   -7888.2451   -316.83866     102002.7      46.7237      46.7237      46.7237 
    1000    93.680327    -7948.526   -7405.9563   -577.52105     102002.7      46.7237      46.7237      46.7237 
    2000    116.63968   -7871.8542   -7196.3106   -526.00269     102002.7      46.7237      46.7237      46.7237 
    3000    109.17157   -7830.6527   -7198.3622   -865.81193     102002.7      46.7237      46.7237      46.7237 
    4000     107.2113    -7850.419   -7229.4818   -675.62944     102002.7      46.7237      46.7237      46.7237 
    5000    111.44914   -7859.9235   -7214.4419   -705.31011     102002.7      46.7237      46.7237      46.7237 
    6000    107.71175   -7833.5575   -7209.7218   -672.63708     102002.7      46.7237      46.7237      46.7237 
    7000    107.32219   -7873.2496   -7251.6702   -912.23857     102002.7      46.7237      46.7237      46.7237 
    8000    111.46673   -7859.8953   -7214.3118   -614.21656     102002.7      46.7237      46.7237      46.7237 
    9000     112.0071   -7836.4883   -7187.7752   -645.24639     102002.7      46.7237      46.7237      46.7237 
   10000    111.13874   -7868.9576   -7225.2738   -1002.3656     102002.7      46.7237      46.7237      46.7237 
   11000    105.72141   -7854.4153   -7242.1071   -537.56077     102002.7      46.7237      46.7237      46.7237 
   12000    111.89738   -7861.4241   -7213.3464   -636.49653     102002.7      46.7237      46.7237      46.7237 
   13000    112.06087   -7859.7972   -7210.7727   -348.42495     102002.7      46.7237      46.7237      46.7237 
   14000    109.53911   -7862.8199   -7228.4007   -605.94743     102002.7      46.7237      46.7237      46.7237 
   15000    107.82056   -7845.6461   -7221.1803   -707.98059     102002.7      46.7237      46.7237      46.7237 
   16000    109.92203   -7847.3713   -7210.7344   -773.69291     102002.7      46.7237      46.7237      46.7237 
   17000    110.34925   -7857.3385   -7218.2272   -766.33034     102002.7      46.7237      46.7237      46.7237 
   18000    109.70016   -7851.7757   -7216.4237   -524.53271     102002.7      46.7237      46.7237      46.7237 
   19000    109.26255   -7853.6116   -7220.7942   -704.34962     102002.7      46.7237      46.7237      46.7237 
   20000    111.90257    -7873.735   -7225.6273   -934.11674     102002.7      46.7237      46.7237      46.7237 
   21000    106.70254   -7857.1889   -7239.1982   -698.48423     102002.7      46.7237      46.7237      46.7237 
   22000    106.63292   -7870.2013    -7252.614   -752.00395     102002.7      46.7237      46.7237      46.7237 
   23000     109.6844   -7847.4622   -7212.2015   -797.33247     102002.7      46.7237      46.7237      46.7237 
   24000    115.45393   -7830.1385   -7161.4623   -622.62274     102002.7      46.7237      46.7237      46.7237 
   25000     108.5493   -7866.0562   -7237.3698   -768.21346     102002.7      46.7237      46.7237      46.7237 
   26000    109.95872   -7842.8413   -7205.9919   -574.05001     102002.7      46.7237      46.7237      46.7237 
   27000    109.61339   -7825.5933   -7190.7439   -688.55102     102002.7      46.7237      46.7237      46.7237 
   28000    111.44898   -7858.9877   -7213.5071   -693.27988     102002.7      46.7237      46.7237      46.7237 
   29000    108.66922   -7857.0074   -7227.6263   -614.76183     102002.7      46.7237      46.7237      46.7237 
   30000    109.92296   -7858.9245   -7222.2821   -769.54063     102002.7      46.7237      46.7237      46.7237 
   31000    107.74881   -7835.5503      -7211.5   -611.59674     102002.7      46.7237      46.7237      46.7237 
   32000    113.46378   -7828.0049   -7170.8551   -733.56062     102002.7      46.7237      46.7237      46.7237 
   33000    106.16465   -7824.6989   -7209.8237   -610.05524     102002.7      46.7237      46.7237      46.7237 
   34000    110.46014   -7832.5134   -7192.7599    -784.4147     102002.7      46.7237      46.7237      46.7237 
   35000    109.30597   -7865.7072   -7232.6383    -640.1301     102002.7      46.7237      46.7237      46.7237 
   36000    106.84835   -7822.5886   -7203.7536   -865.61409     102002.7      46.7237      46.7237      46.7237 
   37000    108.58592   -7858.5793   -7229.6807   -656.80947     102002.7      46.7237      46.7237      46.7237 
   38000    110.73269   -7845.2969   -7203.9648   -1101.3067     102002.7      46.7237      46.7237      46.7237 
   39000    109.84945   -7855.2651   -7219.0485   -622.69359     102002.7      46.7237      46.7237      46.7237 
   40000    109.46866   -7831.4407   -7197.4295   -707.62415     102002.7      46.7237      46.7237      46.7237 
   41000    114.07543   -7831.1019   -7170.4097   -601.73519     102002.7      46.7237      46.7237      46.7237 
   42000    110.58293   -7852.4961   -7212.0315   -802.07443     102002.7      46.7237      46.7237      46.7237 
   43000     110.5592   -7857.8548   -7217.5275    -791.5504     102002.7      46.7237      46.7237      46.7237 
   44000    110.39259   -7855.7968   -7216.4345   -334.95157     102002.7      46.7237      46.7237      46.7237 
   45000    110.15509   -7835.4861   -7197.4993   -461.77771     102002.7      46.7237      46.7237      46.7237 
   46000    108.04345   -7854.0024   -7228.2456   -615.12903     102002.7      46.7237      46.7237      46.7237 
   47000    108.18892   -7836.1468   -7209.5475   -1070.3444     102002.7      46.7237      46.7237      46.7237 
   48000    107.43568   -7847.3287   -7225.0919   -679.48673     102002.7      46.7237      46.7237      46.7237 
   49000    111.34577    -7848.833   -7203.9502   -602.09741     102002.7      46.7237      46.7237      46.7237 
   50000    106.39345   -7834.7157   -7218.5153    -642.3269     102002.7      46.7237      46.7237      46.7237 
   51000    108.68857   -7844.5845   -7215.0914   -641.55516     102002.7      46.7237      46.7237      46.7237 
   52000    115.78639    -7853.195   -7182.5933   -615.29177     102002.7      46.7237      46.7237      46.7237 
   53000    110.22296   -7848.6289   -7210.2491    -1034.711     102002.7      46.7237      46.7237      46.7237 
   54000    110.12528   -7845.4995   -7207.6854   -805.81489     102002.7      46.7237      46.7237      46.7237 
   55000    107.56631   -7857.9743    -7234.981   -765.96143     102002.7      46.7237      46.7237      46.7237 
   56000    106.95047   -7840.6878   -7221.2613   -1043.5908     102002.7      46.7237      46.7237      46.7237 
   57000    109.17324   -7842.7725   -7210.4724   -620.59976     102002.7      46.7237      46.7237      46.7237 
   58000    107.46234    -7871.902   -7249.5109   -401.66434     102002.7      46.7237      46.7237      46.7237 
   59000    110.79194   -7855.7964   -7214.1212   -633.16355     102002.7      46.7237      46.7237      46.7237 
   60000    111.12734   -7847.8482   -7204.2305   -956.37894     102002.7      46.7237      46.7237      46.7237 
   61000    112.50512   -7857.7793   -7206.1818   -862.74218     102002.7      46.7237      46.7237      46.7237 
   62000    109.58124   -7872.8808   -7238.2176   -664.75084     102002.7      46.7237      46.7237      46.7237 
   63000    109.42952   -7830.6492   -7196.8647   -615.91119     102002.7      46.7237      46.7237      46.7237 
   64000    110.65753   -7869.7826   -7228.8858   -750.03722     102002.7      46.7237      46.7237      46.7237 
   65000    111.26624   -7862.1457   -7217.7234    -765.0995     102002.7      46.7237      46.7237      46.7237 
   66000    108.62876   -7852.6959   -7223.5492   -783.41274     102002.7      46.7237      46.7237      46.7237 
   67000     109.7835   -7832.3316    -7196.497   -631.57166     102002.7      46.7237      46.7237      46.7237 
   68000    106.66053    -7861.992   -7244.2447   -411.59371     102002.7      46.7237      46.7237      46.7237 
   69000    109.71854   -7849.5121   -7214.0537   -539.05622     102002.7      46.7237      46.7237      46.7237 
   70000    109.93469   -7869.6154   -7232.9051   -616.34825     102002.7      46.7237      46.7237      46.7237 
   71000    108.11339   -7822.7495   -7196.5877   -708.31874     102002.7      46.7237      46.7237      46.7237 
   72000     108.3158   -7842.6313   -7215.2971   -537.95546     102002.7      46.7237      46.7237      46.7237 
   73000    107.63851   -7856.1599   -7232.7484   -1030.0418     102002.7      46.7237      46.7237      46.7237 
   74000    109.82299   -7836.5524    -7200.489   -478.43789     102002.7      46.7237      46.7237      46.7237 
   75000    109.01217   -7844.4429   -7213.0755   -467.86362     102002.7      46.7237      46.7237      46.7237 
   76000    107.99205   -7870.9198   -7245.4608    -592.4586     102002.7      46.7237      46.7237      46.7237 
   77000    108.33352   -7832.3279   -7204.8911   -769.30644     102002.7      46.7237      46.7237      46.7237 
   78000    109.47823   -7852.4414   -7218.3747   -794.79754     102002.7      46.7237      46.7237      46.7237 
   79000    112.85703   -7831.1958   -7177.5602   -653.14482     102002.7      46.7237      46.7237      46.7237 
   80000      112.129   -7843.6308   -7194.2117   -466.42125     102002.7      46.7237      46.7237      46.7237 
   81000    108.53067   -7846.6889   -7218.1103   -880.60654     102002.7      46.7237      46.7237      46.7237 
   82000    113.88825   -7858.9734   -7199.3652   -438.26147     102002.7      46.7237      46.7237      46.7237 
   83000    108.70315   -7851.7089   -7222.1313     -853.752     102002.7      46.7237      46.7237      46.7237 
   84000    108.26256   -7856.9246   -7229.8988    -745.0483     102002.7      46.7237      46.7237      46.7237 
   85000    107.20945   -7857.9465     -7237.02   -506.74566     102002.7      46.7237      46.7237      46.7237 
   86000    110.34041   -7860.5772   -7221.5172   -732.13911     102002.7      46.7237      46.7237      46.7237 
   87000    107.89864   -7855.2982   -7230.3802   -808.01372     102002.7      46.7237      46.7237      46.7237 
   88000    110.99106   -7832.1836   -7189.3551    -533.4692     102002.7      46.7237      46.7237      46.7237 
   89000    111.39709   -7855.4254   -7210.2453   -704.34308     102002.7      46.7237      46.7237      46.7237 
   90000    109.37358   -7841.0854   -7207.6249   -747.33635     102002.7      46.7237      46.7237      46.7237 
   91000    105.65718   -7839.1699   -7227.2338   -861.19971     102002.7      46.7237      46.7237      46.7237 
   92000    107.07781   -7862.9251   -7242.7611   -852.51206     102002.7      46.7237      46.7237      46.7237 
   93000    106.47091   -7841.8649   -7225.2159   -896.53332     102002.7      46.7237      46.7237      46.7237 
   94000    112.14694   -7850.9034   -7201.3804   -898.48608     102002.7      46.7237      46.7237      46.7237 
   95000    109.02302   -7851.3589   -7219.9288   -772.86244     102002.7      46.7237      46.7237      46.7237 
   96000    113.30761   -7842.2919   -7186.0467   -595.90787     102002.7      46.7237      46.7237      46.7237 
   97000     109.1902   -7829.8364   -7197.4379   -952.75371     102002.7      46.7237      46.7237      46.7237 
   98000    110.38663   -7854.6839   -7215.3561   -746.63544     102002.7      46.7237      46.7237      46.7237 
   99000    111.59105   -7845.7775   -7199.4741   -648.83976     102002.7      46.7237      46.7237      46.7237 
  100000    111.23047   -7850.4756   -7206.2606   -854.64945     102002.7      46.7237      46.7237      46.7237 
  101000    108.12633   -7852.5064   -7226.2697   -791.11448     102002.7      46.7237      46.7237      46.7237 
  102000    109.95031    -7817.825   -7181.0242   -871.17971     102002.7      46.7237      46.7237      46.7237 
  103000     110.9555   -7862.9132   -7220.2907   -594.32073     102002.7      46.7237      46.7237      46.7237 
  104000    107.23352   -7877.0001   -7255.9343   -678.60327     102002.7      46.7237      46.7237      46.7237 
  105000    110.88148   -7844.4471   -7202.2533   -764.59587     102002.7      46.7237      46.7237      46.7237 
  106000    109.01523   -7869.3563   -7237.9713   -573.68946     102002.7      46.7237      46.7237      46.7237 
  107000    111.05836   -7848.1716   -7204.9534   -546.01656     102002.7      46.7237      46.7237      46.7237 
  108000    108.35576    -7836.504   -7208.9384    -355.5651     102002.7      46.7237      46.7237      46.7237 
  109000    106.99964   -7836.9982   -7217.2869   -744.91261     102002.7      46.7237      46.7237      46.7237 
  110000    111.42005   -7827.8769   -7182.5638   -539.43456     102002.7      46.7237      46.7237      46.7237 
  111000    106.13952    -7844.768   -7230.0383   -815.92689     102002.7      46.7237      46.7237      46.7237 
  112000    111.40316   -7826.4385   -7181.2233   -693.10166     102002.7      46.7237      46.7237      46.7237 
  113000    108.46202   -7849.6594   -7221.4785   -830.80414     102002.7      46.7237      46.7237      46.7237 
  114000    108.39501   -7850.3533   -7222.5604   -672.05706     102002.7      46.7237      46.7237      46.7237 
  115000    109.81305   -7865.9325   -7229.9267   -560.27937     102002.7      46.7237      46.7237      46.7237 
  116000    112.55341   -7842.6227   -7190.7455   -659.76637     102002.7      46.7237      46.7237      46.7237 
  117000    108.21263   -7860.0144   -7233.2778   -675.14181     102002.7      46.7237      46.7237      46.7237 
  118000    109.78251   -7850.5287   -7214.6998   -784.60824     102002.7      46.7237      46.7237      46.7237 
  119000    109.82491   -7853.7193   -7217.6448   -917.60465     102002.7      46.7237      46.7237      46.7237 
  120000    112.09141   -7836.4091   -7187.2077   -452.31538     102002.7      46.7237      46.7237      46.7237 
  121000    109.74439   -7852.2656   -7216.6575   -770.58197     102002.7      46.7237      46.7237      46.7237 
  122000    107.97937   -7848.9896    -7223.604   -655.22504     102002.7      46.7237      46.7237      46.7237 
  123000    110.42823   -7835.9482   -7196.3795   -799.00572     102002.7      46.7237      46.7237      46.7237 
  124000    110.55409   -7828.9705   -7188.6729   -965.43765     102002.7      46.7237      46.7237      46.7237 
  125000    108.84508   -7844.3335   -7213.9339   -935.09267     102002.7      46.7237      46.7237      46.7237 
  126000    111.55028   -7823.9041   -7177.8368   -1071.4106     102002.7      46.7237      46.7237      46.7237 
  127000    111.26662   -7832.8464   -7188.4219   -822.80858     102002.7      46.7237      46.7237      46.7237 
  128000    109.63623   -7839.6554   -7204.6737    -912.5829     102002.7      46.7237      46.7237      46.7237 
  129000    111.78699     -7827.75   -7180.3117   -774.07989     102002.7      46.7237      46.7237      46.7237 
  130000    109.47729    -7837.945   -7203.8839   -909.21349     102002.7      46.7237      46.7237      46.7237 
  131000    110.99031   -7857.3672    -7214.543   -794.18245     102002.7      46.7237      46.7237      46.7237 
  132000    113.79713   -7841.1958   -7182.1153   -667.02902     102002.7      46.7237      46.7237      46.7237 
  133000    109.50879   -7837.5919   -7203.3483   -738.24262     102002.7      46.7237      46.7237      46.7237 
  134000    114.87887   -7849.6732   -7184.3277   -772.40992     102002.7      46.7237      46.7237      46.7237 
  135000    108.20174    -7860.701   -7234.0274   -863.77726     102002.7      46.7237      46.7237      46.7237 
  136000    112.96161   -7850.2545   -7196.0132   -1084.8238     102002.7      46.7237      46.7237      46.7237 
  137000    108.96841   -7834.3892   -7203.2753   -754.75025     102002.7      46.7237      46.7237      46.7237 
  138000    109.31724   -7855.8251   -7222.6909   -836.18907     102002.7      46.7237      46.7237      46.7237 
  139000    110.12067   -7833.2654   -7195.4779   -795.26994     102002.7      46.7237      46.7237      46.7237 
  140000    111.60627   -7843.9743   -7197.5828   -762.20697     102002.7      46.7237      46.7237      46.7237 
  141000    109.82854   -7827.1093   -7191.0138   -680.86883     102002.7      46.7237      46.7237      46.7237 
  142000    112.24893   -7828.7698   -7178.6561   -733.62808     102002.7      46.7237      46.7237      46.7237 
  143000    112.91158   -7837.5131   -7183.5615   -600.07893     102002.7      46.7237      46.7237      46.7237 
  144000    108.05103   -7862.6667    -7236.866   -483.38716     102002.7      46.7237      46.7237      46.7237 
  145000    110.06053    -7838.093   -7200.6539   -606.30865     102002.7      46.7237      46.7237      46.7237 
  146000    110.57193   -7843.8775   -7203.4765   -716.48691     102002.7      46.7237      46.7237      46.7237 
  147000    107.47469   -7843.3604   -7220.8977   -777.80437     102002.7      46.7237      46.7237      46.7237 
  148000    109.60448   -7862.0643   -7227.2665   -679.43021     102002.7      46.7237      46.7237      46.7237 
  149000    111.67742   -7824.9215   -7178.1178   -753.40486     102002.7      46.7237      46.7237      46.7237 
  150000    110.18522   -7842.8504   -7204.6891   -651.61676     102002.7      46.7237      46.7237      46.7237 
  151000    109.96645   -7845.6953   -7208.8011   -566.09833     102002.7      46.7237      46.7237      46.7237 
  152000    107.11084   -7817.7683   -7197.4129   -1064.4449     102002.7      46.7237      46.7237      46.7237 
  153000    107.74502   -7856.8294   -7232.8011   -749.04718     102002.7      46.7237      46.7237      46.7237 
  154000    108.44976   -7853.1645   -7225.0546    -933.9044     102002.7      46.7237      46.7237      46.7237 
  155000    109.83445   -7840.7458   -7204.6161   -1016.2136     102002.7      46.7237      46.7237      46.7237 
  156000    114.33139   -7859.1246   -7196.9499   -685.26822     102002.7      46.7237      46.7237      46.7237 
  157000    108.08485    -7855.563   -7229.5664   -866.00715     102002.7      46.7237      46.7237      46.7237 
  158000    107.82262   -7858.8695   -7234.3917   -603.77687     102002.7      46.7237      46.7237      46.7237 
  159000    111.29067   -7855.2851   -7210.7214   -768.41871     102002.7      46.7237      46.7237      46.7237 
  160000    111.43889   -7851.4106   -7205.9884   -946.40869     102002.7      46.7237      46.7237      46.7237 
  161000    113.55916   -7850.0052    -7192.303   -629.49476     102002.7      46.7237      46.7237      46.7237 
  162000    111.81986   -7864.8072   -7217.1786   -686.56511     102002.7      46.7237      46.7237      46.7237 
  163000    111.71013   -7836.2102   -7189.2171     -480.119     102002.7      46.7237      46.7237      46.7237 
  164000    106.65916   -7843.8834    -7226.144   -819.81808     102002.7      46.7237      46.7237      46.7237 
  165000    110.90608   -7841.9758   -7199.6395   -556.09572     102002.7      46.7237      46.7237      46.7237 
  166000     110.4579   -7830.0243   -7190.2837   -575.90528     102002.7      46.7237      46.7237      46.7237 
  167000    108.25085   -7845.9987   -7219.0407   -896.42048     102002.7      46.7237      46.7237      46.7237 
  168000     110.9263    -7844.211   -7201.7576   -744.39669     102002.7      46.7237      46.7237      46.7237 
  169000    108.97916   -7861.0379   -7229.8618   -802.81577     102002.7      46.7237      46.7237      46.7237 
  170000    108.82968   -7846.2383    -7215.928   -904.97318     102002.7      46.7237      46.7237      46.7237 
  171000    109.02481   -7840.2257   -7208.7851   -606.05632     102002.7      46.7237      46.7237      46.7237 
  172000    112.00794   -7834.0914   -7185.3734   -835.99904     102002.7      46.7237      46.7237      46.7237 
  173000    109.59651   -7846.4406   -7211.6889   -573.34562     102002.7      46.7237      46.7237      46.7237 
  174000    109.75339   -7868.6151   -7232.9548   -550.56852     102002.7      46.7237      46.7237      46.7237 
  175000    106.70716   -7825.5873   -7207.5699   -1028.2618     102002.7      46.7237      46.7237      46.7237 
  176000    115.82033   -7845.2801   -7174.4818   -752.79269     102002.7      46.7237      46.7237      46.7237 
  177000    111.99692   -7847.6026   -7198.9484   -821.10564     102002.7      46.7237      46.7237      46.7237 
  178000    111.92965   -7849.7668   -7201.5023   -730.98818     102002.7      46.7237      46.7237      46.7237 
  179000    110.25601   -7875.6518   -7237.0805   -874.66485     102002.7      46.7237      46.7237      46.7237 
  180000    110.73372   -7837.6783   -7196.3403   -926.16551     102002.7      46.7237      46.7237      46.7237 
  181000    111.19504   -7832.6425   -7188.6327   -564.03403     102002.7      46.7237      46.7237      46.7237 
  182000    111.88109   -7855.0797   -7207.0964   -599.68163     102002.7      46.7237      46.7237      46.7237 
  183000    109.11839   -7849.7361   -7217.7536   -715.29666     102002.7      46.7237      46.7237      46.7237 
  184000    111.09958   -7854.7354   -7211.2784   -853.11996     102002.7      46.7237      46.7237      46.7237 
  185000    112.03991   -7853.3993   -7204.4962   -717.69542     102002.7      46.7237      46.7237      46.7237 
  186000    113.93735   -7855.0298   -7195.1372   -911.29369     102002.7      46.7237      46.7237      46.7237 
  187000    108.85555   -7854.0459   -7223.5856   -869.38505     102002.7      46.7237      46.7237      46.7237 
  188000    110.43697   -7863.4599   -7223.8406   -640.87163     102002.7      46.7237      46.7237      46.7237 
  189000    111.58301   -7838.8009    -7192.544   -1068.7932     102002.7      46.7237      46.7237      46.7237 
  190000    112.24991   -7841.7119   -7191.5925   -409.25079     102002.7      46.7237      46.7237      46.7237 
  191000    111.08647   -7845.1036   -7201.7226   -525.64285     102002.7      46.7237      46.7237      46.7237 
  192000    110.24082   -7837.2129   -7198.7297   -897.97844     102002.7      46.7237      46.7237      46.7237 
  193000    109.63982   -7855.9642   -7220.9617   -652.62828     102002.7      46.7237      46.7237      46.7237 
  194000    110.73199   -7862.0119   -7220.6839   -593.98141     102002.7      46.7237      46.7237      46.7237 
  195000    107.95101   -7832.9491   -7207.7278   -643.02679     102002.7      46.7237      46.7237      46.7237 
  196000    105.36134   -7836.5266   -7226.3039   -733.10869     102002.7      46.7237      46.7237      46.7237 
  197000    110.18261   -7858.5669   -7220.4208   -494.63474     102002.7      46.7237      46.7237      46.7237 
  198000    113.19428   -7850.9498   -7195.3609   -825.19801     102002.7      46.7237      46.7237      46.7237 
  199000    111.13295   -7865.8219   -7222.1716   -617.47873     102002.7      46.7237      46.7237      46.7237 
  200000    108.05882    -7846.422   -7220.5762    -865.7004     102002.7      46.7237      46.7237      46.7237 
  201000    112.17157   -7844.1317   -7194.4661   -734.07505     102002.7      46.7237      46.7237      46.7237 
  202000     106.9158   -7833.9269   -7214.7012   -849.67522     102002.7      46.7237      46.7237      46.7237 
  203000    115.57692   -7847.7746   -7178.3862   -1034.7456     102002.7      46.7237      46.7237      46.7237 
  204000    109.35166   -7854.7783   -7221.4448   -575.79545     102002.7      46.7237      46.7237      46.7237 
  205000    108.69709   -7878.6595   -7249.1171   -699.70063     102002.7      46.7237      46.7237      46.7237 
  206000    112.28188   -7858.6614   -7208.3569   -974.88128     102002.7      46.7237      46.7237      46.7237 
  207000    111.33578   -7841.3304   -7196.5054   -943.79921     102002.7      46.7237      46.7237      46.7237 
  208000    110.36532   -7847.0614   -7207.8571   -591.91092     102002.7      46.7237      46.7237      46.7237 
  209000    105.23227   -7823.3807   -7213.9055   -709.33861     102002.7      46.7237      46.7237      46.7237 
  210000    107.15515   -7854.9086   -7234.2966   -921.70171     102002.7      46.7237      46.7237      46.7237 
  211000    109.74656   -7844.0409   -7208.4202   -906.01179     102002.7      46.7237      46.7237      46.7237 
  212000    109.52269   -7845.0006   -7210.6765   -638.04589     102002.7      46.7237      46.7237      46.7237 
  213000     111.5277   -7839.6354   -7193.6988   -892.88733     102002.7      46.7237      46.7237      46.7237 
  214000    107.14108   -7844.8212   -7224.2907   -494.06707     102002.7      46.7237      46.7237      46.7237 
  215000      110.249   -7855.4315   -7216.9008   -357.51268     102002.7      46.7237      46.7237      46.7237 
  216000    108.70809   -7865.7041   -7236.0979   -491.15074     102002.7      46.7237      46.7237      46.7237 
  217000    109.16161   -7862.1228   -7229.8899    -584.7997     102002.7      46.7237      46.7237      46.7237 
  218000    111.48881   -7844.3155   -7198.6042   -620.04123     102002.7      46.7237      46.7237      46.7237 
  219000    109.92571   -7850.1121   -7213.4538   -444.64639     102002.7      46.7237      46.7237      46.7237 
  220000    108.94368   -7844.8855   -7213.9149   -742.85543     102002.7      46.7237      46.7237      46.7237 
  221000    111.55804    -7830.194   -7184.0817   -719.26773     102002.7      46.7237      46.7237      46.7237 
  222000    110.10985   -7848.2679   -7210.5431   -562.27187     102002.7      46.7237      46.7237      46.7237 
  223000    108.85813   -7857.4027   -7226.9276   -467.86332     102002.7      46.7237      46.7237      46.7237 
  224000     113.0323   -7856.3318    -7201.681   -745.69651     102002.7      46.7237      46.7237      46.7237 
  225000    109.95515   -7840.7104   -7203.8817   -784.56299     102002.7      46.7237      46.7237      46.7237 
  226000    111.27496   -7837.9834   -7193.5107   -758.46457     102002.7      46.7237      46.7237      46.7237 
  227000     107.0295   -7849.2458   -7229.3615   -612.09417     102002.7      46.7237      46.7237      46.7237 
  228000    106.67513   -7838.4332   -7220.6014   -626.04381     102002.7      46.7237      46.7237      46.7237 
  229000    111.72857    -7858.602    -7211.502   -865.41294     102002.7      46.7237      46.7237      46.7237 
  230000    107.65489   -7862.6071   -7239.1008   -664.89033     102002.7      46.7237      46.7237      46.7237 
  231000    106.68224   -7844.9587   -7227.0856   -590.31339     102002.7      46.7237      46.7237      46.7237 
  232000    113.31914    -7863.222     -7206.91   -547.90086     102002.7      46.7237      46.7237      46.7237 
  233000    109.83974   -7858.2051   -7222.0447   -827.96958     102002.7      46.7237      46.7237      46.7237 
  234000    109.16832    -7847.476   -7215.2043   -834.45564     102002.7      46.7237      46.7237      46.7237 
  235000    113.39166   -7872.9906   -7216.2586   -868.27048     102002.7      46.7237      46.7237      46.7237 
  236000    108.66352   -7861.6179   -7232.2699   -588.34094     102002.7      46.7237      46.7237      46.7237 
  237000    110.42238   -7832.0495   -7192.5147   -778.31884     102002.7      46.7237      46.7237      46.7237 
  238000     108.7859   -7857.4948   -7227.4379   -841.78156     102002.7      46.7237      46.7237      46.7237 
  239000     109.5871   -7860.5445   -7225.8473   -662.27999     102002.7      46.7237      46.7237      46.7237 
  240000    111.19134   -7848.5203   -7204.5319   -693.85036     102002.7      46.7237      46.7237      46.7237 
  241000    113.39059   -7858.0584   -7201.3325   -908.61378     102002.7      46.7237      46.7237      46.7237 
  242000    111.60023   -7866.5381   -7220.1815    -803.3895     102002.7      46.7237      46.7237      46.7237 
  243000    110.45997   -7872.5598   -7232.8072   -922.92146     102002.7      46.7237      46.7237      46.7237 
  244000    105.42097   -7863.4489   -7252.8808   -746.21418     102002.7      46.7237      46.7237      46.7237 
  245000    107.03298    -7846.407   -7226.5027   -832.23204     102002.7      46.7237      46.7237      46.7237 
  246000    107.55256   -7847.2434   -7224.3297   -799.21346     102002.7      46.7237      46.7237      46.7237 
  247000    110.28376   -7856.1327   -7217.4007   -716.38313     102002.7      46.7237      46.7237      46.7237 
  248000    114.50575   -7863.0082   -7199.8237   -949.15259     102002.7      46.7237      46.7237      46.7237 
  249000    107.92085   -7843.1649   -7218.1182   -959.29152     102002.7      46.7237      46.7237      46.7237 
  250000    109.64837   -7868.7324   -7233.6804   -877.68263     102002.7      46.7237      46.7237      46.7237 
  251000    109.03733   -7848.3559   -7216.8429    -1129.781     102002.7      46.7237      46.7237      46.7237 
  252000    113.65646    -7855.118   -7196.8523   -1034.7319     102002.7      46.7237      46.7237      46.7237 
  253000    113.59847   -7851.5371   -7193.6073   -969.08209     102002.7      46.7237      46.7237      46.7237 
  254000    105.53317   -7848.4441   -7237.2262   -746.24638     102002.7      46.7237      46.7237      46.7237 
  255000    111.77558   -7852.2891   -7204.9169   -726.19748     102002.7      46.7237      46.7237      46.7237 
  256000    110.30757   -7838.6195   -7199.7496   -948.20357     102002.7      46.7237      46.7237      46.7237 
  257000    110.76709   -7844.5103    -7202.979   -1179.7695     102002.7      46.7237      46.7237      46.7237 
  258000    109.86481   -7856.3718   -7220.0662   -886.39646     102002.7      46.7237      46.7237      46.7237 
  259000    111.02972   -7846.7102   -7203.6578   -715.12408     102002.7      46.7237      46.7237      46.7237 
  260000    109.21494   -7836.3463   -7203.8047   -624.73782     102002.7      46.7237      46.7237      46.7237 
  261000    107.64286    -7856.043   -7232.6063   -920.32645     102002.7      46.7237      46.7237      46.7237 
  262000     107.6278   -7822.7625    -7199.413    -861.5273     102002.7      46.7237      46.7237      46.7237 
  263000    111.45775     -7843.29   -7197.7586    -1012.504     102002.7      46.7237      46.7237      46.7237 
  264000     110.1548   -7847.3254   -7209.3403   -1130.8327     102002.7      46.7237      46.7237      46.7237 
  265000    110.64631   -7836.0037   -7195.1719   -1027.7058     102002.7      46.7237      46.7237      46.7237 
  266000    113.12724   -7853.8619   -7198.6613    -800.2817     102002.7      46.7237      46.7237      46.7237 
  267000    108.39513   -7824.1486    -7196.355   -759.09933     102002.7      46.7237      46.7237      46.7237 
  268000    110.36902   -7853.3556   -7214.1298   -926.73587     102002.7      46.7237      46.7237      46.7237 
  269000    107.45314   -7843.3387   -7221.0009   -553.94574     102002.7      46.7237      46.7237      46.7237 
  270000    108.29179     -7833.07   -7205.8749   -766.98005     102002.7      46.7237      46.7237      46.7237 
  271000    111.07235   -7825.1498   -7181.8505   -579.07683     102002.7      46.7237      46.7237      46.7237 
  272000    108.93221   -7864.4374   -7233.5332   -949.59357     102002.7      46.7237      46.7237      46.7237 
  273000    108.00771    -7855.584   -7230.0342   -639.59421     102002.7      46.7237      46.7237      46.7237 
  274000    106.45128   -7846.6622   -7230.1269   -776.04303     102002.7      46.7237      46.7237      46.7237 
  275000    111.31706   -7845.7433   -7201.0267   -718.66787     102002.7      46.7237      46.7237      46.7237 
  276000    112.78112   -7847.1443   -7193.9483   -324.43069     102002.7      46.7237      46.7237      46.7237 
  277000    110.09343   -7841.4223   -7203.7926   -676.56835     102002.7      46.7237      46.7237      46.7237 
  278000    113.50576   -7854.2951   -7196.9022   -710.51802     102002.7      46.7237      46.7237      46.7237 
  279000    108.88769   -7854.4179   -7223.7716   -694.45214     102002.7      46.7237      46.7237      46.7237 
  280000    110.81147   -7839.0397   -7197.2514   -732.62096     102002.7      46.7237      46.7237      46.7237 
  281000    110.50801   -7834.5615   -7194.5307   -907.95545     102002.7      46.7237      46.7237      46.7237 
  282000    109.80162   -7838.5348   -7202.5952   -960.94758     102002.7      46.7237      46.7237      46.7237 
  283000    111.43365   -7850.9973   -7205.6054   -991.18163     102002.7      46.7237      46.7237      46.7237 
  284000    107.66433   -7861.9705   -7238.4095   -704.83108     102002.7      46.7237      46.7237      46.7237 
  285000    110.89289   -7863.3367   -7221.0768   -741.82556     102002.7      46.7237      46.7237      46.7237 
  286000    112.12425   -7857.3648   -7207.9732   -774.40936     102002.7      46.7237      46.7237      46.7237 
  287000    108.49195   -7868.1792   -7239.8249   -799.56375     102002.7      46.7237      46.7237      46.7237 
  288000    109.79917   -7844.0607   -7208.1353   -977.37721     102002.7      46.7237      46.7237      46.7237 
  289000     108.0079   -7851.4274   -7225.8766   -744.57234     102002.7      46.7237      46.7237      46.7237 
  290000    112.17573   -7863.9503   -7214.2606   -748.10304     102002.7      46.7237      46.7237      46.7237 
  291000    109.70765   -7848.0858   -7212.6905   -691.24575     102002.7      46.7237      46.7237      46.7237 
  292000    110.35182   -7828.5484   -7189.4222   -646.21089     102002.7      46.7237      46.7237      46.7237 
  293000     111.5914   -7848.6735   -7202.3681   -843.98037     102002.7      46.7237      46.7237      46.7237 
  294000    107.23251   -7847.3554   -7226.2954   -833.97411     102002.7      46.7237      46.7237      46.7237 
  295000    113.69773   -7869.1787    -7210.674   -710.31096     102002.7      46.7237      46.7237      46.7237 
  296000    110.49231   -7824.5566   -7184.6168   -811.99158     102002.7      46.7237      46.7237      46.7237 
  297000    111.34355   -7831.0031   -7186.1331   -840.70292     102002.7      46.7237      46.7237      46.7237 
  298000     110.6735   -7851.6852   -7210.6959   -522.89709     102002.7      46.7237      46.7237      46.7237 
  299000    107.89876   -7857.9894   -7233.0707   -880.30699     102002.7      46.7237      46.7237      46.7237 
  300000     109.8733   -7837.3946   -7201.0399   -454.32221     102002.7      46.7237      46.7237      46.7237 
  301000    110.00547   -7843.7452    -7206.625   -877.30232     102002.7      46.7237      46.7237      46.7237 
  302000    108.32512   -7861.9041    -7234.516   -928.70409     102002.7      46.7237      46.7237      46.7237 
  303000    112.31963   -7843.1371   -7192.6139   -559.73524     102002.7      46.7237      46.7237      46.7237 
  304000    108.97982   -7831.0384   -7199.8584   -867.39732     102002.7      46.7237      46.7237      46.7237 
  305000    108.00658    -7869.028   -7243.4847   -586.43884     102002.7      46.7237      46.7237      46.7237 
  306000    111.62308   -7845.9581   -7199.4691   -612.95143     102002.7      46.7237      46.7237      46.7237 
  307000     106.0777   -7868.3448   -7253.9732   -975.71286     102002.7      46.7237      46.7237      46.7237 
  308000    109.12054   -7832.0415   -7200.0465   -368.99918     102002.7      46.7237      46.7237      46.7237 
  309000    110.74672   -7848.4591   -7207.0458   -813.35183     102002.7      46.7237      46.7237      46.7237 
  310000    111.75101   -7845.9886   -7198.7587   -526.55348     102002.7      46.7237      46.7237      46.7237 
  311000    106.97868   -7877.8704   -7258.2805   -812.42238     102002.7      46.7237      46.7237      46.7237 
  312000    110.12349   -7831.5329   -7193.7291   -703.53154     102002.7      46.7237      46.7237      46.7237 
  313000    106.51888     -7852.66   -7235.7331   -906.20803     102002.7      46.7237      46.7237      46.7237 
  314000    107.27659   -7839.7531   -7218.4378   -585.99742     102002.7      46.7237      46.7237      46.7237 
  315000    112.94334   -7863.4384   -7209.3029   -712.10527     102002.7      46.7237      46.7237      46.7237 
  316000    108.60094   -7856.6743   -7227.6888   -523.45742     102002.7      46.7237      46.7237      46.7237 
  317000    108.40034   -7868.9807   -7241.1569    -568.8189     102002.7      46.7237      46.7237      46.7237 
  318000    107.68034   -7821.4222   -7197.7685    -710.7761     102002.7      46.7237      46.7237      46.7237 
  319000    111.47263   -7832.3239   -7186.7063   -580.43083     102002.7      46.7237      46.7237      46.7237 
  320000     111.7093   -7844.4572   -7197.4688   -688.03413     102002.7      46.7237      46.7237      46.7237 
  321000    110.72104   -7857.1076   -7215.8429   -737.52114     102002.7      46.7237      46.7237      46.7237 
  322000    112.12836   -7863.9721   -7214.5567    -725.3142     102002.7      46.7237      46.7237      46.7237 
  323000    108.95613   -7856.4106   -7225.3679    -541.3449     102002.7      46.7237      46.7237      46.7237 
  324000    113.28828   -7830.3117   -7174.1784   -740.45161     102002.7      46.7237      46.7237      46.7237 
  325000     110.3525    -7850.869   -7211.7389     -759.765     102002.7      46.7237      46.7237      46.7237 
  326000    112.10445   -7847.4615   -7198.1846   -624.91322     102002.7      46.7237      46.7237      46.7237 
  327000    108.11232   -7855.0698   -7228.9142   -861.78431     102002.7      46.7237      46.7237      46.7237 
  328000    108.43222   -7842.8968   -7214.8884   -637.90747     102002.7      46.7237      46.7237      46.7237 
  329000     109.4991   -7845.5596   -7211.3721    -556.8836     102002.7      46.7237      46.7237      46.7237 
  330000    110.77043   -7844.0184   -7202.4678   -839.03581     102002.7      46.7237      46.7237      46.7237 
  331000    111.00204   -7841.6499   -7198.7578   -923.78311     102002.7      46.7237      46.7237      46.7237 
  332000    111.97681   -7837.9482   -7189.4105   -832.22434     102002.7      46.7237      46.7237      46.7237 
  333000    112.25849   -7849.8964   -7199.7273   -741.34863     102002.7      46.7237      46.7237      46.7237 
  334000    111.59177   -7861.4466    -7215.139    -556.1986     102002.7      46.7237      46.7237      46.7237 
  335000    108.45256   -7861.1254   -7232.9991   -654.27565     102002.7      46.7237      46.7237      46.7237 
  336000    109.53126   -7861.1653   -7226.7916   -861.12792     102002.7      46.7237      46.7237      46.7237 
  337000    108.41546   -7861.2157   -7233.3043   -665.55174     102002.7      46.7237      46.7237      46.7237 
  338000    108.53011   -7868.9536   -7240.3782   -871.78083     102002.7      46.7237      46.7237      46.7237 
  339000    109.39196   -7863.9305   -7230.3636   -782.69987     102002.7      46.7237      46.7237      46.7237 
  340000    108.45572   -7868.0922   -7239.9477   -974.31016     102002.7      46.7237      46.7237      46.7237 
  341000    111.35902   -7852.7416    -7207.782   -630.03761     102002.7      46.7237      46.7237      46.7237 
  342000    103.43709   -7865.5026   -7266.4245   -650.47663     102002.7      46.7237      46.7237      46.7237 
  343000    110.34336   -7838.8453   -7199.7682   -701.52765     102002.7      46.7237      46.7237      46.7237 
  344000    111.47665   -7842.4857   -7196.8448   -522.07401     102002.7      46.7237      46.7237      46.7237 
  345000    110.18823   -7863.7652   -7225.5865   -571.00746     102002.7      46.7237      46.7237      46.7237 
  346000    110.30784   -7861.2286   -7222.3571   -598.46177     102002.7      46.7237      46.7237      46.7237 
  347000    110.53288   -7843.6821   -7203.5072   -703.31588     102002.7      46.7237      46.7237      46.7237 
  348000    111.20045    -7834.639   -7190.5978   -618.54136     102002.7      46.7237      46.7237      46.7237 
  349000      107.461   -7816.6733   -7194.2899   -708.97042     102002.7      46.7237      46.7237      46.7237 
  350000    112.74323   -7816.8801   -7163.9035   -758.60613     102002.7      46.7237      46.7237      46.7237 
  351000    107.44427   -7851.6053   -7229.3188   -749.01419     102002.7      46.7237      46.7237      46.7237 
  352000    109.90739   -7859.8461   -7223.2939   -770.55509     102002.7      46.7237      46.7237      46.7237 
  353000     109.6071   -7863.1252   -7228.3122   -804.52668     102002.7      46.7237      46.7237      46.7237 
  354000    108.91899   -7873.8484   -7243.0207   -759.26616     102002.7      46.7237      46.7237      46.7237 
  355000    109.70158   -7850.1921   -7214.8319   -1099.9672     102002.7      46.7237      46.7237      46.7237 
  356000    107.03717   -7862.9627    -7243.034   -926.29795     102002.7      46.7237      46.7237      46.7237 
  357000    106.56384   -7844.4554   -7227.2681   -973.79024     102002.7      46.7237      46.7237      46.7237 
  358000     110.3779    -7851.377   -7212.0998   -779.44944     102002.7      46.7237      46.7237      46.7237 
  359000    109.49317   -7864.8703   -7230.7171    -888.4768     102002.7      46.7237      46.7237      46.7237 
  360000    106.88869   -7854.5557    -7235.487   -868.08138     102002.7      46.7237      46.7237      46.7237 
  361000    109.14181   -7865.3669   -7233.2488   -602.26261     102002.7      46.7237      46.7237      46.7237 
  362000    109.05568   -7849.8359   -7218.2166   -687.85399     102002.7      46.7237      46.7237      46.7237 
  363000    109.54085   -7847.6251   -7213.1959   -1036.2324     102002.7      46.7237      46.7237      46.7237 
  364000    109.62205    -7854.752   -7219.8524   -641.21692     102002.7      46.7237      46.7237      46.7237 
  365000    108.28055   -7854.2124   -7227.0825   -787.31136     102002.7      46.7237      46.7237      46.7237 
  366000    111.07727    -7872.318   -7228.9903   -607.91487     102002.7      46.7237      46.7237      46.7237 
  367000    109.68835   -7849.7343   -7214.4508   -814.53331     102002.7      46.7237      46.7237      46.7237 
  368000    110.59487   -7851.7902   -7211.2564   -702.25206     102002.7      46.7237      46.7237      46.7237 
  369000    109.40967   -7848.4124   -7214.7429   -683.78669     102002.7      46.7237      46.7237      46.7237 
  370000    108.75964    -7870.213   -7240.3083   -807.13039     102002.7      46.7237      46.7237      46.7237 
  371000    110.46369   -7836.6645   -7196.8904   -388.24844     102002.7      46.7237      46.7237      46.7237 
  372000    108.41681   -7872.8557   -7244.9365   -628.64235     102002.7      46.7237      46.7237      46.7237 
  373000    107.61579   -7867.1874   -7243.9075    -638.2056     102002.7      46.7237      46.7237      46.7237 
  374000    112.32901   -7832.3761   -7181.7986    -784.4148     102002.7      46.7237      46.7237      46.7237 
  375000    110.36959   -7842.5175   -7203.2885   -556.75227     102002.7      46.7237      46.7237      46.7237 
  376000    110.21195   -7835.1029   -7196.7868   -296.78286     102002.7      46.7237      46.7237      46.7237 
  377000    109.69071   -7852.3968   -7217.0996   -1267.0493     102002.7      46.7237      46.7237      46.7237 
  378000    113.52781   -7830.3793   -7172.8587   -556.39508     102002.7      46.7237      46.7237      46.7237 
  379000    110.01394   -7856.9018   -7219.7326   -660.55421     102002.7      46.7237      46.7237      46.7237 
  380000    110.84047   -7831.8078   -7189.8515   -678.94481     102002.7      46.7237      46.7237      46.7237 
  381000    111.64752   -7849.5505     -7202.92   -888.79262     102002.7      46.7237      46.7237      46.7237 
  382000    108.50035   -7849.1507   -7220.7477   -891.13392     102002.7      46.7237      46.7237      46.7237 
  383000    112.08249   -7853.0854   -7203.9357    -684.0905     102002.7      46.7237      46.7237      46.7237 
  384000    112.26239   -7841.1136   -7190.9219   -961.48322     102002.7      46.7237      46.7237      46.7237 
  385000     109.4865   -7864.6715    -7230.557     -770.377     102002.7      46.7237      46.7237      46.7237 
  386000    109.69383   -7849.0976   -7213.7823   -600.85514     102002.7      46.7237      46.7237      46.7237 
  387000     109.2553   -7823.4045   -7190.6291   -955.44092     102002.7      46.7237      46.7237      46.7237 
  388000     108.6464   -7847.0577   -7217.8088   -863.83874     102002.7      46.7237      46.7237      46.7237 
  389000    109.75258   -7824.7878   -7189.1322   -832.96673     102002.7      46.7237      46.7237      46.7237 
  390000     111.7593   -7850.8135   -7203.5356   -940.56856     102002.7      46.7237      46.7237      46.7237 
  391000    111.69834   -7843.8542   -7196.9294   -613.45598     102002.7      46.7237      46.7237      46.7237 
  392000    109.26638   -7843.3688   -7210.5291   -869.75158     102002.7      46.7237      46.7237      46.7237 
  393000    109.16417   -7856.6632   -7224.4155   -848.15909     102002.7      46.7237      46.7237      46.7237 
  394000    108.90841    -7835.524   -7204.7577   -874.69956     102002.7      46.7237      46.7237      46.7237 
  395000    110.81665   -7812.7713    -7170.953   -879.81921     102002.7      46.7237      46.7237      46.7237 
  396000    110.45864   -7827.2252   -7187.4803   -912.84625     102002.7      46.7237      46.7237      46.7237 
  397000    104.55601   -7818.5792   -7213.0207   -707.34782     102002.7      46.7237      46.7237      46.7237 
  398000    110.91341    -7863.407   -7221.0283   -605.73167     102002.7      46.7237      46.7237      46.7237 
  399000    109.81328   -7846.0936   -7210.0864   -519.93681     102002.7      46.7237      46.7237      46.7237 
  400000    107.71787   -7840.6203   -7216.7492   -494.17529     102002.7      46.7237      46.7237      46.7237 
  401000    107.17588   -7856.0244   -7235.2924   -641.85904     102002.7      46.7237      46.7237      46.7237 
  402000     113.2483   -7860.7506   -7204.8488   -387.10329     102002.7      46.7237      46.7237      46.7237 
  403000    108.28686   -7852.4418   -7225.2753   -494.72866     102002.7      46.7237      46.7237      46.7237 
  404000    112.42899   -7839.0193   -7187.8627   -678.74078     102002.7      46.7237      46.7237      46.7237 
  405000    109.03595   -7817.8606   -7186.3555   -510.66813     102002.7      46.7237      46.7237      46.7237 
  406000    107.28818   -7850.2902   -7228.9078   -625.12987     102002.7      46.7237      46.7237      46.7237 
  407000     108.6986   -7823.8036   -7194.2524   -596.91936     102002.7      46.7237      46.7237      46.7237 
  408000    106.15753   -7864.9088   -7250.0747   -397.18729     102002.7      46.7237      46.7237      46.7237 
  409000    109.01017   -7828.9288   -7197.5731   -668.84705     102002.7      46.7237      46.7237      46.7237 
  410000    110.36494   -7842.6296   -7203.4274   -623.78172     102002.7      46.7237      46.7237      46.7237 
  411000    114.25921   -7837.5416    -7175.785   -419.34078     102002.7      46.7237      46.7237      46.7237 
  412000    108.80258   -7856.8868   -7226.7334    -397.6985     102002.7      46.7237      46.7237      46.7237 
  413000    112.11874   -7851.3746   -7202.0149   -565.78777     102002.7      46.7237      46.7237      46.7237 
  414000    109.91425   -7823.6287   -7187.0368   -484.33405     102002.7      46.7237      46.7237      46.7237 
  415000    109.31469   -7862.7526   -7229.6332   -489.02559     102002.7      46.7237      46.7237      46.7237 
  416000    109.56123   -7840.6276   -7206.0803   -698.31951     102002.7      46.7237      46.7237      46.7237 
  417000    107.63246   -7844.6904    -7221.314   -554.48711     102002.7      46.7237      46.7237      46.7237 
  418000     111.2136   -7848.6723    -7204.555   -1068.1721     102002.7      46.7237      46.7237      46.7237 
  419000    109.93028   -7862.6407   -7225.9559   -861.35899     102002.7      46.7237      46.7237      46.7237 
  420000    110.42264   -7862.9782   -7223.4419   -1000.8523     102002.7      46.7237      46.7237      46.7237 
  421000    111.34952   -7845.4061   -7200.5015   -680.75881     102002.7      46.7237      46.7237      46.7237 
  422000    107.78602   -7843.0163   -7218.7505   -532.84918     102002.7      46.7237      46.7237      46.7237 
  423000    114.37613   -7848.3682   -7185.9344   -588.67543     102002.7      46.7237      46.7237      46.7237 
  424000     109.3868     -7839.65    -7206.113   -645.75407     102002.7      46.7237      46.7237      46.7237 
  425000    110.03113   -7823.9054   -7186.6366   -719.22246     102002.7      46.7237      46.7237      46.7237 
  426000    113.53558   -7858.9171   -7201.3515   -646.01558     102002.7      46.7237      46.7237      46.7237 
  427000    107.00928   -7851.8032   -7232.0361   -731.92589     102002.7      46.7237      46.7237      46.7237 
  428000    111.71998   -7836.2415   -7189.1913   -488.87634     102002.7      46.7237      46.7237      46.7237 
  429000    107.69604   -7832.3714   -7208.6267   -424.45863     102002.7      46.7237      46.7237      46.7237 
  430000    109.71016   -7828.5028    -7193.093   -529.43788     102002.7      46.7237      46.7237      46.7237 
  431000    108.80013    -7844.264   -7214.1248   -664.87208     102002.7      46.7237      46.7237      46.7237 
  432000    113.65114   -7839.1985   -7180.9637   -830.70811     102002.7      46.7237      46.7237      46.7237 
  433000    110.16312   -7844.3524   -7206.3192   -792.43658     102002.7      46.7237      46.7237      46.7237 
  434000    114.00917    -7854.218   -7193.9095   -709.82486     102002.7      46.7237      46.7237      46.7237 
  435000    109.73869   -7855.1289   -7219.5538   -651.71628     102002.7      46.7237      46.7237      46.7237 
  436000    109.18241   -7848.4322   -7216.0789   -442.40669     102002.7      46.7237      46.7237      46.7237 
  437000    114.82307   -7875.8668   -7210.8444   -770.66916     102002.7      46.7237      46.7237      46.7237 
  438000    109.67851   -7846.7099   -7211.4834   -1001.4093     102002.7      46.7237      46.7237      46.7237 
  439000    107.69018   -7855.2817    -7231.571   -744.73964     102002.7      46.7237      46.7237      46.7237 
  440000     111.0642    -7864.512     -7221.26   -793.07456     102002.7      46.7237      46.7237      46.7237 
  441000    112.60208   -7839.6064   -7187.4474   -641.45643     102002.7      46.7237      46.7237      46.7237 
  442000    110.18094    -7831.213   -7193.0765   -629.83875     102002.7      46.7237      46.7237      46.7237 
  443000    107.53396   -7850.4437   -7227.6378   -853.44104     102002.7      46.7237      46.7237      46.7237 
  444000    111.62803    -7861.069   -7214.5514   -679.48126     102002.7      46.7237      46.7237      46.7237 
  445000    109.52668   -7852.4391    -7218.092   -684.33229     102002.7      46.7237      46.7237      46.7237 
  446000    107.64755    -7839.253   -7215.7892   -693.52427     102002.7      46.7237      46.7237      46.7237 
  447000    107.53479   -7834.2147   -7211.4039   -939.09648     102002.7      46.7237      46.7237      46.7237 
  448000    111.28918   -7842.6344   -7198.0793   -878.20324     102002.7      46.7237      46.7237      46.7237 
  449000    107.85467   -7838.0615   -7213.3981   -834.09754     102002.7      46.7237      46.7237      46.7237 
  450000    108.16108   -7854.9383   -7228.5003   -1016.2538     102002.7      46.7237      46.7237      46.7237 
  451000    112.84214   -7860.1439   -7206.5945   -847.73416     102002.7      46.7237      46.7237      46.7237 
  452000    110.68786   -7843.7518   -7202.6794   -765.57818     102002.7      46.7237      46.7237      46.7237 
  453000    110.07761   -7839.6637   -7202.1257    -609.0425     102002.7      46.7237      46.7237      46.7237 
  454000    107.43605   -7841.5985   -7219.3596   -664.56309     102002.7      46.7237      46.7237      46.7237 
  455000    110.79521   -7855.5767   -7213.8826   -1002.1726     102002.7      46.7237      46.7237      46.7237 
  456000    109.62522   -7847.0556   -7212.1377   -528.15608     102002.7      46.7237      46.7237      46.7237 
  457000    105.57554   -7852.7847   -7241.3214   -780.26423     102002.7      46.7237      46.7237      46.7237 
  458000    111.47415   -7870.4693   -7224.8429   -617.94349     102002.7      46.7237      46.7237      46.7237 
  459000    108.90589   -7842.1108    -7211.359   -628.78372     102002.7      46.7237      46.7237      46.7237 
  460000    106.76091   -7857.2089   -7238.8803   -606.58464     102002.7      46.7237      46.7237      46.7237 
  461000    108.79382   -7842.9432   -7212.8404   -356.59868     102002.7      46.7237      46.7237      46.7237 
  462000    108.83501   -7866.4945   -7236.1533   -702.54699     102002.7      46.7237      46.7237      46.7237 
  463000    112.09488   -7856.2511   -7207.0296   -756.89378     102002.7      46.7237      46.7237      46.7237 
  464000    109.75594   -7871.6613   -7235.9863   -944.37043     102002.7      46.7237      46.7237      46.7237 
  465000    110.61696   -7857.3732   -7216.7114   -646.51115     102002.7      46.7237      46.7237      46.7237 
  466000    107.36368   -7862.0773   -7240.2576   -741.92332     102002.7      46.7237      46.7237      46.7237 
  467000     110.4762   -7870.5916   -7230.7451   -735.97145     102002.7      46.7237      46.7237      46.7237 
  468000    110.80791   -7831.4343   -7189.6666   -642.88973     102002.7      46.7237      46.7237      46.7237 
  469000    110.42163   -7858.7884   -7219.2579   -939.45666     102002.7      46.7237      46.7237      46.7237 
  470000    108.22603   -7869.9261   -7243.1119   -717.09237     102002.7      46.7237      46.7237      46.7237 
  471000    109.51087   -7838.2013   -7203.9457   -778.12435     102002.7      46.7237      46.7237      46.7237 
  472000    109.88043   -7862.5282   -7226.1322   -489.90705     102002.7      46.7237      46.7237      46.7237 
  473000    113.52231   -7848.2764   -7190.7876   -574.25984     102002.7      46.7237      46.7237      46.7237 
  474000    110.86253   -7860.6506   -7218.5666   -985.87829     102002.7      46.7237      46.7237      46.7237 
  475000    105.93776    -7844.799   -7231.2379   -529.95108     102002.7      46.7237      46.7237      46.7237 
  476000    108.48214   -7845.4539   -7217.1564   -719.27526     102002.7      46.7237      46.7237      46.7237 
  477000    111.89145   -7847.9654   -7199.9221   -762.41447     102002.7      46.7237      46.7237      46.7237 
  478000    105.85047   -7858.7537    -7245.698   -623.51034     102002.7      46.7237      46.7237      46.7237 
  479000    108.16562   -7857.7464   -7231.2821   -722.28568     102002.7      46.7237      46.7237      46.7237 
  480000    110.96944   -7823.7022    -7180.999   -584.96896     102002.7      46.7237      46.7237      46.7237 
  481000    108.82725   -7839.6468   -7209.3505   -862.40987     102002.7      46.7237      46.7237      46.7237 
  482000    111.63889   -7855.1812   -7208.6007   -874.14514     102002.7      46.7237      46.7237      46.7237 
  483000    110.71927   -7856.5798   -7215.3255   -613.31694     102002.7      46.7237      46.7237      46.7237 
  484000     114.6871   -7854.0966   -7189.8617   -842.91498     102002.7      46.7237      46.7237      46.7237 
  485000    109.03493   -7824.4821    -7192.983   -700.18265     102002.7      46.7237      46.7237      46.7237 
  486000    108.51465   -7847.7176   -7219.2318   -666.20809     102002.7      46.7237      46.7237      46.7237 
  487000    109.81554   -7846.1518   -7210.1316    -748.0026     102002.7      46.7237      46.7237      46.7237 
  488000    108.74499   -7852.4411   -7222.6212   -1082.3188     102002.7      46.7237      46.7237      46.7237 
  489000    109.40801   -7836.1708   -7202.5109   -1024.2342     102002.7      46.7237      46.7237      46.7237 
  490000    112.33487   -7845.9159   -7195.3045   -882.30332     102002.7      46.7237      46.7237      46.7237 
  491000    111.28825     -7859.03   -7214.4803   -1011.5158     102002.7      46.7237      46.7237      46.7237 
  492000    113.49616   -7873.5228   -7216.1855   -510.59079     102002.7      46.7237      46.7237      46.7237 
  493000    111.41701   -7855.4108   -7210.1153   -532.82618     102002.7      46.7237      46.7237      46.7237 
  494000     108.7714   -7862.6991   -7232.7263   -815.53503     102002.7      46.7237      46.7237      46.7237 
  495000    110.57278   -7849.1074   -7208.7015   -579.07487     102002.7      46.7237      46.7237      46.7237 
  496000    107.25847   -7857.8405   -7236.6301   -644.88885     102002.7      46.7237      46.7237      46.7237 
  497000    112.15712   -7843.9503   -7194.3684   -768.96308     102002.7      46.7237      46.7237      46.7237 
  498000    110.62894   -7856.5881   -7215.8569   -921.98542     102002.7      46.7237      46.7237      46.7237 
  499000    110.54907   -7810.4642   -7170.1956   -772.57234     102002.7      46.7237      46.7237      46.7237 
  500000    108.53734   -7841.2735   -7212.6563   -873.67887     102002.7      46.7237      46.7237      46.7237 
  500501    112.88135   -7874.0264   -7220.2499   -481.58514     102002.7      46.7237      46.7237      46.7237 
Loop time of 630.129 on 24 procs for 500000 steps with 1944 atoms

Performance: 68.557 ns/day, 0.350 hours/ns, 793.488 timesteps/s
99.8% CPU use with 24 MPI tasks x no OpenMP threads

MPI task timing breakdown:
Section |  min time  |  avg time  |  max time  |%varavg| %total
---------------------------------------------------------------
Pair    | 183.91     | 296.44     | 430.02     | 401.3 | 47.04
Bond    | 62.799     | 78.82      | 97.314     | 129.4 | 12.51
Neigh   | 3.0958     | 3.1225     | 3.1445     |   0.9 |  0.50
Comm    | 93.546     | 244.2      | 361.52     | 489.4 | 38.75
Output  | 0.35941    | 0.35971    | 0.36371    |   0.1 |  0.06
Modify  | 3.4796     | 4.0628     | 4.392      |  11.2 |  0.64
Other   |            | 3.124      |            |       |  0.50

Nlocal:    81 ave 108 max 60 min
Histogram: 3 2 3 4 1 5 1 3 0 2
Nghost:    2200.92 ave 2355 max 2099 min
Histogram: 4 11 1 0 0 0 0 0 2 6
Neighs:    7645.38 ave 13797 max 4350 min
Histogram: 3 3 5 5 4 0 2 1 0 1

Total # of neighbors = 183489
Ave neighs/atom = 94.3873
Ave special neighs/atom = 5.92593
Neighbor list builds = 4284
Dangerous builds = 0
Neighbor list info ...
  update every 1 steps, delay 10 steps, check yes
  max neighbors/atom: 2000, page size: 100000
  master list distance cutoff = 16
  ghost atom cutoff = 16
  binsize = 8, bins = 6 6 6
  3 neighbor lists, perpetual/occasional/extra = 3 0 0
  (1) pair buck6d/coul/gauss/dsf, perpetual, skip from (3)
      attributes: half, newton on
      pair build: skip
      stencil: none
      bin: none
  (2) pair lj/cut, perpetual, skip from (3)
      attributes: half, newton on
      pair build: skip
      stencil: none
      bin: none
  (3) neighbor class addition, perpetual
      attributes: half, newton on
      pair build: half/bin/newton
      stencil: half/bin/3d/newton
      bin: standard
Setting up Verlet run ...
  Unit style    : real
  Current step  : 500501
  Time step     : 1
WARNING: Inconsistent image flags (../domain.cpp:786)
Per MPI rank memory allocation (min/avg/max) = 24.12 | 24.47 | 24.59 Mbytes
Step Time TotEng KinEng PotEng E_mol E_pair Temp Pxx Pyy Pzz Pxy Pxz Pyz Cella Cellb Cellc CellAlpha CellBeta CellGamma Volume Press 
  500501       500000   -7220.2499    653.77651   -7874.0264    4248.9274   -12122.954    112.88135   -668.41527   -591.69996   -184.64019   -89.313706     69.23982    9.0064604      46.7237      46.7237      46.7237           90           90           90     102002.7   -481.58514 
  501000       500499   -7208.6811    634.90506   -7843.5862    4285.9415   -12129.528      109.623   -445.44151   -1125.7803   -491.40665    32.693078   -111.54456   -118.16588      46.7237      46.7237      46.7237           90           90           90     102002.7   -687.54282 
  502000       501499   -7190.9939    638.38629   -7829.3802    4277.2973   -12106.677    110.22407   -530.23286   -1145.2244    4.5312165    193.83693    68.665959    -288.6695      46.7237      46.7237      46.7237           90           90           90     102002.7   -556.97534 
  503000       502499   -7219.0236    632.84961   -7851.8732    4261.2695   -12113.143    109.26811   -724.16137   -527.72122    -1267.293    228.03345   -185.98331    -86.82808      46.7237      46.7237      46.7237           90           90           90     102002.7   -839.72521 
  504000       503499   -7214.7599    634.75478   -7849.5147    4281.1184   -12130.633    109.59705   -221.51808   -854.47946   -699.74862   -17.702798    54.652561   -111.42982      46.7237      46.7237      46.7237           90           90           90     102002.7   -591.91539 
  505000       504499   -7173.6036    656.91065   -7830.5143     4290.034   -12120.548     113.4225   -1018.5399   -744.64358   -607.41205   -82.657938    33.944521     285.0565      46.7237      46.7237      46.7237           90           90           90     102002.7   -790.19851 
  506000       505499   -7213.9495    622.32928   -7836.2788      4278.87   -12115.149    107.45166   -754.12059    -733.7536    -494.6929    212.51267    73.223554    342.38462      46.7237      46.7237      46.7237           90           90           90     102002.7    -660.8557 
  507000       506499   -7211.2367    630.75366   -7841.9904     4281.154   -12123.144    108.90622   -419.69933   -1167.7288   -557.39204   -217.11515    70.709335    7.6395143      46.7237      46.7237      46.7237           90           90           90     102002.7   -714.94005 
  508000       507499   -7229.2398    626.16437   -7855.4042     4282.262   -12137.666    108.11383   -816.22642   -395.97281   -733.91007   -53.468328   -301.51425    83.199911      46.7237      46.7237      46.7237           90           90           90     102002.7    -648.7031 
  509000       508499   -7190.8393    640.10503   -7830.9443    4308.4603   -12139.405    110.52083   -1072.5153    -382.0054    -898.6305   -75.742706   -78.132756    166.59464      46.7237      46.7237      46.7237           90           90           90     102002.7   -784.38373 
  510000       509499   -7220.6883    637.35541   -7858.0437    4273.5234   -12131.567    110.04608    -596.6521   -657.53438   -730.03803   -80.623667   -24.045759   -322.58016      46.7237      46.7237      46.7237           90           90           90     102002.7   -661.40817 
  511000       510499   -7220.4096    625.62967   -7846.0392    4270.1589   -12116.198    108.02151   -673.89607   -924.32338   -61.041763    51.983262    112.03031   -208.12763      46.7237      46.7237      46.7237           90           90           90     102002.7   -553.08707 
  512000       511499   -7201.7979    636.71978   -7838.5177    4296.2994   -12134.817    109.93633   -982.80878   -724.35316   -778.95978   -215.81474    144.94496    215.97448      46.7237      46.7237      46.7237           90           90           90     102002.7   -828.70724 
  513000       512499   -7215.8778    633.50355   -7849.3813    4292.0791    -12141.46    109.38102    -598.8109   -242.06236   -1038.7221     -37.3567    101.86619   -62.889334      46.7237      46.7237      46.7237           90           90           90     102002.7   -626.53178 
  514000       513499   -7207.3539    635.93165   -7843.2855    4290.3331   -12133.619    109.80025   -910.68755   -313.37448   -562.39639   -124.82407   -168.72244   -70.676034      46.7237      46.7237      46.7237           90           90           90     102002.7   -595.48614 
  515000       514499   -7222.4873    613.90974   -7836.3971     4300.974   -12137.371    105.99794   -866.00071   -891.89665   -336.49329   -113.85087    100.92266    168.77493      46.7237      46.7237      46.7237           90           90           90     102002.7   -698.13022 
  516000       515499   -7207.2401    640.44772   -7847.6879    4280.8478   -12128.536       110.58   -612.16491   -398.35978    -998.3722    183.42024   -253.27589   -197.18787      46.7237      46.7237      46.7237           90           90           90     102002.7    -669.6323 
  517000       516499   -7201.2245    634.31859    -7835.543    4300.4513   -12135.994    109.52174   -564.21094   -890.59082   -493.16032   -221.86484   -152.78694   -159.03433      46.7237      46.7237      46.7237           90           90           90     102002.7   -649.32069 
  518000       517499   -7230.3946    633.31539     -7863.71    4271.3671   -12135.077    109.34853   -827.12602   -481.58626   -719.51291    26.463997    126.69293    78.954652      46.7237      46.7237      46.7237           90           90           90     102002.7   -676.07507 
  519000       518499   -7214.7514    651.10022   -7865.8516    4273.3304   -12139.182    112.41926   -520.75313     -723.105   -699.32369   -69.643213   -11.321203    191.48961      46.7237      46.7237      46.7237           90           90           90     102002.7   -647.72727 
  520000       519499   -7201.4126    617.22931   -7818.6419    4299.6536   -12118.295     106.5711   -893.31342   -840.96711    -485.9287    135.49988   -207.58446    133.31353      46.7237      46.7237      46.7237           90           90           90     102002.7   -740.06974 
  521000       520499   -7230.8055    614.11122   -7844.9167    4292.1691   -12137.086    106.03273   -656.18249   -235.14826   -772.02198   -37.463262    161.28041    12.610032      46.7237      46.7237      46.7237           90           90           90     102002.7   -554.45091 
  522000       521499   -7197.1733    647.56973   -7844.7431    4289.7008   -12134.444    111.80969   -870.66312   -733.29113   -529.97742     543.4435   -40.985887    26.849496      46.7237      46.7237      46.7237           90           90           90     102002.7   -711.31056 
  523000       522499   -7208.3481    648.24093    -7856.589    4273.9251   -12130.514    111.92558   -1029.0116   -788.37977   -862.19812   -89.526209   -8.4410627    301.68663      46.7237      46.7237      46.7237           90           90           90     102002.7    -893.1965 
  524000       523499   -7225.6162    614.57754   -7840.1938    4300.7589   -12140.953    106.11324    -588.0678   -761.12852     -683.835    77.301363    14.974144    47.457582      46.7237      46.7237      46.7237           90           90           90     102002.7   -677.67711 
  525000       524499   -7214.8734    633.85023   -7848.7236    4262.9985   -12111.722    109.44087   -824.37613   -626.05774   -70.991775   -78.909667    275.77231     149.5885      46.7237      46.7237      46.7237           90           90           90     102002.7   -507.14188 
  526000       525499    -7245.396    621.57112   -7866.9672    4267.5515   -12134.519    107.32076   -786.36109   -608.36168   -540.12718    6.7025207    120.53508    72.291721      46.7237      46.7237      46.7237           90           90           90     102002.7   -644.94998 
  527000       526499   -7195.7334    647.92721   -7843.6606    4297.5543   -12141.215    111.87141   -546.88293   -756.01973   -607.47223    27.965891    47.093237    126.09577      46.7237      46.7237      46.7237           90           90           90     102002.7   -636.79163 
  528000       527499   -7232.4044    620.03543   -7852.4399    4274.9152   -12127.355     107.0556   -532.06739   -816.94726   -556.08628   -169.26216   -33.914911   -31.697593      46.7237      46.7237      46.7237           90           90           90     102002.7   -635.03364 
  529000       528499    -7190.824    639.27183   -7830.0959    4284.5004   -12114.596    110.37697   -628.76282   -650.74383   -532.11237   -49.656491    37.655333   -106.39803      46.7237      46.7237      46.7237           90           90           90     102002.7   -603.87301 
  530000       529499   -7255.4541    596.79292    -7852.247    4282.9742   -12135.221    103.04254   -748.66502   -465.56427   -214.08194   -13.460526   -157.71087     -30.6354      46.7237      46.7237      46.7237           90           90           90     102002.7   -476.10374 
  531000       530499   -7206.5625    640.17802   -7846.7406    4294.5183   -12141.259    110.53343   -664.69261   -859.55343   -936.15557    116.20888    21.198957    48.024655      46.7237      46.7237      46.7237           90           90           90     102002.7   -820.13387 
  532000       531499   -7213.3249    638.56112   -7851.8861    4309.4997   -12161.386    110.25426   -548.58985   -949.37249   -816.43862    160.68503   -114.06541   -4.0508925      46.7237      46.7237      46.7237           90           90           90     102002.7   -771.46699 
  533000       532499   -7232.5483    630.14849   -7862.6968     4274.418   -12137.115    108.80173   -845.09855   -1283.6295   -475.93634     -120.649   -354.53434    84.696238      46.7237      46.7237      46.7237           90           90           90     102002.7   -868.22147 
  534000       533499    -7194.625    652.38627   -7847.0113    4279.6706   -12126.682    112.64131   -1307.9332   -1033.8994   -731.81693     104.2062   -136.08109    11.718736      46.7237      46.7237      46.7237           90           90           90     102002.7   -1024.5499 
  535000       534499   -7226.1493    602.68709   -7828.8364    4316.7009   -12145.537    104.06023   -396.55851    -654.6333    -717.9916     -47.8516    56.858369   -16.204091      46.7237      46.7237      46.7237           90           90           90     102002.7    -589.7278 
  536000       535499   -7215.8423    635.96786   -7851.8101    4294.7932   -12146.603     109.8065   -616.48287   -666.43336   -866.16608   -79.375543    149.15692   -165.50519      46.7237      46.7237      46.7237           90           90           90     102002.7   -716.36077 
  537000       536499   -7228.1683      636.411   -7864.5793    4269.5609    -12134.14    109.88302   -423.48237   -632.95211   -697.58432    56.842851    101.27722    324.06883      46.7237      46.7237      46.7237           90           90           90     102002.7   -584.67293 
  538000       537499   -7205.9336    646.47255   -7852.4062    4280.9718   -12133.378    111.62025   -533.62441   -996.59765   -782.51045   -46.383509   -81.950092    170.12236      46.7237      46.7237      46.7237           90           90           90     102002.7   -770.91084 
  539000       538499   -7205.9322    629.41942   -7835.3516    4291.1868   -12126.538    108.67585   -323.94165   -695.31691   -865.82323   -398.02023   -107.78122   -107.68965      46.7237      46.7237      46.7237           90           90           90     102002.7    -628.3606 
  540000       539499   -7212.4268     640.0541   -7852.4809    4260.0154   -12112.496    110.51204    -565.5283   -14.743057   -764.72755    133.34537   -150.78892   -178.89945      46.7237      46.7237      46.7237           90           90           90     102002.7   -448.33297 
  541000       540499   -7231.0939    623.99901   -7855.0929    4272.4359   -12127.529    107.73996   -177.94953   -409.09485   -639.56666   -33.852558  -0.60665181   -123.37898      46.7237      46.7237      46.7237           90           90           90     102002.7   -408.87035 
  542000       541499   -7224.4266    621.96967   -7846.3963    4288.7169   -12135.113    107.38957   -688.94231   -751.99366   -1073.5428    172.89242    69.212248   -116.43919      46.7237      46.7237      46.7237           90           90           90     102002.7    -838.1596 
  543000       542499   -7202.7669    634.65945   -7837.4264    4281.1393   -12118.566    109.58059   -651.71154   -643.25378   -297.56525   -246.81892   -412.91199    406.60823      46.7237      46.7237      46.7237           90           90           90     102002.7   -530.84352 
  544000       543499   -7196.6738    652.07694   -7848.7508    4271.6359   -12120.387    112.58791   -371.50174   -837.80886    -646.8249    107.06161    131.33669     45.54462      46.7237      46.7237      46.7237           90           90           90     102002.7   -618.71183 
  545000       544499   -7215.4467    648.63779   -7864.0845    4272.1553    -12136.24     111.9941   -474.82196   -751.13425   -982.48348    142.60853   -125.83747   -41.163734      46.7237      46.7237      46.7237           90           90           90     102002.7   -736.14656 
  546000       545499   -7221.7593    614.89667    -7836.656    4311.4234   -12148.079    106.16834   -751.03322    -487.5216   -938.64704   -208.83989    32.806201    103.19035      46.7237      46.7237      46.7237           90           90           90     102002.7   -725.73395 
  547000       546499   -7200.7741    633.13868   -7833.9128    4282.1932   -12116.106    109.31802   -860.73579   -764.98497   -483.03072    84.117539     -97.8173    109.75803      46.7237      46.7237      46.7237           90           90           90     102002.7   -702.91716 
  548000       547499   -7220.2171    619.22779   -7839.4449    4273.9929   -12113.438    106.91616   -1027.6218   -949.81066   -911.38545    29.305443    -101.7912   -118.70596      46.7237      46.7237      46.7237           90           90           90     102002.7    -962.9393 
  549000       548499   -7223.4676    627.66866   -7851.1362    4282.9749   -12134.111    108.37356   -440.86956   -742.43858   -603.22654    54.348846    107.83144    7.3924799      46.7237      46.7237      46.7237           90           90           90     102002.7   -595.51156 
  550000       549499   -7212.4163    643.16894   -7855.5853    4272.6758   -12128.261    111.04985   -865.25445   -789.16589   -432.45632    46.405091   -97.264133    83.141649      46.7237      46.7237      46.7237           90           90           90     102002.7   -695.62555 
  551000       550499   -7236.4057    621.64523   -7858.0509     4280.254   -12138.305    107.33355   -1260.1634   -1173.3766   -433.22076    13.443278    239.12757    184.22958      46.7237      46.7237      46.7237           90           90           90     102002.7   -955.58692 
  552000       551499   -7220.6692    636.34985    -7857.019    4250.7405    -12107.76    109.87246   -345.35668   -430.26897   -828.78876    161.44432   -137.20826     206.7028      46.7237      46.7237      46.7237           90           90           90     102002.7    -534.8048 
  553000       552499   -7184.4733    656.89967    -7841.373    4291.9559   -12133.329     113.4206   -639.78354   -833.78395   -613.25085   -238.39522   -361.91119   -104.47019      46.7237      46.7237      46.7237           90           90           90     102002.7   -695.60612 
  554000       553499   -7229.3681    635.94458   -7865.3127    4275.9293   -12141.242    109.80248   -876.97064     -751.199    -830.3308    -106.0271   -223.41603   -28.736663      46.7237      46.7237      46.7237           90           90           90     102002.7   -819.50015 
  555000       554499   -7250.2104    626.34287   -7876.5533    4274.3012   -12150.854    108.14465   -1087.4938   -402.90422    -741.0241   -108.32675   -34.915228   -9.4218691      46.7237      46.7237      46.7237           90           90           90     102002.7   -743.80739 
[...]
  936000       935499   -7201.1128    637.60015   -7838.7129    4295.7958   -12134.509    110.08834   -777.77267    -968.6131   -559.74128   -98.508329   -113.87098     281.1897      46.7237      46.7237      46.7237           90           90           90     102002.7   -768.70902 
  937000       936499   -7180.5384    657.47461    -7838.013    4282.4577   -12120.471    113.51987   -620.50207   -148.79626   -783.37706   -51.743506   -198.15498    64.243488      46.7237      46.7237      46.7237           90           90           90     102002.7   -517.55847 
  938000       937499   -7215.0472     642.3598    -7857.407    4275.5711   -12132.978    110.91014   -505.07732   -813.21687   -539.23007    224.27514    45.395971     301.4243      46.7237      46.7237      46.7237           90           90           90     102002.7   -619.17475 
  939000       938499   -7243.3086    612.04016   -7855.3487    4280.9977   -12136.346    105.67514   -625.34627   -1036.5917   -393.88447    117.97021    23.641916   -101.46521      46.7237      46.7237      46.7237           90           90           90     102002.7   -685.27414 
  940000       939499   -7219.1577    635.74612   -7854.9039     4284.206    -12139.11    109.76822   -398.75041   -270.28152   -200.10437   -314.63542     14.51074   -480.47572      46.7237      46.7237      46.7237           90           90           90     102002.7    -289.7121 
  941000       940499   -7217.3475    638.80032   -7856.1478    4288.5346   -12144.682    110.29556   -1013.9413   -827.66735   -456.00224   -79.244916    178.14043   -27.185207      46.7237      46.7237      46.7237           90           90           90     102002.7   -765.87031 
  942000       941499   -7230.7817     631.0283     -7861.81    4256.9001    -12118.71    108.95364   -297.56193   -333.04063   -695.05606   -96.152648    -1.648987    49.966729      46.7237      46.7237      46.7237           90           90           90     102002.7   -441.88621 
  943000       942499   -7201.6647     649.6999   -7851.3646    4289.0116   -12140.376    112.17749   -876.69269   -746.55886   -1013.4712   -194.38273   -192.15166   -125.26328      46.7237      46.7237      46.7237           90           90           90     102002.7    -878.9076 
  944000       943499   -7212.6884    649.29185   -7861.9802    4271.1387   -12133.119    112.10703   -985.22475   -851.23536    -608.5944   -242.64332    124.82382   -273.95478      46.7237      46.7237      46.7237           90           90           90     102002.7   -815.01817 
  945000       944499   -7221.8913     644.7462   -7866.6375    4275.5431   -12142.181    111.32218   -512.43429   -704.45078    181.05695   -20.731373   -210.17379    158.57602      46.7237      46.7237      46.7237           90           90           90     102002.7   -345.27604 
  946000       945499   -7236.3541     615.8026   -7852.1567    4279.0801   -12131.237    106.32476   -528.12939   -445.53001   -535.09731    76.008987   0.84194608    82.368977      46.7237      46.7237      46.7237           90           90           90     102002.7   -502.91891 
  947000       946499   -7228.6692    636.19694   -7864.8661    4262.4939    -12127.36    109.84606   -734.12298   -360.43195   -159.10925    134.56685   -20.056901    118.25552      46.7237      46.7237      46.7237           90           90           90     102002.7   -417.88806 
  948000       947499   -7212.5712    630.55584    -7843.127    4289.8969   -12133.024    108.87206   -821.14291   -1026.0321   -554.09304    -64.73206   -140.17345    27.208337      46.7237      46.7237      46.7237           90           90           90     102002.7    -800.4227 
  949000       948499   -7223.8137    631.36144   -7855.1752    4281.8001   -12136.975    109.01116    -1324.591   -663.04301   -928.67369   -50.073735   -161.57668   -112.25006      46.7237      46.7237      46.7237           90           90           90     102002.7   -972.10258 
  950000       949499   -7209.8936    647.82797   -7857.7216    4267.6949   -12125.416    111.85428   -303.46392   -601.35601   -663.24187    16.474289   -11.569206    56.720279      46.7237      46.7237      46.7237           90           90           90     102002.7   -522.68727 
  951000       950499   -7173.4775    648.58661   -7822.0641    4327.2878   -12149.352    111.98526   -963.86924   -1029.4314   -620.60873    279.80976    106.41618    48.639518      46.7237      46.7237      46.7237           90           90           90     102002.7   -871.30311 
  952000       951499   -7213.1445    625.10299   -7838.2475    4278.6937   -12116.941    107.93057   -944.45212   -617.93176    -567.7779    30.800968   -219.12959   -56.497232      46.7237      46.7237      46.7237           90           90           90     102002.7   -710.05393 
  953000       952499   -7203.6421    650.11677   -7853.7588    4286.7103   -12140.469    112.24946   -560.36886   -610.06736   -818.38013    -33.03509    131.71631   -256.95446      46.7237      46.7237      46.7237           90           90           90     102002.7   -662.93878 
  954000       953499   -7217.1331    641.86989    -7859.003    4270.0423   -12129.045    110.82555   -850.41133   -880.11854   -358.61105    37.687861    1.3399606   -125.45779      46.7237      46.7237      46.7237           90           90           90     102002.7   -696.38031 
  955000       954499   -7204.7109    630.93497   -7835.6459    4299.8451   -12135.491    108.93752   -111.32883   -353.82411   -668.15784    125.19607   -61.037057   -41.443229      46.7237      46.7237      46.7237           90           90           90     102002.7   -377.77026 
  956000       955499   -7230.2048    631.53635   -7861.7412    4269.5438   -12131.285    109.04136   -697.15222   -555.10875   -547.98565   -33.993844    195.51827    69.922257      46.7237      46.7237      46.7237           90           90           90     102002.7    -600.0822 
  957000       956499   -7218.4459    619.82634   -7838.2723    4310.9232   -12149.195     107.0195   -728.15249   -528.85943   -699.46025    207.64059   -73.388281    4.5495007      46.7237      46.7237      46.7237           90           90           90     102002.7   -652.15739 
  958000       957499   -7206.7182    633.70887   -7840.4271    4298.7735   -12139.201    109.41647    -574.9977   -1010.2593   -987.03261    181.75164   -156.99144    -18.08435      46.7237      46.7237      46.7237           90           90           90     102002.7   -857.42986 
  959000       958499   -7212.2024    639.91722   -7852.1196     4288.651   -12140.771     110.4884   -232.01519   -780.00889   -329.44374    73.036133    137.00781   -65.981613      46.7237      46.7237      46.7237           90           90           90     102002.7   -447.15594 
  960000       959499    -7250.253    606.17817   -7856.4311    4286.2482   -12142.679      104.663   -552.39885   -517.54581   -834.29104   -240.38787    -264.6561    37.433909      46.7237      46.7237      46.7237           90           90           90     102002.7   -634.74523 
  961000       960499   -7225.2917    638.51904   -7863.8107    4263.3447   -12127.155    110.24699   -359.95151   -879.36009   -378.87657   -286.83712   -168.96197    -271.4896      46.7237      46.7237      46.7237           90           90           90     102002.7   -539.39605 
  962000       961499   -7227.1576    619.91349    -7847.071    4293.8104   -12140.881    107.03455   -645.62983    -528.4396   -800.77161   -201.66423    30.494231    54.549514      46.7237      46.7237      46.7237           90           90           90     102002.7   -658.28035 
  963000       962499   -7209.4457    637.95592   -7847.4016    4275.7464   -12123.148    110.14976    -676.2635   -561.22556   -418.70984     103.3517    65.914554    83.194064      46.7237      46.7237      46.7237           90           90           90     102002.7    -552.0663 
  964000       963499   -7215.9947     645.8122   -7861.8069     4281.137   -12142.944    111.50623   -765.31773   -1072.9279   -904.97285    21.895949    -36.67204   -188.82433      46.7237      46.7237      46.7237           90           90           90     102002.7   -914.40617 
  965000       964499   -7218.1958    645.13296   -7863.3288    4263.3336   -12126.662    111.38895   -809.55079   -1025.5936   -650.71189   -118.07723   -148.73255    42.703124      46.7237      46.7237      46.7237           90           90           90     102002.7   -828.61878 
  966000       965499   -7254.5307    618.98963   -7873.5204    4275.4465   -12148.967    106.87504   -171.12399   -928.14145   -265.52356    68.698542     109.6381   -111.47082      46.7237      46.7237      46.7237           90           90           90     102002.7   -454.92967 
  967000       966499   -7199.0537    654.12703   -7853.1807    4290.4299   -12143.611    112.94187   -1068.6494   -768.82034   -520.74641   -75.195793    213.50136   -144.70499      46.7237      46.7237      46.7237           90           90           90     102002.7   -786.07204 
  968000       967499   -7239.8198    629.81177   -7869.6316    4270.7463   -12140.378    108.74359    -1004.628   -697.15571   -621.69579   -238.85061    169.05458   -149.64128      46.7237      46.7237      46.7237           90           90           90     102002.7   -774.49317 
  969000       968499   -7234.6855    625.06227   -7859.7478    4287.2724    -12147.02    107.92354   -696.71386   -967.35238   -433.75875   -134.71809   -73.181541    85.814652      46.7237      46.7237      46.7237           90           90           90     102002.7     -699.275 
  970000       969499   -7206.1135     632.7247   -7838.8382    4297.6915    -12136.53    109.24654   -971.57038   -1644.8029   -727.99867   -104.61309   -187.82149    58.111089      46.7237      46.7237      46.7237           90           90           90     102002.7   -1114.7906 
  971000       970499   -7187.5399     662.0599   -7849.5998     4281.906   -12131.506    114.31157   -960.73781   -659.59725    -459.7593    221.31279    22.065614    47.584805      46.7237      46.7237      46.7237           90           90           90     102002.7   -693.36479 
  972000       971499   -7194.5608    634.11751   -7828.6783    4315.1196   -12143.798    109.48702   -371.98683   -737.28798   -831.07172   -111.90751    162.96728    18.537989      46.7237      46.7237      46.7237           90           90           90     102002.7   -646.78218 
  973000       972499    -7213.441    642.68055   -7856.1216     4267.563   -12123.685    110.96552   -596.21279   -950.10236   -299.46444   -49.330594   -191.32961    332.06378      46.7237      46.7237      46.7237           90           90           90     102002.7   -615.25987 
  974000       973499    -7182.555    636.27351   -7818.8285    4304.1829   -12123.011    109.85928   -542.11729   -606.64093   -521.66568    69.098078   -131.17467   -61.131101      46.7237      46.7237      46.7237           90           90           90     102002.7   -556.80797 
  975000       974499   -7215.6776    630.97034   -7846.6479    4284.5943   -12131.242    108.94363   -615.82489     -505.506   -773.04725   -30.919659   -1.0029014   -98.444189      46.7237      46.7237      46.7237           90           90           90     102002.7   -631.45938 
  976000       975499   -7239.9147    619.36253   -7859.2772    4289.4241   -12148.701    106.93942   -973.29625     -880.564   -775.80105   -64.274494   -179.49683    53.056008      46.7237      46.7237      46.7237           90           90           90     102002.7   -876.55377 
  977000       976499   -7196.8807    639.97357   -7836.8543    4300.7555    -12137.61    110.49813   -939.96706    -510.1321   -669.93838    215.29899    -234.0357    78.104533      46.7237      46.7237      46.7237           90           90           90     102002.7   -706.67918 
  978000       977499   -7199.6849     624.4599   -7824.1448    4305.9394   -12130.084    107.81954   -948.29486   -845.44576    -684.6042    71.561398    -57.90624   -32.322028      46.7237      46.7237      46.7237           90           90           90     102002.7   -826.11494 
  979000       978499   -7245.5501    617.60929   -7863.1593    4270.5265   -12133.686     106.6367   -584.98461    -895.4004   -1314.6615    54.683752    6.1386027   -72.356033      46.7237      46.7237      46.7237           90           90           90     102002.7   -931.68216 
  980000       979499   -7213.2153    631.87519   -7845.0905    4283.9485   -12129.039    109.09986   -583.77955   -826.49063   -514.11953   -21.696278   -92.986928    208.00812      46.7237      46.7237      46.7237           90           90           90     102002.7   -641.46324 
  981000       980499   -7212.4372     633.0698    -7845.507    4273.5264   -12119.033    109.30612   -915.63424   -707.51248   -280.74538   -139.96367    135.14472     117.4717      46.7237      46.7237      46.7237           90           90           90     102002.7    -634.6307 
  982000       981499   -7217.4723    632.92662   -7850.3989    4300.2301   -12150.629     109.2814   -955.22736   -614.72168   -1046.5433    183.41375   -236.92256     127.2968      46.7237      46.7237      46.7237           90           90           90     102002.7   -872.16412 
  983000       982499   -7230.5514    622.92439   -7853.4757    4277.2297   -12130.705    107.55441   -360.16292   -1030.6423   -816.70564    14.778509    223.56569   -39.197296      46.7237      46.7237      46.7237           90           90           90     102002.7   -735.83695 
  984000       983499   -7199.9454    641.39824   -7841.3436    4311.2894   -12152.633    110.74412   -957.74146   -440.38163   -467.73507   -217.83035    43.909665    268.54528      46.7237      46.7237      46.7237           90           90           90     102002.7   -621.95272 
  985000       984499   -7198.7871    658.10265   -7856.8898    4266.1044   -12122.994    113.62831   -799.88564   -639.32979   -506.99407    -76.04786   -77.514489   -19.293064      46.7237      46.7237      46.7237           90           90           90     102002.7    -648.7365 
  986000       985499   -7234.3185    621.27126   -7855.5898    4289.8142   -12145.404    107.26898   -472.52447   -711.80486   -590.79074   -102.63894     -152.179    85.165569      46.7237      46.7237      46.7237           90           90           90     102002.7   -591.70669 
  987000       986499   -7224.0385    638.17774   -7862.2162    4261.0961   -12123.312    110.18806   -986.43027   -461.23187   -943.39055   -172.73908     88.19441   -144.74927      46.7237      46.7237      46.7237           90           90           90     102002.7   -797.01757 
  988000       987499   -7241.4672    631.10393   -7872.5712    4263.3658   -12135.937     108.9667   -581.64295   -537.46811   -545.02865   -81.544908    162.23224    80.622929      46.7237      46.7237      46.7237           90           90           90     102002.7   -554.71323 
  989000       988499   -7206.1976     636.2173   -7842.4149    4298.4904   -12140.905    109.84957   -8.5215238   -216.78846   -684.23552    207.77487    96.000185   -18.125554      46.7237      46.7237      46.7237           90           90           90     102002.7   -303.18183 
  990000       989499   -7219.3503    635.12853   -7854.4789    4289.3725   -12143.851    109.66158   -335.78729   -686.05812   -826.19811    205.35567    12.945157     424.1308      46.7237      46.7237      46.7237           90           90           90     102002.7    -616.0145 
  991000       990499   -7203.2817    634.60046   -7837.8821    4306.5854   -12144.468    109.57041   -534.63801   -774.27601   -516.57608    8.0368468    -26.71566   -121.35482      46.7237      46.7237      46.7237           90           90           90     102002.7    -608.4967 
  992000       991499   -7196.0037    631.76086   -7827.7646    4295.6677   -12123.432    109.08012   -481.82804   -524.63877   -981.45031   -12.565827   -62.877162   -132.03728      46.7237      46.7237      46.7237           90           90           90     102002.7   -662.63904 
  993000       992499    -7215.617    640.65257   -7856.2696    4284.4805    -12140.75    110.61537   -46.770886   -945.59708   -787.29775   -101.65397   -141.02267    301.71368      46.7237      46.7237      46.7237           90           90           90     102002.7   -593.22191 
  994000       993499   -7210.0249     637.9563   -7847.9812    4301.7191     -12149.7    110.14983   -874.48948    -425.0657   -832.35919   -19.340165    118.77044    289.50175      46.7237      46.7237      46.7237           90           90           90     102002.7   -710.63812 
  995000       994499   -7216.1668    656.78497   -7872.9517    4274.3652   -12147.317     113.4008    -871.1368   -1199.7842   -822.15775    364.96611      -98.525    128.88699      46.7237      46.7237      46.7237           90           90           90     102002.7    -964.3596 
  996000       995499   -7189.6182    638.92312   -7828.5413    4309.8095   -12138.351    110.31676   -334.58361   -836.31398   -358.89903    154.55537   -181.67864    70.846787      46.7237      46.7237      46.7237           90           90           90     102002.7   -509.93221 
  997000       996499   -7208.9887     644.3032   -7853.2919    4281.9355   -12135.227    111.24569   -788.87962   -906.69298   -578.25528    19.743305    182.35293    40.386309      46.7237      46.7237      46.7237           90           90           90     102002.7   -757.94263 
  998000       997499    -7217.424    641.56921   -7858.9932     4269.216   -12128.209    110.77364    -880.4206   -827.10347   -912.13854   -333.76704    116.15459    83.782032      46.7237      46.7237      46.7237           90           90           90     102002.7   -873.22087 
  999000       998499   -7236.6714    638.86318   -7875.5346    4264.7771   -12140.312    110.30641   -1124.6425   -593.75672   -1062.4567    2.9231832    218.01675    -117.8517      46.7237      46.7237      46.7237           90           90           90     102002.7   -926.95197 
 1000000       999499   -7216.3554    639.76202   -7856.1174    4281.3747   -12137.492    110.46161   -561.28064   -550.05361   -1038.2748    76.121606    81.208397    24.544442      46.7237      46.7237      46.7237           90           90           90     102002.7   -716.53636 
 1000501      1000000   -7189.5521    653.82146   -7843.3736    4274.2141   -12117.588    112.88911   -487.30584   -891.95819   -215.75925   -7.4677739   -115.82474    87.960098      46.7237      46.7237      46.7237           90           90           90     102002.7   -531.67443 
Loop time of 715.756 on 24 procs for 500000 steps with 1944 atoms

Performance: 60.356 ns/day, 0.398 hours/ns, 698.562 timesteps/s
99.7% CPU use with 24 MPI tasks x no OpenMP threads

MPI task timing breakdown:
Section |  min time  |  avg time  |  max time  |%varavg| %total
---------------------------------------------------------------
Pair    | 195.88     | 333.49     | 492.11     | 479.5 | 46.59
Bond    | 62.119     | 82.871     | 108.86     | 146.4 | 11.58
Neigh   | 3.1785     | 3.2076     | 3.2329     |   1.1 |  0.45
Comm    | 96.193     | 280.29     | 429.06     | 588.2 | 39.16
Output  | 0.38873    | 0.47354    | 0.47734    |   2.6 |  0.07
Modify  | 11.383     | 12.113     | 12.453     |   7.9 |  1.69
Other   |            | 3.306      |            |       |  0.46

Nlocal:    81 ave 109 max 47 min
Histogram: 3 1 2 2 0 6 3 1 1 5
Nghost:    2217.17 ave 2386 max 2111 min
Histogram: 6 7 3 0 0 0 0 0 2 6
Neighs:    7643.92 ave 13475 max 2568 min
Histogram: 4 2 4 1 1 3 2 1 4 2

Total # of neighbors = 183454
Ave neighs/atom = 94.3693
Ave special neighs/atom = 5.92593
Neighbor list builds = 4293
Dangerous builds = 0
Total wall time: 0:22:27
