LAMMPS (30 Mar 2018)
Reading data file ...
  orthogonal box = (0 0 0) to (46.7237 46.7237 46.7237)
  2 by 2 by 4 MPI processor grid
  reading atoms ...
  3171 atoms
  scanning bonds ...
  5 = max bonds/atom
  scanning angles ...
  10 = max angles/atom
  scanning dihedrals ...
  32 = max dihedrals/atom
  scanning impropers ...
  3 = max impropers/atom
  reading bonds ...
  2064 bonds
  reading angles ...
  3696 angles
  reading dihedrals ...
  6240 dihedrals
  reading impropers ...
  1008 impropers
Finding 1-2 1-3 1-4 neighbors ...
  special bond factors lj:   0          0          0         
  special bond factors coul: 0          0          0         
  5 = max # of 1-2 neighbors
  8 = max # of 1-3 neighbors
  20 = max # of 1-4 neighbors
  19 = max # of special neighbors
Finding 1-2 1-3 1-4 neighbors ...
  special bond factors lj:   0          0          1         
  special bond factors coul: 1          1          1         
  5 = max # of 1-2 neighbors
  8 = max # of 1-3 neighbors
  19 = max # of special neighbors
WARNING: Using 'neigh_modify every 1 delay 0 check yes' setting during minimization (../min.cpp:168)
Neighbor list info ...
  update every 1 steps, delay 0 steps, check yes
  max neighbors/atom: 2000, page size: 100000
  master list distance cutoff = 16
  ghost atom cutoff = 16
  binsize = 8, bins = 6 6 6
  3 neighbor lists, perpetual/occasional/extra = 3 0 0
  (1) pair buck6d/coul/gauss/dsf, perpetual, skip from (3)
      attributes: half, newton on
      pair build: skip
      stencil: none
      bin: none
  (2) pair lj/cut, perpetual, skip from (3)
      attributes: half, newton on
      pair build: skip
      stencil: none
      bin: none
  (3) neighbor class addition, perpetual
      attributes: half, newton on
      pair build: half/bin/newton
      stencil: half/bin/3d/newton
      bin: standard
Setting up cg style minimization ...
  Unit style    : real
  Current step  : 0
WARNING: Inconsistent image flags (../domain.cpp:786)
Per MPI rank memory allocation (min/avg/max) = 23.01 | 23.47 | 23.91 Mbytes
Step Temp E_pair E_mol TotEng Press 
       0            0   -15292.414    6482.8914   -8809.5223    6382.2234 
     500            0   -15795.006    3761.0938   -12033.912   -2083.8833 
Loop time of 4.28634 on 16 procs for 500 steps with 3171 atoms

99.8% CPU use with 16 MPI tasks x no OpenMP threads

Minimization stats:
  Stopping criterion = max force evaluations
  Energy initial, next-to-last, final = 
        -8809.52227895     -12033.8131968      -12033.912177
  Force two-norm initial, final = 2575.72 14.5114
  Force max component initial, final = 152.088 2.69014
  Final line search alpha, max atom move = 0.00754449 0.0202958
  Iterations, force evaluations = 500 1000

MPI task timing breakdown:
Section |  min time  |  avg time  |  max time  |%varavg| %total
---------------------------------------------------------------
Pair    | 2.1053     | 2.9452     | 3.4476     |  20.4 | 68.71
Bond    | 0.29859    | 0.36132    | 0.48111    |   8.5 |  8.43
Neigh   | 0.044463   | 0.044596   | 0.044673   |   0.0 |  1.04
Comm    | 0.35641    | 0.89021    | 1.794      |  39.7 | 20.77
Output  | 0          | 0          | 0          |   0.0 |  0.00
Modify  | 0          | 0          | 0          |   0.0 |  0.00
Other   |            | 0.04502    |            |       |  1.05

Nlocal:    198.188 ave 218 max 174 min
Histogram: 3 0 1 0 3 1 2 1 2 3
Nghost:    3977.25 ave 4007 max 3951 min
Histogram: 2 3 1 3 1 0 1 0 2 3
Neighs:    11470.9 ave 16347 max 6252 min
Histogram: 1 0 1 4 2 2 2 1 1 2

Total # of neighbors = 183534
Ave neighs/atom = 57.8789
Ave special neighs/atom = 3.63292
Neighbor list builds = 11
Dangerous builds = 0
Neighbor list info ...
  update every 1 steps, delay 10 steps, check yes
  max neighbors/atom: 2000, page size: 100000
  master list distance cutoff = 16
  ghost atom cutoff = 16
  binsize = 8, bins = 6 6 6
  3 neighbor lists, perpetual/occasional/extra = 3 0 0
  (1) pair buck6d/coul/gauss/dsf, perpetual, skip from (3)
      attributes: half, newton on
      pair build: skip
      stencil: none
      bin: none
  (2) pair lj/cut, perpetual, skip from (3)
      attributes: half, newton on
      pair build: skip
      stencil: none
      bin: none
  (3) neighbor class addition, perpetual
      attributes: half, newton on
      pair build: half/bin/newton
      stencil: half/bin/3d/newton
      bin: standard
Setting up Verlet run ...
  Unit style    : real
  Current step  : 500
  Time step     : 1
WARNING: Inconsistent image flags (../domain.cpp:786)
Per MPI rank memory allocation (min/avg/max) = 22.66 | 22.73 | 22.79 Mbytes
Step Temp PotEng TotEng Press Volume Lx Ly Lz 
     500          130   -12033.912    -10805.52   -1533.3824     102002.7      46.7237      46.7237      46.7237 
    1000    110.67523    -11027.82   -9982.0316   -41.516151     102002.7      46.7237      46.7237      46.7237 
    2000    131.67798   -10860.787   -9616.5392   -263.44764     102002.7      46.7237      46.7237      46.7237 
    3000    130.44392   -10867.411   -9634.8245    196.23574     102002.7      46.7237      46.7237      46.7237 
    4000    131.61337   -10880.893   -9637.2565   -203.91634     102002.7      46.7237      46.7237      46.7237 
    5000    130.14876   -10866.171   -9636.3731    42.759485     102002.7      46.7237      46.7237      46.7237 
    6000    129.41275   -10875.419   -9652.5763    110.57894     102002.7      46.7237      46.7237      46.7237 
    7000    128.84416   -10863.494   -9646.0239   -327.27583     102002.7      46.7237      46.7237      46.7237 
    8000    132.01319   -10881.402   -9633.9869    235.05173     102002.7      46.7237      46.7237      46.7237 
    9000    131.07075   -10832.928   -9594.4183    224.83183     102002.7      46.7237      46.7237      46.7237 
   10000    129.91848   -10867.925   -9640.3039    381.55931     102002.7      46.7237      46.7237      46.7237 
   11000    131.36125   -10855.109   -9613.8544     109.6387     102002.7      46.7237      46.7237      46.7237 
   12000    128.31514    -10876.97   -9664.4986   -153.84248     102002.7      46.7237      46.7237      46.7237 
   13000    129.19653   -10847.202   -9626.4021    -69.58083     102002.7      46.7237      46.7237      46.7237 
   14000    129.38064   -10864.304   -9641.7646   -46.004624     102002.7      46.7237      46.7237      46.7237 
   15000    128.15526   -10877.036    -9666.075    44.720866     102002.7      46.7237      46.7237      46.7237 
   16000    132.65996   -10867.218   -9613.6915   -1.7691053     102002.7      46.7237      46.7237      46.7237 
   17000    130.20168   -10908.194   -9677.8966   -30.876198     102002.7      46.7237      46.7237      46.7237 
   18000    127.90705   -10851.929   -9643.3141    120.87908     102002.7      46.7237      46.7237      46.7237 
   19000    128.67575   -10859.168   -9643.2888    205.65813     102002.7      46.7237      46.7237      46.7237 
   20000    129.99194   -10868.454   -9640.1387     302.5225     102002.7      46.7237      46.7237      46.7237 
   21000    127.30733   -10898.551    -9695.603   0.99148601     102002.7      46.7237      46.7237      46.7237 
   22000    126.72943   -10849.786   -9652.2978    130.76983     102002.7      46.7237      46.7237      46.7237 
   23000    128.40595   -10881.356   -9668.0268    303.64633     102002.7      46.7237      46.7237      46.7237 
   24000    129.49783   -10856.387   -9632.7405   -190.28087     102002.7      46.7237      46.7237      46.7237 
   25000    128.78212   -10874.541   -9657.6571   -64.374398     102002.7      46.7237      46.7237      46.7237 
   26000    126.27995   -10896.946   -9703.7058   -223.19842     102002.7      46.7237      46.7237      46.7237 
   27000    127.36755   -10861.415   -9657.8976   -80.989492     102002.7      46.7237      46.7237      46.7237 
   28000    130.25466   -10866.981   -9636.1829   -76.978116     102002.7      46.7237      46.7237      46.7237 
   29000    126.90671   -10881.195   -9682.0325   0.31154893     102002.7      46.7237      46.7237      46.7237 
   30000    131.01932   -10877.411   -9639.3874   -97.165143     102002.7      46.7237      46.7237      46.7237 
   31000    129.97791   -10898.478   -9670.2951    -161.3287     102002.7      46.7237      46.7237      46.7237 
   32000    131.40388   -10900.315   -9658.6576   -248.53132     102002.7      46.7237      46.7237      46.7237 
   33000    129.82644   -10877.623   -9650.8709     107.1009     102002.7      46.7237      46.7237      46.7237 
   34000    129.97013   -10858.589   -9630.4798   -74.819504     102002.7      46.7237      46.7237      46.7237 
   35000    127.13648   -10873.124   -9671.7905   -136.16347     102002.7      46.7237      46.7237      46.7237 
   36000    129.07424   -10859.815   -9640.1706    144.15205     102002.7      46.7237      46.7237      46.7237 
   37000    132.02414    -10912.42   -9664.9021   -35.671101     102002.7      46.7237      46.7237      46.7237 
   38000     132.3637    -10831.51   -9580.7834   -86.415836     102002.7      46.7237      46.7237      46.7237 
   39000    127.23768    -10870.61   -9668.3202   -30.188304     102002.7      46.7237      46.7237      46.7237 
   40000    128.04974   -10891.111   -9681.1472   -35.733236     102002.7      46.7237      46.7237      46.7237 
   41000    130.16508   -10870.943    -9640.991    94.533288     102002.7      46.7237      46.7237      46.7237 
   42000    133.41367   -10858.355   -9597.7071    326.36911     102002.7      46.7237      46.7237      46.7237 
   43000    127.90062   -10867.538    -9658.984    137.74221     102002.7      46.7237      46.7237      46.7237 
   44000    132.72632   -10916.699   -9662.5461   -210.40981     102002.7      46.7237      46.7237      46.7237 
   45000      128.538   -10860.562   -9645.9852    202.43512     102002.7      46.7237      46.7237      46.7237 
   46000    126.51327   -10877.715   -9682.2702     156.2985     102002.7      46.7237      46.7237      46.7237 
   47000    126.98053   -10889.105   -9689.2447    290.87344     102002.7      46.7237      46.7237      46.7237 
   48000    129.82785   -10873.161   -9646.3954   -76.309299     102002.7      46.7237      46.7237      46.7237 
   49000    130.43898   -10892.226   -9659.6863   -36.952695     102002.7      46.7237      46.7237      46.7237 
   50000    129.97649   -10889.301   -9661.1317   -363.81206     102002.7      46.7237      46.7237      46.7237 
   51000    128.98889   -10869.674    -9650.836    117.20943     102002.7      46.7237      46.7237      46.7237 
   52000    129.48362   -10863.382   -9639.8692    22.834542     102002.7      46.7237      46.7237      46.7237 
   53000    131.02677   -10878.573    -9640.479    80.399281     102002.7      46.7237      46.7237      46.7237 
   54000    127.67227   -10904.645   -9698.2478   -272.03539     102002.7      46.7237      46.7237      46.7237 
   55000    128.20187   -10863.377   -9651.9758   -162.40888     102002.7      46.7237      46.7237      46.7237 
   56000    130.80973   -10885.837    -9649.794    -229.6116     102002.7      46.7237      46.7237      46.7237 
   57000     131.0975   -10897.833   -9659.0708    77.042102     102002.7      46.7237      46.7237      46.7237 
   58000    128.37887   -10887.884    -9674.811    -148.4948     102002.7      46.7237      46.7237      46.7237 
   59000    128.85136   -10864.886   -9647.3481   -219.99308     102002.7      46.7237      46.7237      46.7237 
   60000    133.29985   -10872.011   -9612.4379   -20.734325     102002.7      46.7237      46.7237      46.7237 
   61000    129.26258   -10890.657   -9669.2332    53.972913     102002.7      46.7237      46.7237      46.7237 
   62000    130.32746   -10871.811   -9640.3251   -114.56597     102002.7      46.7237      46.7237      46.7237 
   63000    130.70694   -10871.834   -9636.7627    370.98671     102002.7      46.7237      46.7237      46.7237 
   64000    131.24003   -10889.939   -9649.8294    -19.34895     102002.7      46.7237      46.7237      46.7237 
   65000    125.30662   -10879.153   -9695.1095   -82.137708     102002.7      46.7237      46.7237      46.7237 
   66000     129.0952   -10871.979   -9652.1372   -220.24221     102002.7      46.7237      46.7237      46.7237 
   67000    135.91636   -10896.508    -9612.211   -53.131332     102002.7      46.7237      46.7237      46.7237 
   68000    130.38276   -10884.908   -9652.8997    309.39155     102002.7      46.7237      46.7237      46.7237 
   69000    127.52596   -10876.912    -9671.898    -173.0744     102002.7      46.7237      46.7237      46.7237 
   70000    129.36061   -10851.312   -9628.9622    276.44401     102002.7      46.7237      46.7237      46.7237 
   71000    132.12515   -10878.874   -9630.4016    267.15986     102002.7      46.7237      46.7237      46.7237 
   72000    131.89373   -10870.249   -9623.9626   -34.227744     102002.7      46.7237      46.7237      46.7237 
   73000    130.85027   -10860.664   -9624.2379   -66.830272     102002.7      46.7237      46.7237      46.7237 
   74000    130.92852   -10840.626   -9603.4601    179.34385     102002.7      46.7237      46.7237      46.7237 
   75000    129.31223   -10862.226   -9640.3329   -225.52876     102002.7      46.7237      46.7237      46.7237 
   76000    133.66127   -10861.607   -9598.6193   -147.36706     102002.7      46.7237      46.7237      46.7237 
   77000    129.78166   -10869.625   -9643.2961   -2.2623473     102002.7      46.7237      46.7237      46.7237 
   78000    130.78448   -10852.186   -9616.3816     29.66316     102002.7      46.7237      46.7237      46.7237 
   79000     128.5453   -10891.566   -9676.9194   -138.30346     102002.7      46.7237      46.7237      46.7237 
   80000    125.60279   -10839.493   -9652.6516   -37.484307     102002.7      46.7237      46.7237      46.7237 
   81000    128.68192   -10891.911   -9675.9742    -74.37928     102002.7      46.7237      46.7237      46.7237 
   82000    127.61806    -10860.24    -9654.356    144.61317     102002.7      46.7237      46.7237      46.7237 
   83000      131.161    -10888.06   -9648.6972   -239.70196     102002.7      46.7237      46.7237      46.7237 
   84000    131.80961   -10873.615   -9628.1234    139.31716     102002.7      46.7237      46.7237      46.7237 
   85000    126.90805   -10863.233   -9664.0572    236.34371     102002.7      46.7237      46.7237      46.7237 
   86000    133.28136   -10864.075   -9604.6769    96.431127     102002.7      46.7237      46.7237      46.7237 
   87000    129.14958   -10887.686   -9667.3304    37.150285     102002.7      46.7237      46.7237      46.7237 
   88000    133.94114   -10895.992   -9630.3593    63.723733     102002.7      46.7237      46.7237      46.7237 
   89000    130.84734   -10869.938   -9633.5392    142.48419     102002.7      46.7237      46.7237      46.7237 
   90000    129.04765   -10874.008    -9654.615   -242.03642     102002.7      46.7237      46.7237      46.7237 
   91000    127.73779   -10858.045   -9651.0287    9.0100412     102002.7      46.7237      46.7237      46.7237 
   92000     128.9297   -10901.642   -9683.3634  -0.18250233     102002.7      46.7237      46.7237      46.7237 
   93000     133.3025   -10898.866   -9639.2688   -110.75496     102002.7      46.7237      46.7237      46.7237 
   94000    131.80547   -10894.963   -9649.5112   -40.889861     102002.7      46.7237      46.7237      46.7237 
   95000    131.13341   -10871.431   -9632.3291    51.564263     102002.7      46.7237      46.7237      46.7237 
   96000    128.98461   -10891.546   -9672.7484    534.69716     102002.7      46.7237      46.7237      46.7237 
   97000    133.02674    -10893.29   -9636.2985    333.83745     102002.7      46.7237      46.7237      46.7237 
   98000    132.04013   -10859.416   -9611.7472     65.50838     102002.7      46.7237      46.7237      46.7237 
   99000    130.54713   -10854.437   -9620.8752    59.358214     102002.7      46.7237      46.7237      46.7237 
  100000    131.87547   -10891.459   -9645.3452    131.49843     102002.7      46.7237      46.7237      46.7237 
  101000    131.91256   -10877.105   -9630.6406    79.835199     102002.7      46.7237      46.7237      46.7237 
  102000    129.66143   -10892.247    -9667.054   -85.660932     102002.7      46.7237      46.7237      46.7237 
  103000    127.62789   -10848.292   -9642.3147   -18.946771     102002.7      46.7237      46.7237      46.7237 
  104000    130.77705   -10868.968    -9633.234    267.53777     102002.7      46.7237      46.7237      46.7237 
  105000    128.37245   -10883.252   -9670.2394   -292.65967     102002.7      46.7237      46.7237      46.7237 
  106000    129.56814    -10862.37   -9638.0587     7.531521     102002.7      46.7237      46.7237      46.7237 
  107000    130.62868   -10882.674   -9648.3419    107.75463     102002.7      46.7237      46.7237      46.7237 
  108000    129.88666   -10885.201   -9657.8802    82.172826     102002.7      46.7237      46.7237      46.7237 
  109000    129.89173   -10877.274   -9649.9056   -89.308505     102002.7      46.7237      46.7237      46.7237 
  110000    130.51943   -10866.663   -9633.3635    133.28005     102002.7      46.7237      46.7237      46.7237 
  111000    133.57491   -10919.705   -9657.5335   0.17595769     102002.7      46.7237      46.7237      46.7237 
  112000    131.92163   -10872.087   -9625.5379    165.89609     102002.7      46.7237      46.7237      46.7237 
  113000    131.06284   -10868.913   -9630.4781   -152.32399     102002.7      46.7237      46.7237      46.7237 
  114000     127.8223   -10902.596   -9694.7813   -119.63122     102002.7      46.7237      46.7237      46.7237 
  115000    131.82378   -10891.769   -9646.1439   -359.80825     102002.7      46.7237      46.7237      46.7237 
  116000    131.24049   -10886.106   -9645.9925    44.699867     102002.7      46.7237      46.7237      46.7237 
  117000    127.36246   -10885.775   -9682.3061    16.864306     102002.7      46.7237      46.7237      46.7237 
  118000    130.74687   -10895.344   -9659.8947    61.683381     102002.7      46.7237      46.7237      46.7237 
  119000    129.19299   -10849.042   -9628.2755    4.2101785     102002.7      46.7237      46.7237      46.7237 
  120000    129.04346   -10876.008   -9656.6547    56.068108     102002.7      46.7237      46.7237      46.7237 
  121000    126.67437   -10841.453   -9644.4856    16.937884     102002.7      46.7237      46.7237      46.7237 
  122000    128.49839   -10859.542   -9645.3389   -187.87825     102002.7      46.7237      46.7237      46.7237 
  123000    130.32605   -10872.273   -9640.7999   -77.336087     102002.7      46.7237      46.7237      46.7237 
  124000    127.87784   -10892.799   -9684.4602   -178.11119     102002.7      46.7237      46.7237      46.7237 
  125000    128.62277   -10846.434   -9631.0561   -117.90015     102002.7      46.7237      46.7237      46.7237 
  126000    133.17419   -10910.576   -9652.1909   -148.38021     102002.7      46.7237      46.7237      46.7237 
  127000    131.79657   -10860.279   -9614.9115   -77.702285     102002.7      46.7237      46.7237      46.7237 
  128000    130.12449   -10894.818     -9665.25   -293.59847     102002.7      46.7237      46.7237      46.7237 
  129000    127.18248   -10899.531   -9697.7629     110.4751     102002.7      46.7237      46.7237      46.7237 
  130000    128.91886   -10873.671   -9655.4949   -16.406233     102002.7      46.7237      46.7237      46.7237 
  131000      130.591   -10874.713   -9640.7367    147.02579     102002.7      46.7237      46.7237      46.7237 
  132000    131.57171   -10893.092    -9649.849    19.643829     102002.7      46.7237      46.7237      46.7237 
  133000    127.92804     -10871.2   -9662.3863   -205.28257     102002.7      46.7237      46.7237      46.7237 
  134000    129.12266   -10832.226   -9612.1246   -148.26363     102002.7      46.7237      46.7237      46.7237 
  135000     130.8909   -10865.647   -9628.8368   -78.647649     102002.7      46.7237      46.7237      46.7237 
  136000    132.23082   -10881.389   -9631.9182   -206.16874     102002.7      46.7237      46.7237      46.7237 
  137000    129.17736   -10889.439     -9668.82    23.639986     102002.7      46.7237      46.7237      46.7237 
  138000     127.0425   -10885.371   -9684.9251   -215.73627     102002.7      46.7237      46.7237      46.7237 
  139000    130.00262   -10877.998    -9649.581   -177.75025     102002.7      46.7237      46.7237      46.7237 
  140000    132.34556   -10870.621   -9620.0658    37.330104     102002.7      46.7237      46.7237      46.7237 
  141000    129.30908   -10897.283     -9675.42   -138.87127     102002.7      46.7237      46.7237      46.7237 
  142000    130.06014    -10911.26   -9682.2996    272.90401     102002.7      46.7237      46.7237      46.7237 
  143000    131.68044    -10861.05   -9616.7797   -111.89604     102002.7      46.7237      46.7237      46.7237 
  144000    128.79375   -10871.455   -9654.4608   -138.30363     102002.7      46.7237      46.7237      46.7237 
  145000    128.38902   -10873.714   -9660.5442    45.227741     102002.7      46.7237      46.7237      46.7237 
  146000    128.37955   -10857.723   -9644.6434   -94.221419     102002.7      46.7237      46.7237      46.7237 
  147000     129.4366   -10882.429   -9659.3612   -61.042856     102002.7      46.7237      46.7237      46.7237 
  148000    130.83773   -10880.044    -9643.736   -127.44496     102002.7      46.7237      46.7237      46.7237 
  149000    125.46669   -10853.092   -9667.5363   -298.51214     102002.7      46.7237      46.7237      46.7237 
  150000    133.30199   -10889.526   -9629.9333   -101.84624     102002.7      46.7237      46.7237      46.7237 
  151000    130.48661   -10853.564    -9620.574   -142.22164     102002.7      46.7237      46.7237      46.7237 
  152000    128.44378   -10863.412   -9649.7255   -302.57782     102002.7      46.7237      46.7237      46.7237 
  153000    129.20089   -10868.828   -9647.9875    143.90371     102002.7      46.7237      46.7237      46.7237 
  154000    129.96052   -10902.615   -9674.5958    -143.0638     102002.7      46.7237      46.7237      46.7237 
  155000    129.68447   -10873.691   -9648.2803   -14.259558     102002.7      46.7237      46.7237      46.7237 
  156000    133.24485   -10878.972   -9619.9188   -88.239214     102002.7      46.7237      46.7237      46.7237 
  157000     132.4252   -10919.817   -9668.5094   -169.60468     102002.7      46.7237      46.7237      46.7237 
  158000    132.07822   -10864.504   -9616.4743    34.330401     102002.7      46.7237      46.7237      46.7237 
  159000     129.5989   -10878.849   -9654.2473    220.83611     102002.7      46.7237      46.7237      46.7237 
  160000    128.41766   -10886.201   -9672.7609    13.163709     102002.7      46.7237      46.7237      46.7237 
  161000    132.43152   -10871.686   -9620.3184   -29.842763     102002.7      46.7237      46.7237      46.7237 
  162000    128.64436   -10898.762   -9683.1796    190.33043     102002.7      46.7237      46.7237      46.7237 
  163000    130.90699   -10877.274   -9640.3119    233.78775     102002.7      46.7237      46.7237      46.7237 
  164000    130.16096   -10847.598   -9617.6856   -148.45001     102002.7      46.7237      46.7237      46.7237 
  165000    128.67321   -10870.358   -9654.5028    38.785273     102002.7      46.7237      46.7237      46.7237 
  166000    130.63152   -10859.366   -9625.0067    50.074265     102002.7      46.7237      46.7237      46.7237 
  167000    128.64568   -10888.362   -9672.7675   -72.797677     102002.7      46.7237      46.7237      46.7237 
  168000    130.04343   -10865.921   -9637.1184   -178.49985     102002.7      46.7237      46.7237      46.7237 
  169000    131.39367   -10881.792   -9640.2315   -190.16699     102002.7      46.7237      46.7237      46.7237 
  170000    131.33882   -10886.486   -9645.4436    -293.2449     102002.7      46.7237      46.7237      46.7237 
  171000    129.38055   -10854.322   -9631.7833    108.39905     102002.7      46.7237      46.7237      46.7237 
  172000    130.44549   -10879.713   -9647.1112   -141.27857     102002.7      46.7237      46.7237      46.7237 
  173000    132.46765   -10865.229   -9613.5197   -92.006694     102002.7      46.7237      46.7237      46.7237 
  174000    130.30398   -10869.691   -9638.4267    139.56217     102002.7      46.7237      46.7237      46.7237 
  175000    128.70157   -10892.229   -9676.1065   -416.28951     102002.7      46.7237      46.7237      46.7237 
  176000    130.96652   -10888.186    -9650.661    165.14797     102002.7      46.7237      46.7237      46.7237 
  177000    130.86362   -10874.737   -9638.1849    19.993343     102002.7      46.7237      46.7237      46.7237 
  178000    131.52002   -10877.425   -9634.6705    318.53396     102002.7      46.7237      46.7237      46.7237 
  179000    127.65922   -10903.163   -9696.8899   -43.420573     102002.7      46.7237      46.7237      46.7237 
  180000    130.27495   -10884.664   -9653.6739   -50.499147     102002.7      46.7237      46.7237      46.7237 
  181000    129.55591   -10871.873   -9647.6778    67.852063     102002.7      46.7237      46.7237      46.7237 
  182000    130.50927    -10890.47   -9657.2659    105.16416     102002.7      46.7237      46.7237      46.7237 
  183000    131.71405   -10853.703   -9609.1144    12.142665     102002.7      46.7237      46.7237      46.7237 
  184000     128.8434   -10883.997   -9666.5336   -64.910674     102002.7      46.7237      46.7237      46.7237 
  185000    131.52737   -10908.736   -9665.9115   -45.556323     102002.7      46.7237      46.7237      46.7237 
  186000    126.60717   -10881.754   -9685.4217   -48.599475     102002.7      46.7237      46.7237      46.7237 
  187000    132.60114   -10874.092   -9621.1215   -107.07422     102002.7      46.7237      46.7237      46.7237 
  188000    130.42374   -10855.173   -9622.7771   -105.91715     102002.7      46.7237      46.7237      46.7237 
  189000    127.09648   -10889.351    -9688.395   -238.45462     102002.7      46.7237      46.7237      46.7237 
  190000    131.89146    -10899.76   -9653.4959   -177.85205     102002.7      46.7237      46.7237      46.7237 
  191000     128.9711   -10847.848   -9629.1782    29.753332     102002.7      46.7237      46.7237      46.7237 
  192000    132.24395   -10854.017   -9604.4216   -171.46682     102002.7      46.7237      46.7237      46.7237 
  193000     126.4163   -10870.821   -9676.2921   -295.65166     102002.7      46.7237      46.7237      46.7237 
  194000    131.36086   -10869.498   -9628.2471    195.89716     102002.7      46.7237      46.7237      46.7237 
  195000    128.43455   -10885.759   -9672.1591   -213.85656     102002.7      46.7237      46.7237      46.7237 
  196000    126.94579   -10882.852   -9683.3195   -340.64272     102002.7      46.7237      46.7237      46.7237 
  197000    130.39222   -10897.568   -9665.4703   -190.59789     102002.7      46.7237      46.7237      46.7237 
  198000    127.84141     -10881.7   -9673.7051    140.86997     102002.7      46.7237      46.7237      46.7237 
  199000    131.12494   -10903.821   -9664.7994   -48.749465     102002.7      46.7237      46.7237      46.7237 
  200000     130.1355   -10876.788   -9647.1163   -113.94459     102002.7      46.7237      46.7237      46.7237 
  201000    130.89021   -10902.483   -9665.6799   -339.37007     102002.7      46.7237      46.7237      46.7237 
  202000    129.50513   -10846.642   -9622.9258    123.71535     102002.7      46.7237      46.7237      46.7237 
  203000    128.20038   -10872.953   -9661.5663     141.9055     102002.7      46.7237      46.7237      46.7237 
  204000    128.13112   -10871.254   -9660.5214   -47.473236     102002.7      46.7237      46.7237      46.7237 
  205000    131.99635   -10870.203   -9622.9473   -196.65133     102002.7      46.7237      46.7237      46.7237 
  206000    129.90189   -10874.914   -9647.4487    17.456741     102002.7      46.7237      46.7237      46.7237 
  207000    128.61743   -10919.592   -9704.2643   -146.18663     102002.7      46.7237      46.7237      46.7237 
  208000    128.54069    -10855.32   -9640.7172    101.90839     102002.7      46.7237      46.7237      46.7237 
  209000     132.1686   -10886.146   -9637.2627    161.60565     102002.7      46.7237      46.7237      46.7237 
  210000     130.1989   -10885.054   -9654.7831    104.28826     102002.7      46.7237      46.7237      46.7237 
  211000    127.97093   -10884.059   -9674.8406   -68.165231     102002.7      46.7237      46.7237      46.7237 
  212000     129.1559   -10867.311   -9646.8953     5.547658     102002.7      46.7237      46.7237      46.7237 
  213000    131.91706   -10891.312    -9644.806   -184.62668     102002.7      46.7237      46.7237      46.7237 
  214000    128.80789   -10852.132   -9635.0047    236.76952     102002.7      46.7237      46.7237      46.7237 
  215000    131.16542   -10896.901   -9657.4967    105.72602     102002.7      46.7237      46.7237      46.7237 
  216000    126.91711   -10855.385    -9656.124    -345.8498     102002.7      46.7237      46.7237      46.7237 
  217000    130.27426   -10869.862   -9638.8783   -67.293644     102002.7      46.7237      46.7237      46.7237 
  218000    130.51535   -10907.792   -9674.5309   -329.94928     102002.7      46.7237      46.7237      46.7237 
  219000    134.05752   -10889.257   -9622.5255   -304.03508     102002.7      46.7237      46.7237      46.7237 
  220000    129.19844   -10895.261   -9674.4431   -201.09742     102002.7      46.7237      46.7237      46.7237 
  221000    129.29748   -10879.468   -9657.7148   -55.223753     102002.7      46.7237      46.7237      46.7237 
  222000    132.25881   -10848.809   -9599.0736    171.78938     102002.7      46.7237      46.7237      46.7237 
  223000    127.29617   -10872.259   -9669.4164   -29.514814     102002.7      46.7237      46.7237      46.7237 
  224000     133.4754   -10859.875   -9598.6435    345.39956     102002.7      46.7237      46.7237      46.7237 
  225000    129.05545   -10859.938   -9640.4718    186.32899     102002.7      46.7237      46.7237      46.7237 
  226000    128.06809   -10873.458   -9663.3213    343.17738     102002.7      46.7237      46.7237      46.7237 
  227000    129.53979   -10861.006   -9636.9625    380.56775     102002.7      46.7237      46.7237      46.7237 
  228000    133.49748   -10877.669   -9616.2292    124.01944     102002.7      46.7237      46.7237      46.7237 
  229000    129.45147   -10870.676   -9647.4676    161.79506     102002.7      46.7237      46.7237      46.7237 
  230000    132.66484   -10853.126   -9599.5534   -37.247295     102002.7      46.7237      46.7237      46.7237 
  231000    129.61569   -10854.958   -9630.1979    31.309182     102002.7      46.7237      46.7237      46.7237 
  232000    129.55008   -10890.545    -9666.405    139.16302     102002.7      46.7237      46.7237      46.7237 
  233000    131.93169   -10873.837   -9627.1925   -186.31401     102002.7      46.7237      46.7237      46.7237 
  234000    131.73835    -10876.02   -9631.2019   -181.33434     102002.7      46.7237      46.7237      46.7237 
  235000     128.7238   -10879.064   -9662.7312   -174.90943     102002.7      46.7237      46.7237      46.7237 
  236000    125.60906   -10872.896   -9685.9952    74.879031     102002.7      46.7237      46.7237      46.7237 
  237000    134.06238   -10890.528   -9623.7506    10.518376     102002.7      46.7237      46.7237      46.7237 
  238000    128.21691   -10915.271   -9703.7276   -73.216577     102002.7      46.7237      46.7237      46.7237 
  239000    128.95056   -10862.913   -9644.4379   -4.0833342     102002.7      46.7237      46.7237      46.7237 
  240000    129.74968   -10876.809   -9650.7823   -163.52618     102002.7      46.7237      46.7237      46.7237 
  241000    130.58641   -10884.664   -9650.7312    -179.0501     102002.7      46.7237      46.7237      46.7237 
  242000     131.2005   -10884.001   -9644.2651   -61.399818     102002.7      46.7237      46.7237      46.7237 
  243000     132.6172   -10857.907   -9604.7853   -99.322339     102002.7      46.7237      46.7237      46.7237 
  244000    130.77415   -10881.942    -9646.235    17.961604     102002.7      46.7237      46.7237      46.7237 
  245000    127.23572   -10900.107   -9697.8353    -274.8003     102002.7      46.7237      46.7237      46.7237 
  246000    131.52822   -10887.895   -9645.0632    27.183095     102002.7      46.7237      46.7237      46.7237 
  247000    129.86099   -10893.371   -9666.2927   -41.041467     102002.7      46.7237      46.7237      46.7237 
  248000    129.95901   -10865.054     -9637.05    25.909973     102002.7      46.7237      46.7237      46.7237 
  249000    133.24033   -10893.084   -9634.0737   -86.214897     102002.7      46.7237      46.7237      46.7237 
  250000     131.3633   -10861.859   -9620.5854    208.29766     102002.7      46.7237      46.7237      46.7237 
  251000    132.22464   -10869.919   -9620.5059   -12.263354     102002.7      46.7237      46.7237      46.7237 
  252000    129.28771   -10864.401   -9642.7393    38.956048     102002.7      46.7237      46.7237      46.7237 
  253000    128.01409   -10856.336   -9646.7091    262.45773     102002.7      46.7237      46.7237      46.7237 
  254000    130.89247   -10884.077    -9647.252     170.1605     102002.7      46.7237      46.7237      46.7237 
  255000    131.21395   -10879.221   -9639.3584    84.833899     102002.7      46.7237      46.7237      46.7237 
  256000    129.35855   -10886.897   -9664.5661   -115.15127     102002.7      46.7237      46.7237      46.7237 
  257000    133.69203   -10861.054   -9597.7756    -85.27094     102002.7      46.7237      46.7237      46.7237 
  258000    132.92593   -10896.224   -9640.1846   -93.222843     102002.7      46.7237      46.7237      46.7237 
  259000    130.76247   -10878.806   -9643.2092   -72.909992     102002.7      46.7237      46.7237      46.7237 
  260000    130.00941   -10860.047   -9631.5659   -176.91579     102002.7      46.7237      46.7237      46.7237 
  261000    131.50865   -10845.776   -9603.1289   -59.423514     102002.7      46.7237      46.7237      46.7237 
  262000    130.36319    -10844.61    -9612.786    167.22531     102002.7      46.7237      46.7237      46.7237 
  263000    129.53751   -10865.621   -9641.5998    177.03193     102002.7      46.7237      46.7237      46.7237 
  264000    132.92614   -10868.441      -9612.4     295.6804     102002.7      46.7237      46.7237      46.7237 
  265000     129.3353   -10862.046   -9639.9354   -42.977291     102002.7      46.7237      46.7237      46.7237 
  266000    133.13193   -10870.109   -9612.1234   -26.996872     102002.7      46.7237      46.7237      46.7237 
  267000    129.72655   -10875.538     -9649.73    86.735332     102002.7      46.7237      46.7237      46.7237 
  268000    128.93841   -10884.186   -9665.8251   -167.31828     102002.7      46.7237      46.7237      46.7237 
  269000    129.36077   -10860.222   -9637.8708    248.84292     102002.7      46.7237      46.7237      46.7237 
  270000    128.93286   -10905.861   -9687.5524   -91.328292     102002.7      46.7237      46.7237      46.7237 
  271000    128.69297   -10873.384   -9657.3427   -75.953657     102002.7      46.7237      46.7237      46.7237 
  272000    130.22356   -10877.685   -9647.1807   -66.181581     102002.7      46.7237      46.7237      46.7237 
  273000    127.01288   -10882.177   -9682.0109   -132.65642     102002.7      46.7237      46.7237      46.7237 
  274000     129.1626   -10861.177   -9640.6978    201.58065     102002.7      46.7237      46.7237      46.7237 
  275000    131.88817   -10875.891   -9629.6577    71.122598     102002.7      46.7237      46.7237      46.7237 
  276000    132.67946   -10894.537    -9640.826   -231.90821     102002.7      46.7237      46.7237      46.7237 
  277000    128.91259   -10890.536    -9672.419   -561.19599     102002.7      46.7237      46.7237      46.7237 
  278000    127.56987   -10888.504   -9683.0751   -174.27056     102002.7      46.7237      46.7237      46.7237 
  279000    132.05332   -10895.284     -9647.49   -363.48264     102002.7      46.7237      46.7237      46.7237 
  280000    126.87892   -10870.791   -9671.8905    55.721016     102002.7      46.7237      46.7237      46.7237 
  281000    130.60195   -10853.044   -9618.9639    25.597449     102002.7      46.7237      46.7237      46.7237 
  282000      129.047   -10880.602   -9661.2153   -216.81884     102002.7      46.7237      46.7237      46.7237 
  283000    129.84373   -10895.902   -9668.9865   -177.27143     102002.7      46.7237      46.7237      46.7237 
  284000    128.89691   -10882.793   -9664.8246   -289.41737     102002.7      46.7237      46.7237      46.7237 
  285000     132.1149   -10876.261   -9627.8848    91.228062     102002.7      46.7237      46.7237      46.7237 
  286000    129.59023   -10859.391   -9634.8707    363.54316     102002.7      46.7237      46.7237      46.7237 
  287000    132.03557   -10868.103   -9620.4772   -416.11562     102002.7      46.7237      46.7237      46.7237 
  288000     130.2031   -10889.372   -9659.0608    127.09848     102002.7      46.7237      46.7237      46.7237 
  289000    130.92396   -10885.119   -9647.9969    153.55639     102002.7      46.7237      46.7237      46.7237 
  290000    130.20957   -10870.619   -9640.2468    144.10161     102002.7      46.7237      46.7237      46.7237 
  291000    129.32558    -10868.36   -9646.3404    -24.32055     102002.7      46.7237      46.7237      46.7237 
  292000    125.78507   -10865.432   -9676.8676    306.31509     102002.7      46.7237      46.7237      46.7237 
  293000    128.68076   -10868.537    -9652.611    80.649722     102002.7      46.7237      46.7237      46.7237 
  294000    127.04738   -10867.118   -9666.6262   -90.648154     102002.7      46.7237      46.7237      46.7237 
  295000    129.24411   -10880.735   -9659.4854    188.88685     102002.7      46.7237      46.7237      46.7237 
  296000    131.83022   -10875.584   -9629.8983   -11.024829     102002.7      46.7237      46.7237      46.7237 
  297000    129.78091   -10905.595   -9679.2731    54.277812     102002.7      46.7237      46.7237      46.7237 
  298000    127.11607   -10871.761     -9670.62    67.174203     102002.7      46.7237      46.7237      46.7237 
  299000    129.68516   -10839.972   -9614.5555     120.3648     102002.7      46.7237      46.7237      46.7237 
  300000    131.22668   -10890.558   -9650.5754     232.0369     102002.7      46.7237      46.7237      46.7237 
  301000    129.13997   -10892.688   -9672.4229    91.001268     102002.7      46.7237      46.7237      46.7237 
  302000    128.14182   -10861.669   -9650.8357   -183.91236     102002.7      46.7237      46.7237      46.7237 
  303000    130.60821   -10834.416   -9600.2766    184.62766     102002.7      46.7237      46.7237      46.7237 
  304000     129.0956   -10860.417   -9640.5714    53.370392     102002.7      46.7237      46.7237      46.7237 
  305000    128.57059   -10893.255     -9678.37    166.23132     102002.7      46.7237      46.7237      46.7237 
  306000    126.90528   -10862.948   -9663.7983   -206.32247     102002.7      46.7237      46.7237      46.7237 
  307000    131.21535   -10820.451   -9580.5746    24.957035     102002.7      46.7237      46.7237      46.7237 
  308000    129.88676   -10884.277   -9656.9551     8.886988     102002.7      46.7237      46.7237      46.7237 
  309000    131.34576   -10880.263   -9639.1552   -26.238695     102002.7      46.7237      46.7237      46.7237 
  310000    132.11881   -10858.453   -9610.0399    290.35699     102002.7      46.7237      46.7237      46.7237 
  311000    131.63142   -10851.953   -9608.1461    288.25915     102002.7      46.7237      46.7237      46.7237 
  312000    132.20059   -10845.146   -9595.9603    149.04668     102002.7      46.7237      46.7237      46.7237 
  313000    129.72118   -10888.129   -9662.3722    45.351301     102002.7      46.7237      46.7237      46.7237 
  314000    131.78139   -10875.344     -9630.12   -83.026189     102002.7      46.7237      46.7237      46.7237 
  315000    130.55279   -10873.647   -9640.0318    95.950789     102002.7      46.7237      46.7237      46.7237 
  316000    128.69774    -10859.11   -9643.0235    368.55289     102002.7      46.7237      46.7237      46.7237 
  317000    131.66276   -10884.843   -9640.7398   -20.077402     102002.7      46.7237      46.7237      46.7237 
  318000    130.26907   -10869.895   -9638.9609    38.552741     102002.7      46.7237      46.7237      46.7237 
  319000    130.70957   -10876.537   -9641.4406    278.82952     102002.7      46.7237      46.7237      46.7237 
  320000    131.46424    -10861.39   -9619.1618    50.912126     102002.7      46.7237      46.7237      46.7237 
  321000    128.63405   -10870.803    -9655.318    245.77246     102002.7      46.7237      46.7237      46.7237 
  322000    130.92016   -10859.253   -9622.1665    101.83989     102002.7      46.7237      46.7237      46.7237 
  323000    128.06681   -10880.054   -9669.9291    73.917998     102002.7      46.7237      46.7237      46.7237 
  324000    129.79687   -10866.174   -9639.7018    265.79255     102002.7      46.7237      46.7237      46.7237 
  325000    131.36889   -10853.618   -9612.2918   -143.14954     102002.7      46.7237      46.7237      46.7237 
  326000    130.65049   -10867.899    -9633.361    132.06012     102002.7      46.7237      46.7237      46.7237 
  327000    127.49531   -10861.477   -9656.7524    43.130331     102002.7      46.7237      46.7237      46.7237 
  328000    124.96563   -10892.984   -9712.1624    8.8983354     102002.7      46.7237      46.7237      46.7237 
  329000    128.98866    -10866.38   -9647.5444    202.74618     102002.7      46.7237      46.7237      46.7237 
  330000    131.40043   -10886.604    -9644.979   -44.188312     102002.7      46.7237      46.7237      46.7237 
  331000    127.58179   -10874.562   -9669.0199    30.768182     102002.7      46.7237      46.7237      46.7237 
  332000    129.04957   -10850.839   -9631.4284    342.85574     102002.7      46.7237      46.7237      46.7237 
  333000    131.06478   -10904.236   -9665.7829   -41.473197     102002.7      46.7237      46.7237      46.7237 
  334000    130.74752   -10855.957   -9620.5022   -134.60808     102002.7      46.7237      46.7237      46.7237 
  335000    132.37802   -10876.005   -9625.1424   -76.229877     102002.7      46.7237      46.7237      46.7237 
  336000    129.06971   -10867.025   -9647.4238   -274.76094     102002.7      46.7237      46.7237      46.7237 
  337000    128.99245   -10889.099   -9670.2273   -389.19927     102002.7      46.7237      46.7237      46.7237 
  338000    131.86906   -10879.347   -9633.2945   -310.14686     102002.7      46.7237      46.7237      46.7237 
  339000    125.58521   -10858.836   -9672.1608   -80.256448     102002.7      46.7237      46.7237      46.7237 
  340000    130.54036   -10864.403   -9630.9052   -171.19814     102002.7      46.7237      46.7237      46.7237 
  341000     131.7857    -10854.27   -9609.0051   -129.18688     102002.7      46.7237      46.7237      46.7237 
  342000    130.23077   -10884.787   -9654.2144   -186.24038     102002.7      46.7237      46.7237      46.7237 
  343000    129.28959   -10878.294   -9656.6146   -270.59911     102002.7      46.7237      46.7237      46.7237 
  344000    127.69954   -10863.453   -9656.7989    192.14134     102002.7      46.7237      46.7237      46.7237 
  345000    132.39168   -10847.513   -9596.5222    42.069329     102002.7      46.7237      46.7237      46.7237 
  346000    129.05535   -10870.887    -9651.421    147.66455     102002.7      46.7237      46.7237      46.7237 
  347000    130.84621   -10888.117   -9651.7291    119.92746     102002.7      46.7237      46.7237      46.7237 
  348000    129.59348   -10868.681   -9644.1309    71.959697     102002.7      46.7237      46.7237      46.7237 
  349000    130.59119   -10888.859   -9654.8812   -16.005386     102002.7      46.7237      46.7237      46.7237 
  350000      128.957   -10882.572    -9664.036   -237.43986     102002.7      46.7237      46.7237      46.7237 
  351000    127.26092   -10869.413   -9666.9037   -144.41606     102002.7      46.7237      46.7237      46.7237 
  352000    129.00934   -10857.186   -9638.1553   -129.25926     102002.7      46.7237      46.7237      46.7237 
  353000    132.31959   -10851.727   -9601.4171    -177.4623     102002.7      46.7237      46.7237      46.7237 
  354000    131.94663    -10839.67   -9592.8845    75.084619     102002.7      46.7237      46.7237      46.7237 
  355000    130.20738   -10834.488   -9604.1367    107.24482     102002.7      46.7237      46.7237      46.7237 
  356000    130.66896    -10832.46   -9597.7471    94.508263     102002.7      46.7237      46.7237      46.7237 
  357000    132.74035   -10866.595   -9612.3088   -42.345014     102002.7      46.7237      46.7237      46.7237 
  358000    129.39506   -10884.874   -9662.1987   -244.92908     102002.7      46.7237      46.7237      46.7237 
  359000    127.78656   -10857.455   -9649.9779    87.812896     102002.7      46.7237      46.7237      46.7237 
  360000    128.99063   -10869.688   -9650.8335   -27.030074     102002.7      46.7237      46.7237      46.7237 
  361000    125.27339   -10853.957    -9670.228    286.88305     102002.7      46.7237      46.7237      46.7237 
  362000    130.32765   -10886.279   -9654.7913    62.802566     102002.7      46.7237      46.7237      46.7237 
  363000    128.83324   -10881.008   -9663.6411    79.097125     102002.7      46.7237      46.7237      46.7237 
  364000    131.62355   -10872.169   -9628.4358    3.0092747     102002.7      46.7237      46.7237      46.7237 
  365000     130.5038   -10899.948   -9666.7962   -166.04555     102002.7      46.7237      46.7237      46.7237 
  366000    132.57148   -10864.606   -9611.9162    8.8348745     102002.7      46.7237      46.7237      46.7237 
  367000    128.86372   -10903.809   -9686.1539   -192.78199     102002.7      46.7237      46.7237      46.7237 
  368000    128.73305   -10858.012   -9641.5916    140.26411     102002.7      46.7237      46.7237      46.7237 
  369000    131.02885   -10869.782   -9631.6681    54.455975     102002.7      46.7237      46.7237      46.7237 
  370000    129.55111   -10866.584   -9642.4335    32.122568     102002.7      46.7237      46.7237      46.7237 
  371000    128.91143   -10851.943   -9633.8372    11.062941     102002.7      46.7237      46.7237      46.7237 
  372000    130.73089   -10862.143   -9626.8448    90.962829     102002.7      46.7237      46.7237      46.7237 
  373000    129.69981    -10864.77   -9639.2142    163.75578     102002.7      46.7237      46.7237      46.7237 
  374000    130.90209   -10863.287   -9626.3716   -283.93065     102002.7      46.7237      46.7237      46.7237 
  375000     130.1705   -10856.482   -9626.4787   -13.455936     102002.7      46.7237      46.7237      46.7237 
  376000    132.34765   -10884.545   -9633.9694    305.23516     102002.7      46.7237      46.7237      46.7237 
  377000    129.43768   -10884.091   -9661.0123    125.00651     102002.7      46.7237      46.7237      46.7237 
  378000    134.12477   -10844.506   -9577.1386   -222.38862     102002.7      46.7237      46.7237      46.7237 
  379000    130.87501   -10888.636   -9651.9763    34.697521     102002.7      46.7237      46.7237      46.7237 
  380000    128.27029   -10865.254   -9653.2067   -135.49616     102002.7      46.7237      46.7237      46.7237 
  381000    132.50823   -10867.929   -9615.8363   -208.64564     102002.7      46.7237      46.7237      46.7237 
  382000    131.67317   -10888.884   -9644.6824   -265.31521     102002.7      46.7237      46.7237      46.7237 
  383000     132.9515   -10875.135   -9618.8539  -0.83983119     102002.7      46.7237      46.7237      46.7237 
  384000    129.11944   -10892.658   -9672.5865   -118.71781     102002.7      46.7237      46.7237      46.7237 
  385000    132.51852   -10879.917   -9627.7271    35.130268     102002.7      46.7237      46.7237      46.7237 
  386000     127.7631   -10860.262   -9653.0072   -32.915419     102002.7      46.7237      46.7237      46.7237 
  387000    126.94447   -10859.209   -9659.6892    150.84254     102002.7      46.7237      46.7237      46.7237 
  388000    132.45874   -10895.495   -9643.8703    75.323682     102002.7      46.7237      46.7237      46.7237 
  389000    129.38989   -10894.161   -9671.5342     43.11314     102002.7      46.7237      46.7237      46.7237 
  390000    131.10373   -10858.438   -9619.6172   -121.02409     102002.7      46.7237      46.7237      46.7237 
  391000    130.10602   -10864.413   -9635.0189   -225.79563     102002.7      46.7237      46.7237      46.7237 
  392000    129.45631   -10890.807   -9667.5522    182.50454     102002.7      46.7237      46.7237      46.7237 
  393000    131.51457   -10861.579   -9618.8759   -101.12595     102002.7      46.7237      46.7237      46.7237 
  394000    131.31752   -10869.741   -9628.8997     96.83321     102002.7      46.7237      46.7237      46.7237 
  395000    132.29123   -10866.534   -9616.4917   -2.1999225     102002.7      46.7237      46.7237      46.7237 
  396000    132.07202   -10874.964    -9626.993    336.43761     102002.7      46.7237      46.7237      46.7237 
  397000    131.77192   -10842.891   -9597.7561     33.28754     102002.7      46.7237      46.7237      46.7237 
  398000    131.48036     -10876.3   -9633.9203   -255.22099     102002.7      46.7237      46.7237      46.7237 
  399000    128.87648   -10841.686   -9623.9105   -106.58792     102002.7      46.7237      46.7237      46.7237 
  400000    127.50059   -10883.593   -9678.8188    -200.3588     102002.7      46.7237      46.7237      46.7237 
  401000    131.01613   -10840.583   -9602.5894    213.54768     102002.7      46.7237      46.7237      46.7237 
  402000    130.84708   -10903.684   -9667.2875    114.72089     102002.7      46.7237      46.7237      46.7237 
  403000    130.56406   -10887.554   -9653.8319   -145.27031     102002.7      46.7237      46.7237      46.7237 
  404000    125.15782   -10883.189   -9700.5519   -169.56053     102002.7      46.7237      46.7237      46.7237 
  405000    131.36703   -10894.307    -9652.998   -402.27695     102002.7      46.7237      46.7237      46.7237 
  406000     128.7928    -10891.39   -9674.4049   -184.34827     102002.7      46.7237      46.7237      46.7237 
  407000    128.57893   -10824.976   -9610.0126    262.63266     102002.7      46.7237      46.7237      46.7237 
  408000    132.18892   -10886.667   -9637.5919   -287.29916     102002.7      46.7237      46.7237      46.7237 
  409000    130.43827    -10894.39   -9661.8566   -16.330837     102002.7      46.7237      46.7237      46.7237 
  410000    129.98124   -10864.715      -9636.5    108.92475     102002.7      46.7237      46.7237      46.7237 
  411000    128.75375   -10869.536   -9652.9199   -278.90781     102002.7      46.7237      46.7237      46.7237 
  412000    129.64353   -10881.465   -9656.4419    80.447506     102002.7      46.7237      46.7237      46.7237 
  413000    129.95026   -10898.741   -9670.8195   -34.545736     102002.7      46.7237      46.7237      46.7237 
  414000    128.00474   -10885.865   -9676.3265    -51.46623     102002.7      46.7237      46.7237      46.7237 
  415000    129.71705   -10865.268   -9639.5499    223.60055     102002.7      46.7237      46.7237      46.7237 
  416000     130.4329    -10851.42   -9618.9381   -323.17069     102002.7      46.7237      46.7237      46.7237 
  417000    132.20409   -10906.909   -9657.6901    267.93504     102002.7      46.7237      46.7237      46.7237 
  418000     127.5738   -10879.301   -9673.8349    140.94386     102002.7      46.7237      46.7237      46.7237 
  419000    130.74233   -10871.055   -9635.6489    61.594144     102002.7      46.7237      46.7237      46.7237 
  420000    126.63549   -10910.181   -9713.5806   -196.74719     102002.7      46.7237      46.7237      46.7237 
  421000    129.36472   -10879.208    -9656.819   -150.80031     102002.7      46.7237      46.7237      46.7237 
  422000    129.09008   -10857.773    -9637.979   -51.257513     102002.7      46.7237      46.7237      46.7237 
  423000      129.325   -10916.169   -9694.1552   -113.12055     102002.7      46.7237      46.7237      46.7237 
  424000     129.3198   -10860.593   -9638.6284   -12.621242     102002.7      46.7237      46.7237      46.7237 
  425000    132.45245   -10877.462   -9625.8965   -167.47992     102002.7      46.7237      46.7237      46.7237 
  426000    132.01541   -10863.139   -9615.7031    85.522836     102002.7      46.7237      46.7237      46.7237 
  427000    127.88486   -10862.299   -9653.8932    499.61953     102002.7      46.7237      46.7237      46.7237 
  428000    128.17156   -10847.611   -9636.4962   -18.723236     102002.7      46.7237      46.7237      46.7237 
  429000    128.48266   -10874.732   -9660.6775     149.3827     102002.7      46.7237      46.7237      46.7237 
  430000    128.50874   -10851.459   -9637.1579    272.87674     102002.7      46.7237      46.7237      46.7237 
  431000    128.02297   -10882.755   -9673.0449   -53.839599     102002.7      46.7237      46.7237      46.7237 
  432000    128.98298   -10872.251    -9653.469    117.08527     102002.7      46.7237      46.7237      46.7237 
  433000    129.75937   -10869.463   -9643.3453    321.24604     102002.7      46.7237      46.7237      46.7237 
  434000    130.10601   -10850.142   -9620.7482   -24.162141     102002.7      46.7237      46.7237      46.7237 
  435000    127.74883   -10885.896   -9678.7754    134.89305     102002.7      46.7237      46.7237      46.7237 
  436000    129.18394   -10884.122   -9663.4413   -129.98525     102002.7      46.7237      46.7237      46.7237 
  437000    129.08651   -10845.585   -9625.8252     -134.508     102002.7      46.7237      46.7237      46.7237 
  438000    128.00784   -10880.466    -9670.898    -103.1147     102002.7      46.7237      46.7237      46.7237 
  439000    130.78626   -10858.466   -9622.6443    66.334134     102002.7      46.7237      46.7237      46.7237 
  440000    130.01523   -10865.047   -9636.5112    180.00446     102002.7      46.7237      46.7237      46.7237 
  441000    130.47087   -10868.141   -9635.2997    -110.2057     102002.7      46.7237      46.7237      46.7237 
  442000    129.83269   -10901.523   -9674.7121   -37.128073     102002.7      46.7237      46.7237      46.7237 
  443000    131.67236   -10895.679    -9651.485    -246.1428     102002.7      46.7237      46.7237      46.7237 
  444000    130.00135   -10869.008   -9640.6035   -137.67091     102002.7      46.7237      46.7237      46.7237 
  445000    130.14589   -10900.606   -9670.8359   -85.488633     102002.7      46.7237      46.7237      46.7237 
  446000    132.33148   -10890.698   -9640.2758   -412.40996     102002.7      46.7237      46.7237      46.7237 
  447000     132.0047    -10874.08   -9626.7452    15.570418     102002.7      46.7237      46.7237      46.7237 
  448000    129.14628   -10869.296   -9648.9711   -185.39299     102002.7      46.7237      46.7237      46.7237 
  449000    129.15332    -10873.81   -9653.4183   -304.69168     102002.7      46.7237      46.7237      46.7237 
  450000    129.24884   -10887.209    -9665.915   -153.46737     102002.7      46.7237      46.7237      46.7237 
  451000    129.77899   -10840.103   -9613.7993   -255.53874     102002.7      46.7237      46.7237      46.7237 
  452000    129.61308   -10861.719   -9636.9829   -213.53705     102002.7      46.7237      46.7237      46.7237 
  453000    130.86407   -10839.609   -9603.0523   -194.76829     102002.7      46.7237      46.7237      46.7237 
  454000    128.09144   -10881.701   -9671.3431   -149.59672     102002.7      46.7237      46.7237      46.7237 
  455000    131.57585   -10869.504   -9626.2217   -353.21353     102002.7      46.7237      46.7237      46.7237 
  456000     129.3522   -10881.991   -9659.7206   -32.857146     102002.7      46.7237      46.7237      46.7237 
  457000    129.63734   -10888.658   -9663.6931   -86.830743     102002.7      46.7237      46.7237      46.7237 
  458000     129.6167   -10876.197   -9651.4267    192.22019     102002.7      46.7237      46.7237      46.7237 
  459000      127.429   -10891.598   -9687.4996    25.546766     102002.7      46.7237      46.7237      46.7237 
  460000     130.8931   -10883.091   -9646.2602   -290.68841     102002.7      46.7237      46.7237      46.7237 
  461000    132.19101   -10852.008   -9602.9125    224.52356     102002.7      46.7237      46.7237      46.7237 
  462000    133.17898   -10903.405   -9644.9745   -80.479086     102002.7      46.7237      46.7237      46.7237 
  463000    133.33868   -10887.612   -9627.6729    -310.8829     102002.7      46.7237      46.7237      46.7237 
  464000    129.96697    -10855.93   -9627.8504   -409.97692     102002.7      46.7237      46.7237      46.7237 
  465000    129.35835   -10857.405   -9635.0767   -372.27208     102002.7      46.7237      46.7237      46.7237 
  466000    130.25607    -10873.85   -9643.0384   -327.77916     102002.7      46.7237      46.7237      46.7237 
  467000    128.27527   -10879.248    -9667.153   -393.50488     102002.7      46.7237      46.7237      46.7237 
  468000    130.38396   -10853.938   -9621.9181   -216.61373     102002.7      46.7237      46.7237      46.7237 
  469000    133.44483   -10898.265   -9637.3222    212.43241     102002.7      46.7237      46.7237      46.7237 
  470000    133.03548   -10872.697   -9615.6219   -248.68757     102002.7      46.7237      46.7237      46.7237 
  471000    129.53185    -10889.65   -9665.6818   -115.86129     102002.7      46.7237      46.7237      46.7237 
  472000     130.3769   -10859.161   -9627.2082    136.14145     102002.7      46.7237      46.7237      46.7237 
  473000    130.27426   -10845.694   -9614.7111   -26.266126     102002.7      46.7237      46.7237      46.7237 
  474000    127.56542   -10884.085   -9678.6984    -60.07067     102002.7      46.7237      46.7237      46.7237 
  475000    130.05634   -10854.235   -9625.3106    199.75586     102002.7      46.7237      46.7237      46.7237 
  476000     135.8707   -10876.138   -9592.2731   -33.265695     102002.7      46.7237      46.7237      46.7237 
  477000     130.0351   -10872.057   -9643.3332   -101.49082     102002.7      46.7237      46.7237      46.7237 
  478000    127.73254   -10843.235   -9636.2688   -173.26619     102002.7      46.7237      46.7237      46.7237 
  479000    128.51288   -10877.973   -9663.6334    77.144342     102002.7      46.7237      46.7237      46.7237 
  480000    132.42349   -10864.181   -9612.8892   -309.48321     102002.7      46.7237      46.7237      46.7237 
  481000    131.70168   -10862.573   -9618.1013    247.49141     102002.7      46.7237      46.7237      46.7237 
  482000    129.75129   -10856.369   -9630.3278    70.561186     102002.7      46.7237      46.7237      46.7237 
  483000    133.63696   -10896.783   -9634.0249   -110.32983     102002.7      46.7237      46.7237      46.7237 
  484000    129.54269   -10882.393   -9658.3224    141.97065     102002.7      46.7237      46.7237      46.7237 
  485000    130.80317    -10891.92   -9655.9384   -61.094049     102002.7      46.7237      46.7237      46.7237 
  486000    130.32376   -10876.043   -9644.5922    -396.7152     102002.7      46.7237      46.7237      46.7237 
  487000     130.1454   -10906.068   -9676.3025   -6.8522979     102002.7      46.7237      46.7237      46.7237 
  488000     126.9825   -10857.518    -9657.639   -302.85282     102002.7      46.7237      46.7237      46.7237 
  489000    130.85734   -10874.518   -9638.0253    192.45395     102002.7      46.7237      46.7237      46.7237 
  490000    127.13822   -10903.139   -9701.7889   -142.22607     102002.7      46.7237      46.7237      46.7237 
  491000    129.35088   -10871.371   -9649.1127   -85.535294     102002.7      46.7237      46.7237      46.7237 
  492000    132.91587   -10861.781   -9605.8371   -4.9909593     102002.7      46.7237      46.7237      46.7237 
  493000    126.50963   -10885.673   -9690.2625   -12.414777     102002.7      46.7237      46.7237      46.7237 
  494000    131.98142   -10888.016   -9640.9013    285.45094     102002.7      46.7237      46.7237      46.7237 
  495000    132.98801   -10862.911   -9606.2854    -87.91664     102002.7      46.7237      46.7237      46.7237 
  496000    128.47487    -10852.38   -9638.3995   -50.782167     102002.7      46.7237      46.7237      46.7237 
  497000    128.44047   -10879.147   -9665.4918    58.590853     102002.7      46.7237      46.7237      46.7237 
  498000    132.73007    -10893.65   -9639.4608   -6.7044021     102002.7      46.7237      46.7237      46.7237 
  499000    131.29811   -10876.366   -9635.7078    91.138303     102002.7      46.7237      46.7237      46.7237 
  500000     128.7538   -10857.377   -9640.7609   -335.85492     102002.7      46.7237      46.7237      46.7237 
  500500    131.47276   -10846.241   -9603.9329    123.51238     102002.7      46.7237      46.7237      46.7237 
Loop time of 1808.74 on 16 procs for 500000 steps with 3171 atoms

Performance: 23.884 ns/day, 1.005 hours/ns, 276.435 timesteps/s
99.8% CPU use with 16 MPI tasks x no OpenMP threads

MPI task timing breakdown:
Section |  min time  |  avg time  |  max time  |%varavg| %total
---------------------------------------------------------------
Pair    | 1020       | 1152.1     | 1338.8     | 271.2 | 63.70
Bond    | 145.34     | 174.65     | 205.33     | 140.1 |  9.66
Neigh   | 17.539     | 17.587     | 17.62      |   0.6 |  0.97
Comm    | 269.22     | 446.41     | 605.74     | 415.9 | 24.68
Output  | 0.020727   | 0.021222   | 0.024904   |   0.7 |  0.00
Modify  | 9.6987     | 11.183     | 12.705     |  31.5 |  0.62
Other   |            | 6.774      |            |       |  0.37

Nlocal:    198.188 ave 228 max 166 min
Histogram: 1 0 2 1 4 1 3 2 1 1
Nghost:    4034.75 ave 4062 max 4007 min
Histogram: 1 0 2 2 2 3 3 2 0 1
Neighs:    11454.8 ave 14324 max 7972 min
Histogram: 1 1 0 3 3 1 3 1 1 2

Total # of neighbors = 183276
Ave neighs/atom = 57.7975
Ave special neighs/atom = 3.63292
Neighbor list builds = 5122
Dangerous builds = 0
Neighbor list info ...
  update every 1 steps, delay 10 steps, check yes
  max neighbors/atom: 2000, page size: 100000
  master list distance cutoff = 16
  ghost atom cutoff = 16
  binsize = 8, bins = 6 6 6
  3 neighbor lists, perpetual/occasional/extra = 3 0 0
  (1) pair buck6d/coul/gauss/dsf, perpetual, skip from (3)
      attributes: half, newton on
      pair build: skip
      stencil: none
      bin: none
  (2) pair lj/cut, perpetual, skip from (3)
      attributes: half, newton on
      pair build: skip
      stencil: none
      bin: none
  (3) neighbor class addition, perpetual
      attributes: half, newton on
      pair build: half/bin/newton
      stencil: half/bin/3d/newton
      bin: standard
Setting up Verlet run ...
  Unit style    : real
  Current step  : 500500
  Time step     : 1
WARNING: Inconsistent image flags (../domain.cpp:786)
Per MPI rank memory allocation (min/avg/max) = 22.97 | 23.35 | 23.44 Mbytes
Step Time TotEng KinEng PotEng E_mol E_pair Temp Pxx Pyy Pzz Pxy Pxz Pyz Cella Cellb Cellc CellAlpha CellBeta CellGamma Volume Press 
  500500       500000   -9603.9329    1242.3082   -10846.241    4401.5055   -15247.747    131.47276   -442.08016     711.9282    100.68909    8.1356189    213.16746   -29.012463      46.7237      46.7237      46.7237           90           90           90     102002.7    123.51238 
  501000       500500   -9619.8457    1236.9321   -10856.778     4396.395   -15253.173    130.90381   -488.39039    403.97044   -656.66912   -61.546027    295.04531    187.01381      46.7237      46.7237      46.7237           90           90           90     102002.7   -247.02969 
  502000       501500   -9684.7256    1202.4667   -10887.192    4365.9662   -15253.158    127.25636    197.94689    319.54744   -89.463158   -76.631266    134.56237    76.949648      46.7237      46.7237      46.7237           90           90           90     102002.7    142.67706 
  503000       502500   -9627.7484    1247.3488   -10875.097    4373.4447   -15248.542    132.00621   -426.14165    228.10796    31.549028   -64.603545    14.149795    80.349275      46.7237      46.7237      46.7237           90           90           90     102002.7   -55.494887 
  504000       503500   -9639.9418    1266.3163   -10906.258    4369.2242   -15275.482    134.01353   -346.20978   -107.64513   -79.385526     22.85824   -92.285307    110.78992      46.7237      46.7237      46.7237           90           90           90     102002.7   -177.74681 
  505000       504500   -9600.6227    1252.6974    -10853.32    4382.3742   -15235.694    132.57224    19.642337    41.628154   -110.71424     267.8512    93.202289   -305.47485      46.7237      46.7237      46.7237           90           90           90     102002.7    -16.48125 
  506000       505500   -9626.1889    1244.7998   -10870.989    4377.1229   -15248.112    131.73645    290.60464    131.52386   -795.17232   -89.285602   -242.21572     219.1997      46.7237      46.7237      46.7237           90           90           90     102002.7   -124.34794 
  507000       506500   -9643.3083    1235.6387   -10878.947    4362.9421   -15241.889    130.76693     284.8009    124.33508   -82.508177    259.27328    14.309369   -47.348543      46.7237      46.7237      46.7237           90           90           90     102002.7    108.87593 
  508000       507500   -9583.5536    1270.6947   -10854.248    4383.7303   -15237.979    134.47689   -164.37125    358.03877    233.74827    235.73882    13.489327   -262.66366      46.7237      46.7237      46.7237           90           90           90     102002.7    142.47193 
  509000       508500   -9659.6454    1230.3725   -10890.018    4371.9294   -15261.947    130.20962    220.00496    183.68058   -168.22278   -66.352731   -68.268854    40.366026      46.7237      46.7237      46.7237           90           90           90     102002.7    78.487587 
  510000       509500   -9667.4027     1211.016   -10878.419    4386.1138   -15264.532    128.16112   -237.56932    202.03397   -507.20372   -125.25276    99.593908    -188.6337      46.7237      46.7237      46.7237           90           90           90     102002.7   -180.91303 
  511000       510500   -9660.9582    1215.5113   -10876.469    4370.0983   -15246.568    128.63686    28.454783    236.34353    556.11371    314.08364    167.08188    173.04074      46.7237      46.7237      46.7237           90           90           90     102002.7    273.63734 
  512000       511500   -9684.2116    1220.1684    -10904.38    4346.8505    -15251.23    129.12971    131.35985   -18.300923    126.40089    -27.29055     353.1198     29.78871      46.7237      46.7237      46.7237           90           90           90     102002.7    79.819938 
  513000       512500    -9601.888    1258.3904   -10860.278    4372.4405   -15232.719    133.17473    310.50459   -342.88165   -94.621114    74.805505   -14.671522   -281.74487      46.7237      46.7237      46.7237           90           90           90     102002.7   -42.332725 
  514000       513500   -9629.6203    1221.2348   -10850.855    4378.1295   -15228.985    129.24258   -475.71367    399.38165    397.28226   -139.42431   -249.68586    184.61338      46.7237      46.7237      46.7237           90           90           90     102002.7    106.98341 
  515000       514500   -9666.0605    1224.6253   -10890.686    4375.4827   -15266.168    129.60139    112.21455   -147.38349    534.16486    79.357644   -68.783914   -206.17544      46.7237      46.7237      46.7237           90           90           90     102002.7    166.33197 
  516000       515500   -9655.8427    1216.1898   -10872.032    4397.0653   -15269.098    128.70867    95.864066   -441.17529   -696.85447   -35.872544    22.843771   -40.093426      46.7237      46.7237      46.7237           90           90           90     102002.7   -347.38857 
  517000       516500   -9595.9392    1247.3303   -10843.269    4399.6406    -15242.91    132.00424    300.08304    78.328756   -69.643248    9.4762927   -66.252231   -260.90861      46.7237      46.7237      46.7237           90           90           90     102002.7    102.92285 
  518000       517500   -9635.1051    1257.6554    -10892.76    4377.7752   -15270.536    133.09694    56.880449   -69.137611   -31.519101    18.354423   -59.698765   -141.97449      46.7237      46.7237      46.7237           90           90           90     102002.7   -14.592088 
  519000       518500   -9648.7189    1220.8653   -10869.584    4385.9898   -15255.574    129.20347    105.32404   -317.73301    164.19407    44.163036    -206.5764   -76.523773      46.7237      46.7237      46.7237           90           90           90     102002.7   -16.071631 
  520000       519500   -9650.4573    1205.7551   -10856.212    4390.0628   -15246.275    127.60437   -621.07325   -70.225891    45.244527    -412.3909   -12.436654    -87.52253      46.7237      46.7237      46.7237           90           90           90     102002.7   -215.35154 
  521000       520500   -9638.3197    1242.7024   -10881.022    4381.2345   -15262.257    131.51448    123.11493    223.08348    337.86894   -139.55159   -160.72787   -96.644469      46.7237      46.7237      46.7237           90           90           90     102002.7    228.02245 
  522000       521500   -9668.5782    1204.8519    -10873.43    4407.8574   -15281.288    127.50879    420.36661    110.78651   -64.053133    59.987127    107.52794    27.795238      46.7237      46.7237      46.7237           90           90           90     102002.7    155.69999 
  523000       522500   -9661.3091    1198.4821   -10859.791    4406.4598   -15266.251    126.83467    97.110656    77.212346   -216.24639    86.173282    126.86317   -239.71033      46.7237      46.7237      46.7237           90           90           90     102002.7   -13.974462 
  524000       523500   -9653.4695    1215.8378   -10869.307    4375.0552   -15244.363    128.67142    109.83169    43.577277   -92.296815   -45.536402    50.995512   -205.69954      46.7237      46.7237      46.7237           90           90           90     102002.7    20.370716 
  525000       524500   -9652.6442    1217.4916   -10870.136    4390.1907   -15260.327    128.84644   -665.72439    165.60699    71.668627   0.51155995    382.44053   -237.51048      46.7237      46.7237      46.7237           90           90           90     102002.7   -142.81626 
  526000       525500   -9638.7936     1223.581   -10862.375    4396.5869   -15258.962    129.49088   -304.57278    104.97892    63.158669   -174.19645   -116.54202   -197.13974      46.7237      46.7237      46.7237           90           90           90     102002.7   -45.478396 
  527000       526500   -9629.3268    1243.9015   -10873.228    4394.0871   -15267.315    131.64139   -159.73347    -92.27505    117.73277   -56.105029   -93.214832   -20.502274      46.7237      46.7237      46.7237           90           90           90     102002.7   -44.758586 
  528000       527500   -9664.2498    1235.5052   -10899.755    4376.8945   -15276.649     130.7528   -190.63814   -66.275653   -656.75065    97.215977      176.904   -8.8951563      46.7237      46.7237      46.7237           90           90           90     102002.7   -304.55481 
  529000       528500   -9635.1274    1221.1649   -10856.292    4391.2993   -15247.592    129.23518   -202.72748   -33.689053   -638.57633   -353.88957    75.847012   -24.430221      46.7237      46.7237      46.7237           90           90           90     102002.7   -291.66429 
  530000       529500   -9666.6321    1226.9814   -10893.613    4364.5167    -15258.13    129.85074    -152.1824   -93.360877   -84.877264     -21.3319   -74.264171    174.49197      46.7237      46.7237      46.7237           90           90           90     102002.7   -110.14018 
  531000       530500   -9643.1526    1242.9873    -10886.14    4383.7483   -15269.888    131.54463   -175.02386    288.76803   -235.63208    150.37332   -292.17556    87.777937      46.7237      46.7237      46.7237           90           90           90     102002.7   -40.629301 
  532000       531500   -9598.7514    1223.2912   -10822.043    4410.0203   -15232.063     129.4602   -132.08776    -387.4671    60.243975   -93.628959   -65.180371    59.056374      46.7237      46.7237      46.7237           90           90           90     102002.7   -153.10363 
  533000       532500   -9655.0294    1209.4281   -10864.458    4370.1789   -15234.636    127.99308    788.73273   -344.94832   -432.41694   -26.631994   -412.27654    55.746838      46.7237      46.7237      46.7237           90           90           90     102002.7    3.7891587 
  534000       533500   -9646.8829    1227.2795   -10874.162    4375.6874    -15249.85    129.88228    -195.9568    190.53399    438.39274     225.1867   -251.33333   -237.41801      46.7237      46.7237      46.7237           90           90           90     102002.7    144.32331 
  535000       534500   -9625.9914    1234.3767   -10860.368    4420.7901   -15281.158    130.63337    245.38026    183.29915   -366.74787     12.76887     88.68887   -41.447608      46.7237      46.7237      46.7237           90           90           90     102002.7    20.643849 
  536000       535500   -9643.8323    1213.7043   -10857.537    4392.6051   -15250.142    128.44563    45.001116   -159.26517   -390.90852    115.58896    246.46857    37.396134      46.7237      46.7237      46.7237           90           90           90     102002.7   -168.39086 
  537000       536500   -9654.8569    1219.8807   -10874.738    4393.6507   -15268.388    129.09927   -117.85405   -53.884375   -298.19755    44.668221   -283.91063    -97.57519      46.7237      46.7237      46.7237           90           90           90     102002.7   -156.64533 
  538000       537500   -9634.7189    1250.9472   -10885.666    4377.8181   -15263.484    132.38703   -307.07728   -80.853379   -112.03892    76.431658   -278.87744    129.29946      46.7237      46.7237      46.7237           90           90           90     102002.7   -166.65653 
  539000       538500   -9598.8472    1262.9892   -10861.836    4396.4327   -15258.269    133.66142   -127.27922     25.75226   -797.00876    24.434266    411.01944   -54.175756      46.7237      46.7237      46.7237           90           90           90     102002.7   -299.51191 
  540000       539500   -9643.9359    1211.1005   -10855.036    4402.5516   -15257.588    128.17007   -113.12489   -206.44261    -240.9357   -156.55228    20.064799    199.90813      46.7237      46.7237      46.7237           90           90           90     102002.7    -186.8344 
  541000       540500   -9666.3775    1197.5726    -10863.95    4402.9816   -15266.932    126.73842   -193.37183   -44.910907   -46.096441    188.29338   -26.337575   -168.82638      46.7237      46.7237      46.7237           90           90           90     102002.7    -94.79306 
  542000       541500   -9644.8873    1221.3786   -10866.266    4392.2832   -15258.549    129.25779    276.98843   -242.66403   -636.63056   -110.50758   -3.1483861    132.75324      46.7237      46.7237      46.7237           90           90           90     102002.7   -200.76872 
  543000       542500   -9648.1044    1235.0299   -10883.134    4392.9552    -15276.09    130.70251    107.36531   -56.958272   -245.69196   -66.247428    255.32488   -215.78264      46.7237      46.7237      46.7237           90           90           90     102002.7   -65.094974 
  544000       543500    -9692.603    1177.3346   -10869.938    4406.2842   -15276.222    124.59665   -109.63392    177.14643   -266.92625   -37.873768   -110.39071    -137.5441      46.7237      46.7237      46.7237           90           90           90     102002.7   -66.471246 
  545000       544500   -9639.9606    1239.9335   -10879.894    4371.5058     -15251.4    131.22145    142.00843    331.59871   -358.25233   -130.41565    55.287537    178.44084      46.7237      46.7237      46.7237           90           90           90     102002.7    38.451601 
  546000       545500   -9668.8696    1244.7447   -10913.614    4373.1514   -15286.766    131.73061    154.33202   -235.90033    11.948686    116.85428    166.78439    93.602868      46.7237      46.7237      46.7237           90           90           90     102002.7   -23.206539 
  547000       546500   -9657.4959    1215.8258   -10873.322    4364.8517   -15238.173    128.67015   -239.37989     84.97178    67.438067   -321.03883    88.007728    78.255433      46.7237      46.7237      46.7237           90           90           90     102002.7   -28.990013 
  548000       547500    -9618.872    1249.5927   -10868.465    4391.2502   -15259.715    132.24368   -414.74665    -72.47229    234.61147   -134.33051    408.73645   -346.97625      46.7237      46.7237      46.7237           90           90           90     102002.7   -84.202489 
  549000       548500   -9678.6139    1191.1177   -10869.732    4404.3888    -15274.12     126.0553   -279.30092    205.38652   -193.84856    73.178415    26.418084   -148.17196      46.7237      46.7237      46.7237           90           90           90     102002.7   -89.254319 
  550000       549500   -9683.2293    1225.3104    -10908.54    4367.8951   -15276.435     129.6739   -297.59075   -478.27227   -199.26676   -122.27392   -107.27967   -1.7489465      46.7237      46.7237      46.7237           90           90           90     102002.7   -325.04326 
  551000       550500   -9649.1069    1229.0313   -10878.138    4391.7422    -15269.88    130.06767   -58.119784    113.97403   -312.50542   -226.19773    107.07526    95.771797      46.7237      46.7237      46.7237           90           90           90     102002.7   -85.550389 
  552000       551500   -9649.4483    1230.7989   -10880.247    4396.9824    -15277.23    130.25474   -658.35886    226.80182    289.81833    18.677294    133.20378   -131.56001      46.7237      46.7237      46.7237           90           90           90     102002.7   -47.246234 
  553000       552500   -9630.4902    1224.3794    -10854.87    4409.3124   -15264.182    129.57537   -63.037306   -123.62839   -62.046588   -194.04536   -343.78601    178.41703      46.7237      46.7237      46.7237           90           90           90     102002.7   -82.904095 
  554000       553500   -9666.2984    1192.8484   -10859.147    4397.8188   -15256.966    126.23846   -247.83966    255.00868    198.79499      28.9569    63.823757   -171.30968      46.7237      46.7237      46.7237           90           90           90     102002.7    68.654673 
  555000       554500   -9619.9348     1243.764   -10863.699    4376.3765   -15240.075    131.62683     189.2343   -154.04994   -162.09656   -144.65296    252.02399    518.42992      46.7237      46.7237      46.7237           90           90           90     102002.7   -42.304065 
[...]
  936000       935500    -9659.989    1209.3268   -10869.316    4374.0544    -15243.37    127.98236   -431.98589    -346.6486   -366.46073    235.49052    57.287936   -173.04873      46.7237      46.7237      46.7237           90           90           90     102002.7   -381.69841 
  937000       936500   -9638.0747    1261.1082   -10899.183    4362.8814   -15262.064    133.46235   -593.32346   -327.29017   -187.61239    260.47232   -112.64569    58.864086      46.7237      46.7237      46.7237           90           90           90     102002.7   -369.40867 
  938000       937500   -9630.1391    1247.8741   -10878.013     4373.192   -15251.205     132.0618   -320.64769   -164.25186   -263.48823   -138.77327   -19.231163   -34.097738      46.7237      46.7237      46.7237           90           90           90     102002.7   -249.46259 
  939000       938500   -9685.2676    1202.6426    -10887.91    4379.5033   -15267.414    127.27498    71.497139   -180.04196   -491.05608   -119.86637   -86.025055    3.1199641      46.7237      46.7237      46.7237           90           90           90     102002.7   -199.86697 
  940000       939500   -9672.7768    1216.2733    -10889.05    4402.2652   -15291.315     128.7175   -303.63854   -313.63832   -628.42595    249.54625    44.453518   -73.553852      46.7237      46.7237      46.7237           90           90           90     102002.7   -415.23427 
  941000       940500   -9621.8026    1254.8229   -10876.626    4371.2335   -15247.859    132.79719   -63.858094    552.43843   -86.379495   -97.362726   -61.564436    239.24993      46.7237      46.7237      46.7237           90           90           90     102002.7    134.06695 
  942000       941500   -9615.3823    1251.9526   -10867.335    4385.4881   -15252.823    132.49342   -230.43396    591.62704   -46.722534   -74.831765   -190.96615   -175.38348      46.7237      46.7237      46.7237           90           90           90     102002.7    104.82352 
  943000       942500   -9634.2466    1240.1944   -10874.441    4364.3863   -15238.827    131.24906   -76.575732   -73.745321   -96.424395    1.4069856   -248.53327   -180.11479      46.7237      46.7237      46.7237           90           90           90     102002.7   -82.248483 
  944000       943500   -9602.1206    1261.9129   -10864.033    4374.3777   -15238.411    133.54752    97.204194    292.57482   -697.85602   -29.093511   -34.462381   -198.62994      46.7237      46.7237      46.7237           90           90           90     102002.7   -102.69234 
  945000       944500   -9625.7115     1242.519   -10868.231    4391.1777   -15259.408    131.49507    201.13441   -145.04827    23.251412    136.98889   -103.21229    356.47413      46.7237      46.7237      46.7237           90           90           90     102002.7    26.445853 
  946000       945500   -9709.7319     1202.774   -10912.506    4361.4314   -15273.937    127.28888   -236.17818    122.32234   -620.22101   -435.11716    333.75985    -1.161902      46.7237      46.7237      46.7237           90           90           90     102002.7   -244.69229 
  947000       946500   -9657.3213    1194.7549   -10852.076    4410.1209   -15262.197    126.44023    226.54642    418.74301   -287.04418    510.59233    233.63688    172.20939      46.7237      46.7237      46.7237           90           90           90     102002.7    119.41508 
  948000       947500   -9604.9382    1254.3676   -10859.306    4385.3367   -15244.643      132.749   -7.1153136    556.14864    30.739109   -16.989412   -194.03623    220.93483      46.7237      46.7237      46.7237           90           90           90     102002.7    193.25748 
  949000       948500   -9655.4032    1221.0635   -10876.467    4366.4554   -15242.922    129.22445    50.975677    154.67664    109.25641   -207.47352   -54.094397    143.66763      46.7237      46.7237      46.7237           90           90           90     102002.7    104.96958 
  950000       949500    -9600.221    1232.7441   -10832.965    4399.7652    -15232.73     130.4606    204.47619    421.39321   -61.056211   -318.61468    278.85968    367.64154      46.7237      46.7237      46.7237           90           90           90     102002.7    188.27106 
  951000       950500    -9644.486    1217.5549   -10862.041    4386.9796   -15249.021    128.85314   -247.48041   -97.881788   -263.64401    30.784585    -10.50811    161.34823      46.7237      46.7237      46.7237           90           90           90     102002.7   -203.00207 
  952000       951500   -9642.7463    1230.3347   -10873.081    4362.1555   -15235.237    130.20562   -245.83742   -408.55291   -200.40316    161.68252   -56.170899   -263.64303      46.7237      46.7237      46.7237           90           90           90     102002.7   -284.93116 
  953000       952500   -9616.8588    1221.3612    -10838.22    4394.3853   -15232.605    129.25595   -49.715532    106.02651    202.12324    179.50741    373.78266    47.956669      46.7237      46.7237      46.7237           90           90           90     102002.7    86.144737 
  954000       953500   -9610.3085    1249.6343   -10859.943    4395.9839   -15255.927    132.24808    393.93407    231.19825    39.275389    182.10787   -122.90759   -3.8553606      46.7237      46.7237      46.7237           90           90           90     102002.7    221.46923 
  955000       954500   -9648.1961    1236.4529   -10884.649    4365.6125   -15250.261    130.85309   -334.21379   -70.732909   -233.03024   -30.367513    68.366127    112.80787      46.7237      46.7237      46.7237           90           90           90     102002.7   -212.65898 
  956000       955500   -9641.5047    1228.0757    -10869.58    4391.8578   -15261.438    129.96655    72.667677    418.02101    393.94897    188.18879   -173.27974    238.30073      46.7237      46.7237      46.7237           90           90           90     102002.7    294.87922 
  957000       956500   -9728.8923    1169.3756   -10898.268    4382.5667   -15280.835    123.75435   -616.20675    142.13862   -291.72492    108.09593   -99.541655   -31.297846      46.7237      46.7237      46.7237           90           90           90     102002.7   -255.26435 
  958000       957500   -9615.2372    1242.6317   -10857.869    4387.5898   -15245.459      131.507   -44.952171    367.18663     86.54555   -329.58527    96.579581   -144.87705      46.7237      46.7237      46.7237           90           90           90     102002.7       136.26 
  959000       958500   -9667.4497    1232.3491   -10899.799    4353.7661   -15253.565     130.4188     26.45891   -383.47512   -86.730908    72.473868   -11.117031   -15.471686      46.7237      46.7237      46.7237           90           90           90     102002.7   -147.91571 
  960000       959500   -9611.3925    1250.1644   -10861.557    4376.7454   -15238.302    132.30418   -147.45092   -13.362743    267.87485    35.819361    27.779895    253.89744      46.7237      46.7237      46.7237           90           90           90     102002.7    35.687063 
  961000       960500   -9624.6821      1236.66   -10861.342    4382.5201   -15243.862    130.87502    486.65191   -80.655898   -84.449773    28.737266   -8.4687417   -9.6537691      46.7237      46.7237      46.7237           90           90           90     102002.7    107.18208 
  962000       961500    -9640.962      1227.46   -10868.422    4385.9706   -15254.393    129.90139   -644.87506    40.470522   -67.121402   -60.270407     79.45369    56.103288      46.7237      46.7237      46.7237           90           90           90     102002.7   -223.84198 
  963000       962500   -9678.9455    1204.4274   -10883.373    4384.9924   -15268.365    127.46386   -93.782195   -173.96939   -148.77369    244.72281   -33.606542    159.55569      46.7237      46.7237      46.7237           90           90           90     102002.7   -138.84176 
  964000       963500   -9648.8793    1212.4619   -10861.341     4389.142   -15250.483    128.31414    -397.8072   -182.46967    230.58539    173.40179    4.7737607   -178.74204      46.7237      46.7237      46.7237           90           90           90     102002.7   -116.56382 
  965000       964500   -9627.4353    1238.0841   -10865.519    4377.9225   -15243.442    131.02573   -169.48909   -289.27084    80.894378   -36.765667   -138.87224    -236.7745      46.7237      46.7237      46.7237           90           90           90     102002.7   -125.95519 
  966000       965500   -9627.2412    1238.4877   -10865.729    4411.1757   -15276.905    131.06844    302.15531    114.50344    -403.1483   -36.854705    88.125636    258.97098      46.7237      46.7237      46.7237           90           90           90     102002.7    4.5034851 
  967000       966500   -9685.6364    1201.4304   -10887.067    4380.7052   -15267.772    127.14669    282.24498    52.964199    267.33137   -51.958906   -54.455324    -103.0455      46.7237      46.7237      46.7237           90           90           90     102002.7    200.84685 
  968000       967500   -9641.4404    1239.9976   -10881.438     4382.293   -15263.731    131.22823   -344.72968    100.31127    218.37613    129.13838   -111.37254   -171.36899      46.7237      46.7237      46.7237           90           90           90     102002.7   -8.6807587 
  969000       968500   -9693.3029    1201.9914   -10895.294    4378.5853    -15273.88    127.20606    7.7217107    70.031713    224.61294     19.96354    15.109827    4.6551255      46.7237      46.7237      46.7237           90           90           90     102002.7    100.78879 
  970000       969500   -9630.9952     1230.011   -10861.006    4392.5248   -15253.531    130.17136    287.99546   -391.00285    405.44739    30.787675   -240.79593    57.766011      46.7237      46.7237      46.7237           90           90           90     102002.7    100.81333 
  971000       970500   -9724.0478    1189.0198   -10913.068    4373.0486   -15286.116    125.83328   -65.081351    20.245277   -265.64755    47.421478   -152.55831    72.672006      46.7237      46.7237      46.7237           90           90           90     102002.7   -103.49454 
  972000       971500   -9642.0977    1230.5912   -10872.689    4382.8783   -15255.567    130.23276    37.066251     374.8045    316.07279    478.52986    286.63043    203.99303      46.7237      46.7237      46.7237           90           90           90     102002.7    242.64785 
  973000       972500   -9616.9351    1242.4166   -10859.352    4399.6951   -15259.047    131.48423   -261.83199    205.61707   -25.573487    70.772462   -156.27758    100.98195      46.7237      46.7237      46.7237           90           90           90     102002.7   -27.262799 
  974000       973500   -9648.6568    1219.9647   -10868.621    4392.7457   -15261.367    129.10816    223.33208    413.81198   -323.12291   -56.718655   -43.229169    135.86716      46.7237      46.7237      46.7237           90           90           90     102002.7    104.67372 
  975000       974500   -9685.3652    1234.6825   -10920.048    4363.7962   -15283.844    130.66574   -18.868462     20.77077    243.04537   -22.794488    128.38144    305.50622      46.7237      46.7237      46.7237           90           90           90     102002.7    81.649228 
  976000       975500   -9660.2826     1222.607    -10882.89    4392.0405    -15274.93    129.38779   -125.30397   -43.612382   -282.79316   -535.64898   -82.578008   -23.809636      46.7237      46.7237      46.7237           90           90           90     102002.7   -150.56984 
  977000       976500   -9653.7815    1236.9051   -10890.687    4386.9971   -15277.684    130.90096   -348.73011   -281.96424    107.66479     12.43815   -122.63244   -144.06358      46.7237      46.7237      46.7237           90           90           90     102002.7   -174.34319 
  978000       977500   -9629.2738    1242.8335   -10872.107    4365.0759   -15237.183    131.52836   -170.15445     183.0099    7.2797658    136.16383    29.059171    73.281552      46.7237      46.7237      46.7237           90           90           90     102002.7    6.7117391 
  979000       978500   -9645.2966    1232.6537    -10877.95    4377.7916   -15255.742    130.45103   -218.21249   -281.03454   -119.08847    89.075201   -178.63644    -109.2859      46.7237      46.7237      46.7237           90           90           90     102002.7   -206.11183 
  980000       979500   -9644.4576    1228.2358   -10872.693    4370.2711   -15242.964    129.98349   -667.86225     653.3914    -528.9889   -143.44665   -192.52658     30.80845      46.7237      46.7237      46.7237           90           90           90     102002.7   -181.15325 
  981000       980500   -9637.2432    1234.1971    -10871.44    4412.8687   -15284.309    130.61436   -149.91648   -64.459123    97.448698    237.68503    89.521056   -64.352722      46.7237      46.7237      46.7237           90           90           90     102002.7   -38.975634 
  982000       981500   -9644.4718    1257.3498   -10901.822     4351.423   -15253.245     133.0646   -214.59098    4.3324936    377.03498    50.714931    69.914292   -245.16503      46.7237      46.7237      46.7237           90           90           90     102002.7    55.592165 
  983000       982500   -9603.7503    1249.8951   -10853.645    4404.4685   -15258.114    132.27568    -96.73002    114.18607    552.17665   -102.75309   -265.83987   -244.82567      46.7237      46.7237      46.7237           90           90           90     102002.7    189.87757 
  984000       983500   -9645.2346    1231.7471   -10876.982    4388.2854   -15265.267    130.35508    -101.8871   -16.594236    364.18458    31.556176   -86.756044    139.74133      46.7237      46.7237      46.7237           90           90           90     102002.7    81.901079 
  985000       984500   -9641.8473    1224.3719   -10866.219    4377.7747   -15243.994    129.57458   -144.29418    82.613664    619.89736    -83.50011    508.47722     64.40724      46.7237      46.7237      46.7237           90           90           90     102002.7    186.07228 
  986000       985500   -9681.5895    1220.6085   -10902.198    4359.4337   -15261.632     129.1763   -9.9861837   -309.06768    47.152734   -50.605278   -104.63317    209.47957      46.7237      46.7237      46.7237           90           90           90     102002.7   -90.633708 
  987000       986500   -9639.5002     1242.312   -10881.812    4386.0908   -15267.903    131.47316    78.454566   -143.31455   -9.5059121    29.286377   -65.954881    55.388191      46.7237      46.7237      46.7237           90           90           90     102002.7   -24.788633 
  988000       987500   -9676.0329    1225.1089   -10901.142    4357.0906   -15258.232    129.65257    136.08414   -589.97751     192.2859   -164.84355   -353.27389   -86.028651      46.7237      46.7237      46.7237           90           90           90     102002.7   -87.202492 
  989000       988500   -9623.6533    1247.6427   -10871.296    4364.3815   -15235.677    132.03731    470.01744   -69.087275    148.66804    83.567783   -140.64028   -5.2679573      46.7237      46.7237      46.7237           90           90           90     102002.7     183.1994 
  990000       989500   -9654.6855     1205.433   -10860.119     4385.704   -15245.823    127.57028    387.54787   0.94731817    218.78602   -291.36681    -308.3481    28.516099      46.7237      46.7237      46.7237           90           90           90     102002.7    202.42707 
  991000       990500   -9601.8165    1239.6987   -10841.515    4379.4896   -15221.005     131.1966    397.97598   -25.447703     302.6585   -169.66147   -51.409486   -118.45634      46.7237      46.7237      46.7237           90           90           90     102002.7    225.06226 
  992000       991500   -9621.0363    1243.8446   -10864.881    4370.9176   -15235.799    131.63536    222.65195   -11.411478    -21.98168    5.1273946   -35.083823    208.63531      46.7237      46.7237      46.7237           90           90           90     102002.7    63.086263 
  993000       992500    -9607.684     1237.602   -10845.286    4425.0293   -15270.315    130.97471    268.82558   -371.83539    -407.7257    23.919069    481.36185   -55.003523      46.7237      46.7237      46.7237           90           90           90     102002.7   -170.24517 
  994000       993500   -9663.2292    1193.8249   -10857.054    4389.3884   -15246.442     126.3418    353.88371    243.39402    72.747622   -65.901162     6.749539    98.074222      46.7237      46.7237      46.7237           90           90           90     102002.7    223.34178 
  995000       994500   -9658.7109    1218.9364   -10877.647    4388.9754   -15266.623    128.99934    196.55734     31.13677   -38.079882    85.990145   -333.03299   -127.12566      46.7237      46.7237      46.7237           90           90           90     102002.7    63.204742 
  996000       995500   -9653.1801    1229.7699    -10882.95    4357.6353   -15240.585    130.14584    207.39708    278.57492    213.60532   -14.244112    315.20946   -250.43386      46.7237      46.7237      46.7237           90           90           90     102002.7    233.19244 
  997000       996500   -9611.0567    1261.5574   -10872.614    4378.7486   -15251.363    133.50989    393.50218    -340.7354    235.13078   -49.923173     145.8756   -228.46545      46.7237      46.7237      46.7237           90           90           90     102002.7    95.965856 
  998000       997500    -9662.315    1199.3345    -10861.65    4383.0855   -15244.735    126.92488   -367.17848   -182.67766      142.676    38.822228    108.54673    93.699438      46.7237      46.7237      46.7237           90           90           90     102002.7   -135.72671 
  999000       998500   -9682.5782    1205.3633   -10887.941    4379.8388    -15267.78     127.5629    298.90936   -158.87372   -131.68077    148.91127   -211.07936    230.32672      46.7237      46.7237      46.7237           90           90           90     102002.7    2.7849532 
 1000000       999500   -9673.0201    1235.0624   -10908.083    4374.8474    -15282.93    130.70595    34.239218    465.45728     -6.89433   -80.822967     87.77719    8.4306076      46.7237      46.7237      46.7237           90           90           90     102002.7    164.26739 
 1000500      1000000   -9634.7037    1219.9802   -10854.684    4397.2067   -15251.891     129.1098   -105.94975    728.42293    -144.1178    47.216839   -65.729656   -242.77146      46.7237      46.7237      46.7237           90           90           90     102002.7    159.45179 
Loop time of 2264.8 on 16 procs for 500000 steps with 3171 atoms

Performance: 19.075 ns/day, 1.258 hours/ns, 220.770 timesteps/s
99.8% CPU use with 16 MPI tasks x no OpenMP threads

MPI task timing breakdown:
Section |  min time  |  avg time  |  max time  |%varavg| %total
---------------------------------------------------------------
Pair    | 1157.5     | 1455       | 1792.5     | 515.3 | 64.24
Bond    | 162.64     | 183.77     | 206.65     |  96.0 |  8.11
Neigh   | 17.601     | 17.66      | 17.692     |   0.6 |  0.78
Comm    | 215.88     | 577.06     | 892.84     | 865.4 | 25.48
Output  | 0.12967    | 0.13498    | 0.13551    |   0.4 |  0.01
Modify  | 23.541     | 24.544     | 25.455     |  12.9 |  1.08
Other   |            | 6.63       |            |       |  0.29

Nlocal:    198.188 ave 226 max 158 min
Histogram: 1 1 1 0 3 2 1 2 2 3
Nghost:    4022.56 ave 4077 max 3998 min
Histogram: 4 2 3 3 0 2 0 1 0 1
Neighs:    11458.7 ave 17663 max 6014 min
Histogram: 1 0 3 3 2 2 3 0 1 1

Total # of neighbors = 183339
Ave neighs/atom = 57.8174
Ave special neighs/atom = 3.63292
Neighbor list builds = 5125
Dangerous builds = 0
Total wall time: 1:07:58
