LAMMPS (30 Mar 2018)
Reading data file ...
  orthogonal box = (0 0 0) to (46.7237 46.7237 46.7237)
  2 by 2 by 4 MPI processor grid
  reading atoms ...
  3086 atoms
  scanning bonds ...
  5 = max bonds/atom
  scanning angles ...
  10 = max angles/atom
  scanning dihedrals ...
  32 = max dihedrals/atom
  scanning impropers ...
  3 = max impropers/atom
  reading bonds ...
  2064 bonds
  reading angles ...
  3696 angles
  reading dihedrals ...
  6240 dihedrals
  reading impropers ...
  1008 impropers
Finding 1-2 1-3 1-4 neighbors ...
  special bond factors lj:   0          0          0         
  special bond factors coul: 0          0          0         
  5 = max # of 1-2 neighbors
  8 = max # of 1-3 neighbors
  20 = max # of 1-4 neighbors
  19 = max # of special neighbors
Finding 1-2 1-3 1-4 neighbors ...
  special bond factors lj:   0          0          1         
  special bond factors coul: 1          1          1         
  5 = max # of 1-2 neighbors
  8 = max # of 1-3 neighbors
  19 = max # of special neighbors
WARNING: Using 'neigh_modify every 1 delay 0 check yes' setting during minimization (../min.cpp:168)
Neighbor list info ...
  update every 1 steps, delay 0 steps, check yes
  max neighbors/atom: 2000, page size: 100000
  master list distance cutoff = 16
  ghost atom cutoff = 16
  binsize = 8, bins = 6 6 6
  3 neighbor lists, perpetual/occasional/extra = 3 0 0
  (1) pair buck6d/coul/gauss/dsf, perpetual, skip from (3)
      attributes: half, newton on
      pair build: skip
      stencil: none
      bin: none
  (2) pair lj/cut, perpetual, skip from (3)
      attributes: half, newton on
      pair build: skip
      stencil: none
      bin: none
  (3) neighbor class addition, perpetual
      attributes: half, newton on
      pair build: half/bin/newton
      stencil: half/bin/3d/newton
      bin: standard
Setting up cg style minimization ...
  Unit style    : real
  Current step  : 0
WARNING: Inconsistent image flags (../domain.cpp:786)
Per MPI rank memory allocation (min/avg/max) = 23.01 | 23.46 | 23.91 Mbytes
Step Temp E_pair E_mol TotEng Press 
       0            0   -14981.706    6482.8914   -8498.8148    6016.0319 
     500            0   -15449.371    3739.9233   -11709.448   -2120.6735 
Loop time of 6.2355 on 16 procs for 500 steps with 3086 atoms

99.9% CPU use with 16 MPI tasks x no OpenMP threads

Minimization stats:
  Stopping criterion = max force evaluations
  Energy initial, next-to-last, final = 
        -8498.81477413     -11709.3058477     -11709.4480323
  Force two-norm initial, final = 2575.61 16.3185
  Force max component initial, final = 152.118 3.12584
  Final line search alpha, max atom move = 0.00591083 0.0184763
  Iterations, force evaluations = 500 1000

MPI task timing breakdown:
Section |  min time  |  avg time  |  max time  |%varavg| %total
---------------------------------------------------------------
Pair    | 2.4756     | 3.3732     | 4.4761     |  32.7 | 54.10
Bond    | 0.30665    | 0.39379    | 0.48456    |   8.3 |  6.32
Neigh   | 0.059165   | 0.059606   | 0.060066   |   0.1 |  0.96
Comm    | 1.2446     | 2.358      | 3.3037     |  41.4 | 37.82
Output  | 0          | 0          | 0          |   0.0 |  0.00
Modify  | 0          | 0          | 0          |   0.0 |  0.00
Other   |            | 0.05087    |            |       |  0.82

Nlocal:    192.875 ave 230 max 172 min
Histogram: 2 2 5 2 1 2 0 0 1 1
Nghost:    3853 ave 3890 max 3818 min
Histogram: 1 2 1 1 3 2 3 2 0 1
Neighs:    11465.1 ave 17892 max 6565 min
Histogram: 2 3 1 3 1 1 1 3 0 1

Total # of neighbors = 183441
Ave neighs/atom = 59.443
Ave special neighs/atom = 3.73299
Neighbor list builds = 12
Dangerous builds = 0
Neighbor list info ...
  update every 1 steps, delay 10 steps, check yes
  max neighbors/atom: 2000, page size: 100000
  master list distance cutoff = 16
  ghost atom cutoff = 16
  binsize = 8, bins = 6 6 6
  3 neighbor lists, perpetual/occasional/extra = 3 0 0
  (1) pair buck6d/coul/gauss/dsf, perpetual, skip from (3)
      attributes: half, newton on
      pair build: skip
      stencil: none
      bin: none
  (2) pair lj/cut, perpetual, skip from (3)
      attributes: half, newton on
      pair build: skip
      stencil: none
      bin: none
  (3) neighbor class addition, perpetual
      attributes: half, newton on
      pair build: half/bin/newton
      stencil: half/bin/3d/newton
      bin: standard
Setting up Verlet run ...
  Unit style    : real
  Current step  : 500
  Time step     : 1
WARNING: Inconsistent image flags (../domain.cpp:786)
Per MPI rank memory allocation (min/avg/max) = 22.65 | 22.74 | 22.97 Mbytes
Step Temp PotEng TotEng Press Volume Lx Ly Lz 
     500          130   -11709.448   -10513.994   -1584.9336     102002.7      46.7237      46.7237      46.7237 
    1000    112.65501   -10745.467   -9709.5144   -535.22387     102002.7      46.7237      46.7237      46.7237 
    2000    129.53947   -10572.274   -9381.0548   -75.355261     102002.7      46.7237      46.7237      46.7237 
    3000    125.92606   -10598.748   -9440.7572   -209.85109     102002.7      46.7237      46.7237      46.7237 
    4000      133.157   -10591.154   -9366.6695    75.713061     102002.7      46.7237      46.7237      46.7237 
    5000    129.29775   -10593.431   -9404.4347   -177.46554     102002.7      46.7237      46.7237      46.7237 
    6000    129.94401   -10572.969   -9378.0297   -53.098643     102002.7      46.7237      46.7237      46.7237 
    7000     130.1248   -10601.128   -9404.5264   -408.54028     102002.7      46.7237      46.7237      46.7237 
    8000    129.22606   -10558.062   -9369.7247   -314.62552     102002.7      46.7237      46.7237      46.7237 
    9000    130.15939   -10614.464   -9417.5442   -330.59957     102002.7      46.7237      46.7237      46.7237 
   10000    127.02506   -10594.493   -9426.3963   -155.49208     102002.7      46.7237      46.7237      46.7237 
   11000    133.15383   -10607.376   -9382.9201   -191.67524     102002.7      46.7237      46.7237      46.7237 
   12000    127.46459   -10592.155    -9420.016   -284.88566     102002.7      46.7237      46.7237      46.7237 
   13000    126.12921   -10602.161   -9442.3025   -509.95214     102002.7      46.7237      46.7237      46.7237 
   14000    130.92143   -10588.432   -9384.5053   -566.82428     102002.7      46.7237      46.7237      46.7237 
   15000    131.40795   -10577.051   -9368.6504   -595.00426     102002.7      46.7237      46.7237      46.7237 
   16000    132.05379   -10591.431   -9377.0914   -401.36483     102002.7      46.7237      46.7237      46.7237 
   17000     129.1416   -10600.674   -9413.1134   -186.58184     102002.7      46.7237      46.7237      46.7237 
   18000    130.92667   -10605.201   -9401.2261   -612.13668     102002.7      46.7237      46.7237      46.7237 
   19000    129.60355   -10570.449   -9378.6413   -512.49678     102002.7      46.7237      46.7237      46.7237 
   20000    129.25082   -10587.493   -9398.9285   -218.43562     102002.7      46.7237      46.7237      46.7237 
   21000    128.76268    -10593.79   -9409.7147   -256.20202     102002.7      46.7237      46.7237      46.7237 
   22000    129.47019   -10560.915   -9370.3328   -439.19125     102002.7      46.7237      46.7237      46.7237 
   23000    133.27438   -10587.921   -9362.3568   -471.75502     102002.7      46.7237      46.7237      46.7237 
   24000    131.40725   -10577.201    -9368.806   -227.92909     102002.7      46.7237      46.7237      46.7237 
   25000    130.49254   -10589.223   -9389.2396   -140.01236     102002.7      46.7237      46.7237      46.7237 
   26000    128.87144   -10612.459   -9427.3836   -289.00829     102002.7      46.7237      46.7237      46.7237 
   27000    130.91414    -10572.07   -9368.2101   -547.49576     102002.7      46.7237      46.7237      46.7237 
   28000    128.98796   -10591.318   -9405.1711   -72.704169     102002.7      46.7237      46.7237      46.7237 
   29000    130.13499   -10563.159   -9366.4642   -304.28349     102002.7      46.7237      46.7237      46.7237 
   30000    130.72165    -10571.64   -9369.5502   -399.43387     102002.7      46.7237      46.7237      46.7237 
   31000    125.87711   -10580.899   -9423.3585   -494.54123     102002.7      46.7237      46.7237      46.7237 
   32000     130.1667   -10596.136   -9399.1488   -540.64872     102002.7      46.7237      46.7237      46.7237 
   33000    132.85796   -10578.354   -9356.6186   -488.46888     102002.7      46.7237      46.7237      46.7237 
   34000    131.91001   -10578.994   -9365.9763   -295.52918     102002.7      46.7237      46.7237      46.7237 
   35000    129.29145   -10581.173   -9392.2347   -363.85272     102002.7      46.7237      46.7237      46.7237 
   36000    130.51863   -10587.131   -9386.9078   -285.30032     102002.7      46.7237      46.7237      46.7237 
   37000    130.30667   -10587.462   -9389.1883   -414.91484     102002.7      46.7237      46.7237      46.7237 
   38000    129.12403   -10572.106   -9384.7075   -241.28046     102002.7      46.7237      46.7237      46.7237 
   39000    129.54194    -10588.28   -9397.0387   -236.97817     102002.7      46.7237      46.7237      46.7237 
   40000    131.31929   -10594.185   -9386.5991   -327.43058     102002.7      46.7237      46.7237      46.7237 
   41000     133.7476   -10588.416   -9358.5004   -222.59838     102002.7      46.7237      46.7237      46.7237 
   42000    130.69092   -10593.184   -9391.3761   -95.892706     102002.7      46.7237      46.7237      46.7237 
   43000    130.24335   -10586.303   -9388.6116   -321.56291     102002.7      46.7237      46.7237      46.7237 
   44000    131.23328   -10587.514   -9380.7195    -464.5811     102002.7      46.7237      46.7237      46.7237 
   45000    130.51155   -10603.216   -9403.0575   -567.66912     102002.7      46.7237      46.7237      46.7237 
   46000    128.22041   -10616.228   -9437.1389    -348.1155     102002.7      46.7237      46.7237      46.7237 
   47000    129.85106   -10569.268   -9375.1835   -249.77917     102002.7      46.7237      46.7237      46.7237 
   48000    129.61851   -10543.034   -9351.0885   -472.85075     102002.7      46.7237      46.7237      46.7237 
   49000    131.11251   -10593.464   -9387.7801   -217.39234     102002.7      46.7237      46.7237      46.7237 
   50000    132.43347   -10587.972   -9370.1402   -362.87764     102002.7      46.7237      46.7237      46.7237 
   51000    131.55966   -10595.804    -9386.008   -237.11841     102002.7      46.7237      46.7237      46.7237 
   52000    128.58348   -10599.173    -9416.745   -536.24202     102002.7      46.7237      46.7237      46.7237 
   53000    129.86304   -10577.009   -9382.8142   -422.58154     102002.7      46.7237      46.7237      46.7237 
   54000    132.74603   -10609.196   -9388.4901   -242.72451     102002.7      46.7237      46.7237      46.7237 
   55000     131.9902   -10622.226   -9408.4704   -470.00957     102002.7      46.7237      46.7237      46.7237 
   56000    131.73159   -10609.772   -9398.3948   -274.17944     102002.7      46.7237      46.7237      46.7237 
   57000    131.79292   -10587.394   -9375.4529   -410.26993     102002.7      46.7237      46.7237      46.7237 
   58000    129.98629   -10584.877   -9389.5487   -94.399933     102002.7      46.7237      46.7237      46.7237 
   59000    129.99355   -10566.927    -9371.532   -579.04174     102002.7      46.7237      46.7237      46.7237 
   60000    129.95713   -10602.709   -9407.6495    -484.4956     102002.7      46.7237      46.7237      46.7237 
   61000    132.88875   -10605.097   -9383.0792   -343.56068     102002.7      46.7237      46.7237      46.7237 
   62000     129.5658   -10599.195   -9407.7341   -547.12102     102002.7      46.7237      46.7237      46.7237 
   63000    133.42939   -10619.862    -9392.872    -302.1421     102002.7      46.7237      46.7237      46.7237 
   64000    129.40891   -10604.382   -9414.3632   -481.21501     102002.7      46.7237      46.7237      46.7237 
   65000    130.42694   -10570.908   -9371.5283   -863.76447     102002.7      46.7237      46.7237      46.7237 
   66000    130.18773   -10537.787   -9340.6068    -588.6193     102002.7      46.7237      46.7237      46.7237 
   67000    131.19449    -10586.27   -9379.8314   -343.39583     102002.7      46.7237      46.7237      46.7237 
   68000    127.80316   -10597.927   -9422.6749   -525.27434     102002.7      46.7237      46.7237      46.7237 
   69000    130.90625   -10564.753   -9360.9654   -426.18663     102002.7      46.7237      46.7237      46.7237 
   70000    129.11821   -10599.295   -9411.9496   -452.22801     102002.7      46.7237      46.7237      46.7237 
   71000    129.91357   -10599.951   -9405.2922    -401.9852     102002.7      46.7237      46.7237      46.7237 
   72000    133.48306   -10556.047    -9328.564   -470.83573     102002.7      46.7237      46.7237      46.7237 
   73000     131.5522   -10599.349   -9389.6212   -475.13466     102002.7      46.7237      46.7237      46.7237 
   74000    133.35975   -10573.694   -9347.3445   -592.07004     102002.7      46.7237      46.7237      46.7237 
   75000    131.03683   -10592.314   -9387.3255   -330.86264     102002.7      46.7237      46.7237      46.7237 
   76000    128.85754   -10573.119   -9388.1715   -351.58842     102002.7      46.7237      46.7237      46.7237 
   77000    128.42337   -10624.807   -9443.8514   -865.01372     102002.7      46.7237      46.7237      46.7237 
   78000    134.17854   -10618.727   -9384.8481   -433.55939     102002.7      46.7237      46.7237      46.7237 
   79000    131.61328   -10575.295   -9365.0054   -455.70882     102002.7      46.7237      46.7237      46.7237 
   80000    129.96681     -10584.3   -9389.1513   -187.82836     102002.7      46.7237      46.7237      46.7237 
   81000    132.59883   -10597.842   -9378.4903   -27.013237     102002.7      46.7237      46.7237      46.7237 
   82000    127.70384   -10588.391   -9414.0526   -580.28273     102002.7      46.7237      46.7237      46.7237 
   83000    129.40272   -10584.769   -9394.8073   -210.06627     102002.7      46.7237      46.7237      46.7237 
   84000    131.90243   -10602.681   -9389.7328   -302.01261     102002.7      46.7237      46.7237      46.7237 
   85000    130.55227   -10559.587   -9359.0544    -211.9767     102002.7      46.7237      46.7237      46.7237 
   86000    127.57883   -10595.804   -9422.6147   -320.62653     102002.7      46.7237      46.7237      46.7237 
   87000    132.85975   -10560.647   -9338.8953   -461.14095     102002.7      46.7237      46.7237      46.7237 
   88000    130.26322   -10570.752   -9372.8775      -477.13     102002.7      46.7237      46.7237      46.7237 
   89000    128.66276   -10605.139    -9421.982   -492.55187     102002.7      46.7237      46.7237      46.7237 
   90000     129.4855   -10563.228   -9372.5057    -629.3534     102002.7      46.7237      46.7237      46.7237 
   91000    131.57422   -10599.046   -9389.1154   -591.44959     102002.7      46.7237      46.7237      46.7237 
   92000    133.18019   -10573.379   -9348.6809   -365.57152     102002.7      46.7237      46.7237      46.7237 
   93000    127.21321   -10570.288   -9400.4606   -469.78923     102002.7      46.7237      46.7237      46.7237 
   94000    130.40019   -10567.832   -9368.6977   -832.99327     102002.7      46.7237      46.7237      46.7237 
   95000     131.2744   -10567.526   -9360.3535   -379.44219     102002.7      46.7237      46.7237      46.7237 
   96000    130.59259   -10603.339   -9402.4359   -515.91127     102002.7      46.7237      46.7237      46.7237 
   97000    133.29685   -10569.936   -9344.1648   -384.60839     102002.7      46.7237      46.7237      46.7237 
   98000    129.45178   -10585.742   -9395.3294   -310.63607     102002.7      46.7237      46.7237      46.7237 
   99000     129.8082   -10598.947   -9405.2568   -429.78802     102002.7      46.7237      46.7237      46.7237 
  100000    130.26539   -10571.524   -9373.6302   -481.70277     102002.7      46.7237      46.7237      46.7237 
  101000    127.89018   -10559.461   -9383.4084   -621.49035     102002.7      46.7237      46.7237      46.7237 
  102000    130.55824   -10562.935   -9362.3474   -413.93918     102002.7      46.7237      46.7237      46.7237 
  103000    132.62438   -10607.285   -9387.6977   -448.65596     102002.7      46.7237      46.7237      46.7237 
  104000    129.04251   -10550.088   -9363.4391   -330.95666     102002.7      46.7237      46.7237      46.7237 
  105000    129.18351   -10590.971   -9403.0253   -332.14246     102002.7      46.7237      46.7237      46.7237 
  106000    130.61468   -10571.322   -9370.2157   -607.55502     102002.7      46.7237      46.7237      46.7237 
  107000    129.84439   -10580.028   -9386.0051   -374.22772     102002.7      46.7237      46.7237      46.7237 
  108000    130.96453   -10571.436   -9367.1128   -332.97167     102002.7      46.7237      46.7237      46.7237 
  109000    130.27372   -10553.558   -9355.5871   -550.78223     102002.7      46.7237      46.7237      46.7237 
  110000    128.07333   -10549.548   -9371.8111   -520.30494     102002.7      46.7237      46.7237      46.7237 
  111000    129.58336   -10578.265   -9386.6429    -599.5392     102002.7      46.7237      46.7237      46.7237 
  112000    129.48559   -10606.117   -9415.3936   -193.52133     102002.7      46.7237      46.7237      46.7237 
  113000     129.8907    -10595.87   -9401.4215   -412.24614     102002.7      46.7237      46.7237      46.7237 
  114000    129.28182   -10561.204   -9372.3543     -615.798     102002.7      46.7237      46.7237      46.7237 
  115000    133.24062   -10579.648   -9354.3937   -452.84814     102002.7      46.7237      46.7237      46.7237 
  116000    126.95872   -10581.073   -9413.5865   -347.02504     102002.7      46.7237      46.7237      46.7237 
  117000    130.40792     -10574.3   -9375.0946   -400.61045     102002.7      46.7237      46.7237      46.7237 
  118000    133.60602   -10598.575   -9369.9605   -335.20603     102002.7      46.7237      46.7237      46.7237 
  119000     130.3249   -10579.805   -9381.3633   -569.08015     102002.7      46.7237      46.7237      46.7237 
  120000    128.69501   -10602.084   -9418.6304   -324.04577     102002.7      46.7237      46.7237      46.7237 
  121000    128.23731    -10568.71   -9389.4653    -183.8969     102002.7      46.7237      46.7237      46.7237 
  122000    132.77756   -10596.669   -9375.6736   -376.61819     102002.7      46.7237      46.7237      46.7237 
  123000    126.47862   -10544.249   -9381.1771   -251.72004     102002.7      46.7237      46.7237      46.7237 
  124000    130.97235   -10585.427   -9381.0316   -406.16374     102002.7      46.7237      46.7237      46.7237 
  125000    130.52363   -10627.769   -9427.5002   -632.23472     102002.7      46.7237      46.7237      46.7237 
  126000    128.05099   -10590.942    -9413.411   -601.29962     102002.7      46.7237      46.7237      46.7237 
  127000    131.70097   -10609.155   -9398.0597   -356.14126     102002.7      46.7237      46.7237      46.7237 
  128000    129.47841    -10637.86   -9447.2023   -193.14759     102002.7      46.7237      46.7237      46.7237 
  129000    128.17353   -10573.266   -9394.6076   -611.25029     102002.7      46.7237      46.7237      46.7237 
  130000    128.37146   -10552.566   -9372.0878   -504.85772     102002.7      46.7237      46.7237      46.7237 
  131000    128.47628   -10582.613   -9401.1711    -443.1946     102002.7      46.7237      46.7237      46.7237 
  132000     131.9644   -10577.375   -9363.8564   -503.55752     102002.7      46.7237      46.7237      46.7237 
  133000    129.46515   -10589.885   -9399.3491    -581.5028     102002.7      46.7237      46.7237      46.7237 
  134000    131.17922   -10553.573   -9347.2757   -560.35614     102002.7      46.7237      46.7237      46.7237 
  135000    128.41599   -10589.691   -9408.8035   -651.47752     102002.7      46.7237      46.7237      46.7237 
  136000    130.41375    -10577.92   -9378.6614   -310.56377     102002.7      46.7237      46.7237      46.7237 
  137000    130.85762   -10598.192    -9394.852   -116.31098     102002.7      46.7237      46.7237      46.7237 
  138000    128.68352   -10609.975   -9426.6272   -567.29491     102002.7      46.7237      46.7237      46.7237 
  139000    129.34516   -10577.985   -9388.5524   -238.71401     102002.7      46.7237      46.7237      46.7237 
  140000    133.46191   -10571.527    -9344.238   -340.74015     102002.7      46.7237      46.7237      46.7237 
  141000    131.34695   -10559.155   -9351.3146   -298.37812     102002.7      46.7237      46.7237      46.7237 
  142000    129.86612     -10592.6   -9398.3774   -354.41669     102002.7      46.7237      46.7237      46.7237 
  143000    131.72641   -10601.664   -9390.3342   -606.83326     102002.7      46.7237      46.7237      46.7237 
  144000    125.72218   -10560.178   -9404.0621   -278.27644     102002.7      46.7237      46.7237      46.7237 
  145000    129.27429   -10569.892   -9381.1114   -328.20736     102002.7      46.7237      46.7237      46.7237 
  146000    128.79025   -10615.917   -9431.5882   -537.00446     102002.7      46.7237      46.7237      46.7237 
  147000    130.00386   -10607.162   -9411.6731   -123.83729     102002.7      46.7237      46.7237      46.7237 
  148000    128.93489   -10568.757    -9383.098   -559.15139     102002.7      46.7237      46.7237      46.7237 
  149000    126.62134   -10565.475   -9401.0902   -468.94058     102002.7      46.7237      46.7237      46.7237 
  150000    127.81682   -10541.983   -9366.6053   -320.41802     102002.7      46.7237      46.7237      46.7237 
  151000    133.41216   -10588.914    -9362.083   -188.32229     102002.7      46.7237      46.7237      46.7237 
  152000    129.43678    -10610.36    -9420.085   -431.95832     102002.7      46.7237      46.7237      46.7237 
  153000    127.20538   -10568.521   -9398.7657   -363.39735     102002.7      46.7237      46.7237      46.7237 
  154000    128.73197   -10586.058   -9402.2642   -555.48698     102002.7      46.7237      46.7237      46.7237 
  155000    131.22746   -10579.225   -9372.4842   -143.69302     102002.7      46.7237      46.7237      46.7237 
  156000    131.24116    -10576.05   -9369.1826   -466.51608     102002.7      46.7237      46.7237      46.7237 
  157000    128.22726   -10589.506   -9410.3535   -619.20626     102002.7      46.7237      46.7237      46.7237 
  158000    132.38168   -10577.624   -9360.2691   -406.50509     102002.7      46.7237      46.7237      46.7237 
  159000    132.86569    -10570.09   -9348.2836   -817.36945     102002.7      46.7237      46.7237      46.7237 
  160000    131.22752   -10606.948   -9400.2059    -535.0848     102002.7      46.7237      46.7237      46.7237 
  161000    135.91964   -10533.625   -9283.7356   -410.85994     102002.7      46.7237      46.7237      46.7237 
  162000    131.25919   -10572.578   -9365.5451    -460.1039     102002.7      46.7237      46.7237      46.7237 
  163000    130.72889   -10577.205   -9375.0485   -407.70857     102002.7      46.7237      46.7237      46.7237 
  164000    129.87637   -10584.699   -9390.3818   -761.98817     102002.7      46.7237      46.7237      46.7237 
  165000     131.0891   -10589.387   -9383.9176   -724.32181     102002.7      46.7237      46.7237      46.7237 
  166000    132.32663   -10567.607   -9350.7581   -394.01472     102002.7      46.7237      46.7237      46.7237 
  167000    127.18337   -10596.507   -9426.9545   -683.45459     102002.7      46.7237      46.7237      46.7237 
  168000    128.71411   -10589.562    -9405.933   -540.54488     102002.7      46.7237      46.7237      46.7237 
  169000    126.79625   -10589.655    -9423.662   -538.08142     102002.7      46.7237      46.7237      46.7237 
  170000    131.18251   -10547.143   -9340.8151    -471.4991     102002.7      46.7237      46.7237      46.7237 
  171000    129.52378   -10572.281   -9381.2059   -446.11627     102002.7      46.7237      46.7237      46.7237 
  172000    129.70779   -10597.761    -9404.994   -537.65418     102002.7      46.7237      46.7237      46.7237 
  173000    131.02064    -10606.03   -9401.1905   -369.67566     102002.7      46.7237      46.7237      46.7237 
  174000    129.03837   -10603.624   -9417.0134   -230.05824     102002.7      46.7237      46.7237      46.7237 
  175000    130.25738   -10579.665   -9381.8448   -425.89163     102002.7      46.7237      46.7237      46.7237 
  176000    131.46925   -10562.085   -9353.1198   -384.70771     102002.7      46.7237      46.7237      46.7237 
  177000    130.49313   -10602.162   -9402.1738   -441.40481     102002.7      46.7237      46.7237      46.7237 
  178000     131.3936   -10597.504   -9389.2353   -601.88128     102002.7      46.7237      46.7237      46.7237 
  179000    130.71253   -10598.791   -9396.7852   -444.43319     102002.7      46.7237      46.7237      46.7237 
  180000    127.66937   -10550.322   -9376.3004   -624.23021     102002.7      46.7237      46.7237      46.7237 
  181000    131.99249   -10550.415   -9336.6389   -699.85907     102002.7      46.7237      46.7237      46.7237 
  182000    130.87465   -10601.038   -9397.5409   -477.88273     102002.7      46.7237      46.7237      46.7237 
  183000    129.69517   -10586.048   -9393.3972   -305.15306     102002.7      46.7237      46.7237      46.7237 
  184000    131.47784   -10609.966   -9400.9223   -388.12863     102002.7      46.7237      46.7237      46.7237 
  185000    127.80995   -10592.187   -9416.8724   -384.61807     102002.7      46.7237      46.7237      46.7237 
  186000    125.92839   -10566.185   -9408.1731   -312.98286     102002.7      46.7237      46.7237      46.7237 
  187000    134.47209   -10578.595    -9342.017   -129.80419     102002.7      46.7237      46.7237      46.7237 
  188000    128.96688   -10578.681   -9392.7278   -47.495093     102002.7      46.7237      46.7237      46.7237 
  189000    129.62101   -10605.866   -9413.8969   -170.64161     102002.7      46.7237      46.7237      46.7237 
  190000    128.47949    -10582.07    -9400.598   -426.43416     102002.7      46.7237      46.7237      46.7237 
  191000    128.64053    -10567.25   -9384.2981   -831.76541     102002.7      46.7237      46.7237      46.7237 
  192000    131.68565   -10589.217   -9378.2624   -468.78055     102002.7      46.7237      46.7237      46.7237 
  193000    130.43774    -10599.78   -9400.3007   -508.40699     102002.7      46.7237      46.7237      46.7237 
  194000    132.18787   -10580.898   -9365.3251   -309.19147     102002.7      46.7237      46.7237      46.7237 
  195000    128.42671   -10584.637   -9403.6512   -359.95627     102002.7      46.7237      46.7237      46.7237 
  196000    128.31032   -10590.356   -9410.4401   -481.97981     102002.7      46.7237      46.7237      46.7237 
  197000    133.53972   -10585.738    -9357.734    -539.3408     102002.7      46.7237      46.7237      46.7237 
  198000    130.50187   -10599.654   -9399.5847   -668.70183     102002.7      46.7237      46.7237      46.7237 
  199000    129.96802    -10594.27   -9399.1099   -244.39495     102002.7      46.7237      46.7237      46.7237 
  200000    130.23588   -10607.252    -9409.629   -395.72023     102002.7      46.7237      46.7237      46.7237 
  201000    134.18936   -10584.614   -9350.6352   -465.99952     102002.7      46.7237      46.7237      46.7237 
  202000    129.51367   -10554.388   -9363.4063    -411.7839     102002.7      46.7237      46.7237      46.7237 
  203000    131.96523   -10607.328   -9393.8023   -225.81979     102002.7      46.7237      46.7237      46.7237 
  204000    134.57997   -10569.339   -9331.7686   -486.69939     102002.7      46.7237      46.7237      46.7237 
  205000    130.26142   -10604.493   -9406.6354    -467.1303     102002.7      46.7237      46.7237      46.7237 
  206000    129.04011   -10577.047   -9390.4205   -366.69903     102002.7      46.7237      46.7237      46.7237 
  207000    127.72284   -10592.192    -9417.678   -605.42298     102002.7      46.7237      46.7237      46.7237 
  208000    129.25705   -10575.685   -9387.0633   -443.07961     102002.7      46.7237      46.7237      46.7237 
  209000    131.18558   -10582.681   -9376.3247   -656.13897     102002.7      46.7237      46.7237      46.7237 
  210000    132.78637   -10581.704   -9360.6274   -502.58203     102002.7      46.7237      46.7237      46.7237 
  211000    129.26471   -10602.137   -9413.4443   -226.94649     102002.7      46.7237      46.7237      46.7237 
  212000    127.50588   -10585.928   -9413.4092   -302.10124     102002.7      46.7237      46.7237      46.7237 
  213000    128.10484   -10565.299   -9387.2728   -427.81921     102002.7      46.7237      46.7237      46.7237 
  214000    130.56816   -10557.229   -9356.5507   -152.88398     102002.7      46.7237      46.7237      46.7237 
  215000    125.36382   -10605.547    -9452.727    -356.9207     102002.7      46.7237      46.7237      46.7237 
  216000    131.10307   -10572.979   -9367.3816    45.782909     102002.7      46.7237      46.7237      46.7237 
  217000    128.77685   -10603.135   -9418.9293   -325.54436     102002.7      46.7237      46.7237      46.7237 
  218000    130.78236   -10599.344   -9396.6959   -450.99876     102002.7      46.7237      46.7237      46.7237 
  219000    131.76034    -10560.94    -9349.298   -469.90271     102002.7      46.7237      46.7237      46.7237 
  220000    132.32205   -10583.674   -9366.8671   -529.80974     102002.7      46.7237      46.7237      46.7237 
  221000    131.03851   -10593.083   -9388.0793   -372.08226     102002.7      46.7237      46.7237      46.7237 
  222000    129.47381   -10588.549   -9397.9338   -249.38424     102002.7      46.7237      46.7237      46.7237 
  223000    130.34997   -10583.703   -9385.0308   -418.68253     102002.7      46.7237      46.7237      46.7237 
  224000    135.54811   -10565.867   -9319.3936   -177.77267     102002.7      46.7237      46.7237      46.7237 
  225000    128.97288   -10582.406    -9396.397   -732.17665     102002.7      46.7237      46.7237      46.7237 
  226000    129.55097   -10603.638    -9412.313   -440.10761     102002.7      46.7237      46.7237      46.7237 
  227000    127.48041   -10587.729   -9415.4451   -94.954359     102002.7      46.7237      46.7237      46.7237 
  228000    127.46307   -10598.074   -9425.9492   -590.88348     102002.7      46.7237      46.7237      46.7237 
  229000    131.03785   -10569.407   -9364.4091   -559.70714     102002.7      46.7237      46.7237      46.7237 
  230000    127.18822    -10596.87   -9427.2731   -402.76298     102002.7      46.7237      46.7237      46.7237 
  231000    130.56898   -10592.531   -9391.8446   -280.17071     102002.7      46.7237      46.7237      46.7237 
  232000    129.35415   -10599.654   -9410.1395   -358.97463     102002.7      46.7237      46.7237      46.7237 
  233000    126.28946    -10549.97   -9388.6378   -353.18046     102002.7      46.7237      46.7237      46.7237 
  234000    132.82884   -10574.621    -9353.154   -81.696793     102002.7      46.7237      46.7237      46.7237 
  235000    130.23923   -10591.859   -9394.2053   -502.00131     102002.7      46.7237      46.7237      46.7237 
  236000    132.67963   -10607.942   -9387.8465   -411.27822     102002.7      46.7237      46.7237      46.7237 
  237000    129.86955   -10578.452    -9384.198   -634.42222     102002.7      46.7237      46.7237      46.7237 
  238000    129.98726   -10584.321   -9388.9845   -417.66561     102002.7      46.7237      46.7237      46.7237 
  239000    128.89213   -10596.398   -9411.1317   -421.81978     102002.7      46.7237      46.7237      46.7237 
  240000    133.23295   -10588.543   -9363.3592   -504.79714     102002.7      46.7237      46.7237      46.7237 
  241000    130.73098    -10594.49   -9392.3141   -428.43286     102002.7      46.7237      46.7237      46.7237 
  242000    132.17387   -10557.214   -9341.7695   -668.04821     102002.7      46.7237      46.7237      46.7237 
  243000    130.29043   -10572.779   -9374.6542   -806.83315     102002.7      46.7237      46.7237      46.7237 
  244000    132.02436    -10601.45   -9387.3802   -161.15327     102002.7      46.7237      46.7237      46.7237 
  245000    128.28097   -10570.444   -9390.7979   -473.05619     102002.7      46.7237      46.7237      46.7237 
  246000      131.534   -10600.476   -9390.9157   -250.15627     102002.7      46.7237      46.7237      46.7237 
  247000    129.86155   -10611.885   -9417.7039   -375.75647     102002.7      46.7237      46.7237      46.7237 
  248000    131.45687   -10562.977   -9354.1256   -693.51651     102002.7      46.7237      46.7237      46.7237 
  249000    128.36469   -10593.998   -9413.5825   -475.36041     102002.7      46.7237      46.7237      46.7237 
  250000    130.02452   -10581.918   -9386.2387   -262.39874     102002.7      46.7237      46.7237      46.7237 
  251000    132.64608   -10576.893    -9357.106    -106.2268     102002.7      46.7237      46.7237      46.7237 
  252000    130.32217   -10576.038   -9377.6212   -567.36313     102002.7      46.7237      46.7237      46.7237 
  253000    131.61853   -10568.466   -9358.1284   -492.87948     102002.7      46.7237      46.7237      46.7237 
  254000    131.32468    -10588.09   -9380.4551   -253.60388     102002.7      46.7237      46.7237      46.7237 
  255000    133.22154   -10581.793   -9356.7147   -468.70864     102002.7      46.7237      46.7237      46.7237 
  256000    128.24643   -10612.031   -9432.7028   -22.244167     102002.7      46.7237      46.7237      46.7237 
  257000    129.06751   -10580.829   -9393.9503   -348.25029     102002.7      46.7237      46.7237      46.7237 
  258000    129.31689   -10583.192   -9394.0195   -516.88302     102002.7      46.7237      46.7237      46.7237 
  259000    130.78691   -10580.292   -9377.6023   -311.62076     102002.7      46.7237      46.7237      46.7237 
  260000     130.4241   -10608.318   -9408.9638   -402.93869     102002.7      46.7237      46.7237      46.7237 
  261000    132.61832    -10581.08   -9361.5482   -570.48944     102002.7      46.7237      46.7237      46.7237 
  262000     128.2134   -10575.034   -9396.0096   -722.33926     102002.7      46.7237      46.7237      46.7237 
  263000     129.7261   -10571.108   -9378.1725   -635.19389     102002.7      46.7237      46.7237      46.7237 
  264000    132.66433   -10603.777   -9383.8229   -501.68705     102002.7      46.7237      46.7237      46.7237 
  265000     127.3735    -10566.25   -9394.9487   -681.39502     102002.7      46.7237      46.7237      46.7237 
  266000    131.33257   -10600.708   -9392.9998   -510.70831     102002.7      46.7237      46.7237      46.7237 
  267000    129.06538   -10627.833   -9440.9738   -485.26626     102002.7      46.7237      46.7237      46.7237 
  268000    132.37415   -10573.317   -9356.0308   -672.83974     102002.7      46.7237      46.7237      46.7237 
  269000    129.97752   -10579.404   -9384.1567   -486.40813     102002.7      46.7237      46.7237      46.7237 
  270000    126.69194    -10568.73   -9403.6967   -587.59359     102002.7      46.7237      46.7237      46.7237 
  271000    130.22259   -10588.153   -9390.6523   -451.98371     102002.7      46.7237      46.7237      46.7237 
  272000    130.24871   -10553.493   -9355.7525   -358.36965     102002.7      46.7237      46.7237      46.7237 
  273000    130.33923   -10600.114   -9401.5404   -622.16984     102002.7      46.7237      46.7237      46.7237 
  274000    132.29499   -10599.549   -9382.9911   -449.75131     102002.7      46.7237      46.7237      46.7237 
  275000     129.6566   -10572.969   -9380.6733   -506.58982     102002.7      46.7237      46.7237      46.7237 
  276000    127.16756   -10594.271   -9424.8638   -842.56708     102002.7      46.7237      46.7237      46.7237 
  277000    130.66299   -10609.228   -9407.6778    -221.1194     102002.7      46.7237      46.7237      46.7237 
  278000    131.07326   -10543.932   -9338.6086    -275.5259     102002.7      46.7237      46.7237      46.7237 
  279000    129.19404    -10558.11    -9370.068   -620.42912     102002.7      46.7237      46.7237      46.7237 
  280000    129.47441   -10601.414   -9410.7932   -298.91185     102002.7      46.7237      46.7237      46.7237 
  281000    131.16771   -10575.808   -9369.6164   -490.06939     102002.7      46.7237      46.7237      46.7237 
  282000    130.28731    -10606.83   -9408.7344   -154.34535     102002.7      46.7237      46.7237      46.7237 
  283000    129.12768   -10606.365   -9418.9331   -561.16249     102002.7      46.7237      46.7237      46.7237 
  284000    132.02381    -10583.74   -9369.6758   -705.12346     102002.7      46.7237      46.7237      46.7237 
  285000     130.4105   -10600.498   -9401.2691   -335.18138     102002.7      46.7237      46.7237      46.7237 
  286000    127.45129   -10599.302   -9427.2857   -653.61152     102002.7      46.7237      46.7237      46.7237 
  287000    128.04619   -10565.266    -9387.779   -459.64841     102002.7      46.7237      46.7237      46.7237 
  288000    133.12421   -10575.156   -9350.9725   -643.57547     102002.7      46.7237      46.7237      46.7237 
  289000    127.07889   -10571.924   -9403.3326    -226.9774     102002.7      46.7237      46.7237      46.7237 
  290000    128.69285   -10571.217   -9387.7835    -417.1289     102002.7      46.7237      46.7237      46.7237 
  291000    134.66026   -10580.287   -9341.9779   -445.05351     102002.7      46.7237      46.7237      46.7237 
  292000    128.16038   -10583.877   -9405.3395   -624.08551     102002.7      46.7237      46.7237      46.7237 
  293000    129.85141   -10580.941   -9386.8534   -245.31772     102002.7      46.7237      46.7237      46.7237 
  294000    127.58148   -10599.794   -9426.5808   -700.79961     102002.7      46.7237      46.7237      46.7237 
  295000    127.24283       -10579      -9408.9   -351.65232     102002.7      46.7237      46.7237      46.7237 
  296000     128.0511   -10553.979    -9376.447   -252.12401     102002.7      46.7237      46.7237      46.7237 
  297000    128.84047   -10564.298   -9379.5065   -468.17909     102002.7      46.7237      46.7237      46.7237 
  298000    129.83867   -10586.886   -9392.9153     132.4266     102002.7      46.7237      46.7237      46.7237 
  299000    131.10529   -10583.982   -9378.3637   -489.45132     102002.7      46.7237      46.7237      46.7237 
  300000    129.30828   -10610.213   -9421.1201   -509.21573     102002.7      46.7237      46.7237      46.7237 
  301000    129.67775   -10551.189   -9358.6988   -422.20313     102002.7      46.7237      46.7237      46.7237 
  302000      129.752   -10600.007   -9406.8336   -596.26433     102002.7      46.7237      46.7237      46.7237 
  303000    132.25428   -10589.591   -9373.4074   -228.18388     102002.7      46.7237      46.7237      46.7237 
  304000    125.37468   -10588.511   -9435.5911   -669.26563     102002.7      46.7237      46.7237      46.7237 
  305000    129.97176   -10604.573   -9409.3786   -533.73978     102002.7      46.7237      46.7237      46.7237 
  306000    129.91921   -10599.099   -9404.3883   -402.05477     102002.7      46.7237      46.7237      46.7237 
  307000    132.89363   -10572.896   -9350.8331   -550.47693     102002.7      46.7237      46.7237      46.7237 
  308000    128.89553   -10597.795   -9412.4972   -283.89056     102002.7      46.7237      46.7237      46.7237 
  309000    128.66007   -10555.233   -9372.1013   -583.62075     102002.7      46.7237      46.7237      46.7237 
  310000    127.20475   -10589.786    -9420.037   -988.00666     102002.7      46.7237      46.7237      46.7237 
  311000    129.83064   -10578.442   -9384.5454    -495.0801     102002.7      46.7237      46.7237      46.7237 
  312000    130.34832   -10574.782   -9376.1254   -282.35252     102002.7      46.7237      46.7237      46.7237 
  313000     128.9359    -10582.92   -9397.2514   -140.18601     102002.7      46.7237      46.7237      46.7237 
  314000    129.20119   -10569.514   -9381.4055   -414.43121     102002.7      46.7237      46.7237      46.7237 
  315000    133.03911   -10609.603   -9386.2017   -873.79045     102002.7      46.7237      46.7237      46.7237 
  316000    129.21916   -10582.879   -9394.6054   -485.47226     102002.7      46.7237      46.7237      46.7237 
  317000    129.66329   -10591.414   -9399.0561   -377.94966     102002.7      46.7237      46.7237      46.7237 
  318000    133.37689   -10545.169   -9318.6616   -404.33844     102002.7      46.7237      46.7237      46.7237 
  319000    132.86093   -10597.714   -9375.9512   -205.58283     102002.7      46.7237      46.7237      46.7237 
  320000    129.18606   -10581.648   -9393.6791   -293.70586     102002.7      46.7237      46.7237      46.7237 
  321000    128.21896   -10561.685   -9382.6088   -531.16275     102002.7      46.7237      46.7237      46.7237 
  322000    130.62848   -10597.837   -9396.6034   -596.24768     102002.7      46.7237      46.7237      46.7237 
  323000    130.75975   -10579.837   -9377.3962   -368.40949     102002.7      46.7237      46.7237      46.7237 
  324000    129.75359   -10576.355   -9383.1674    -449.5153     102002.7      46.7237      46.7237      46.7237 
  325000    128.51246   -10559.975      -9378.2   -460.03455     102002.7      46.7237      46.7237      46.7237 
  326000    130.41089   -10602.652   -9403.4195   -402.10964     102002.7      46.7237      46.7237      46.7237 
  327000    132.00833   -10567.772   -9353.8499   -233.62866     102002.7      46.7237      46.7237      46.7237 
  328000    129.04459   -10570.621   -9383.9526   -701.23241     102002.7      46.7237      46.7237      46.7237 
  329000    129.49468   -10574.615   -9383.8083    -275.8714     102002.7      46.7237      46.7237      46.7237 
  330000    127.94251   -10610.406   -9433.8723   -492.51831     102002.7      46.7237      46.7237      46.7237 
  331000    128.85417   -10571.401   -9386.4843   -584.31565     102002.7      46.7237      46.7237      46.7237 
  332000    127.14342   -10591.017   -9421.8317   -331.76548     102002.7      46.7237      46.7237      46.7237 
  333000    130.40902    -10594.59    -9395.375   -623.15446     102002.7      46.7237      46.7237      46.7237 
  334000    128.99309   -10548.334   -9362.1396   -227.34491     102002.7      46.7237      46.7237      46.7237 
  335000    128.88358   -10583.016   -9397.8286   -623.98832     102002.7      46.7237      46.7237      46.7237 
  336000     129.8711   -10575.728   -9381.4598   -411.55507     102002.7      46.7237      46.7237      46.7237 
  337000    127.56032   -10576.402   -9403.3829    51.696764     102002.7      46.7237      46.7237      46.7237 
  338000    131.43081   -10587.657   -9379.0462   -472.87394     102002.7      46.7237      46.7237      46.7237 
  339000    126.63804   -10584.959   -9420.4213   -90.364424     102002.7      46.7237      46.7237      46.7237 
  340000    129.50988   -10578.623   -9387.6766   -266.63019     102002.7      46.7237      46.7237      46.7237 
  341000    130.11109   -10579.252   -9382.7766    -391.1331     102002.7      46.7237      46.7237      46.7237 
  342000    130.15586   -10580.124   -9383.2373   -111.49993     102002.7      46.7237      46.7237      46.7237 
  343000    128.66005   -10633.208   -9450.0756    -364.4983     102002.7      46.7237      46.7237      46.7237 
  344000    131.10097   -10574.673   -9369.0948    -142.7144     102002.7      46.7237      46.7237      46.7237 
  345000    129.29319   -10611.808   -9422.8539   -103.78623     102002.7      46.7237      46.7237      46.7237 
  346000    128.24547   -10579.079   -9399.7594   -396.36099     102002.7      46.7237      46.7237      46.7237 
  347000    127.76108    -10556.04   -9381.1744   -326.87344     102002.7      46.7237      46.7237      46.7237 
  348000    128.42161   -10561.391   -9380.4516   -307.53603     102002.7      46.7237      46.7237      46.7237 
  349000     129.8316   -10578.729   -9384.8233   -530.94031     102002.7      46.7237      46.7237      46.7237 
  350000    131.40322   -10586.949   -9378.5914   -179.23916     102002.7      46.7237      46.7237      46.7237 
  351000    128.48946   -10618.301   -9436.7378   -704.30589     102002.7      46.7237      46.7237      46.7237 
  352000    130.40004   -10563.539   -9364.4063   -518.30607     102002.7      46.7237      46.7237      46.7237 
  353000    130.58489   -10598.484   -9397.6513    -498.4542     102002.7      46.7237      46.7237      46.7237 
  354000     131.7889   -10589.335   -9377.4309   -371.00007     102002.7      46.7237      46.7237      46.7237 
  355000    126.86565   -10582.203   -9415.5721   -347.61306     102002.7      46.7237      46.7237      46.7237 
  356000    131.09941   -10590.567   -9385.0031   -352.12805     102002.7      46.7237      46.7237      46.7237 
  357000     128.0065   -10562.387   -9385.2651   -242.01533     102002.7      46.7237      46.7237      46.7237 
  358000    128.22223   -10596.207   -9417.1011   -290.99343     102002.7      46.7237      46.7237      46.7237 
  359000    129.43699   -10546.024   -9355.7469   -463.80646     102002.7      46.7237      46.7237      46.7237 
  360000    131.18984   -10571.072   -9364.6771   -582.91993     102002.7      46.7237      46.7237      46.7237 
  361000    128.45293   -10610.972   -9429.7445   -475.37728     102002.7      46.7237      46.7237      46.7237 
  362000    128.81117   -10591.581   -9407.0595    -598.1547     102002.7      46.7237      46.7237      46.7237 
  363000    128.77526   -10562.097   -9377.9053   -466.16237     102002.7      46.7237      46.7237      46.7237 
  364000     132.9938   -10596.524   -9373.5394   -508.71055     102002.7      46.7237      46.7237      46.7237 
  365000    131.83668   -10614.338   -9401.9941   -648.67643     102002.7      46.7237      46.7237      46.7237 
  366000    128.42771   -10567.159   -9386.1631   -283.37345     102002.7      46.7237      46.7237      46.7237 
  367000    131.64643   -10580.905   -9370.3108   -374.17862     102002.7      46.7237      46.7237      46.7237 
  368000    128.70745   -10591.104   -9407.5357   -456.95765     102002.7      46.7237      46.7237      46.7237 
  369000    129.22054    -10580.42   -9392.1339   -220.83068     102002.7      46.7237      46.7237      46.7237 
  370000    130.93324   -10555.785    -9351.749   -338.09689     102002.7      46.7237      46.7237      46.7237 
  371000    131.50857   -10585.787   -9376.4605   -518.10756     102002.7      46.7237      46.7237      46.7237 
  372000    128.71902   -10614.663   -9430.9885   -629.31096     102002.7      46.7237      46.7237      46.7237 
  373000    132.14486   -10586.049   -9370.8716   -205.65437     102002.7      46.7237      46.7237      46.7237 
  374000    133.13207   -10578.705   -9354.4491   -399.22144     102002.7      46.7237      46.7237      46.7237 
  375000    128.02952   -10548.307   -9370.9729   -406.04044     102002.7      46.7237      46.7237      46.7237 
  376000    130.63133   -10553.486   -9352.2268   -597.60747     102002.7      46.7237      46.7237      46.7237 
  377000    130.34427   -10584.749   -9386.1294   -872.04345     102002.7      46.7237      46.7237      46.7237 
  378000    126.08342   -10575.378   -9415.9401   -918.70197     102002.7      46.7237      46.7237      46.7237 
  379000    133.14843   -10571.174   -9346.7679   -654.70004     102002.7      46.7237      46.7237      46.7237 
  380000    129.06255   -10619.528    -9432.695   -540.84908     102002.7      46.7237      46.7237      46.7237 
  381000    127.99207   -10582.945   -9405.9557   -506.11155     102002.7      46.7237      46.7237      46.7237 
  382000    131.22787   -10576.208   -9369.4633   -598.03301     102002.7      46.7237      46.7237      46.7237 
  383000    129.41769   -10569.108   -9379.0084    -382.9193     102002.7      46.7237      46.7237      46.7237 
  384000    129.14143   -10571.037   -9383.4786   -269.91936     102002.7      46.7237      46.7237      46.7237 
  385000    130.34519   -10578.714   -9380.0862   -734.26527     102002.7      46.7237      46.7237      46.7237 
  386000    129.70163   -10598.424   -9405.7138   -395.49091     102002.7      46.7237      46.7237      46.7237 
  387000    126.41552    -10571.55   -9409.0579   -337.93502     102002.7      46.7237      46.7237      46.7237 
  388000    128.23637   -10573.481   -9394.2452   -368.97974     102002.7      46.7237      46.7237      46.7237 
  389000    129.86063   -10560.435   -9366.2629   -302.64862     102002.7      46.7237      46.7237      46.7237 
  390000    132.38249   -10590.901   -9373.5381   -435.20212     102002.7      46.7237      46.7237      46.7237 
  391000    130.79515   -10563.876   -9361.1103   -624.70263     102002.7      46.7237      46.7237      46.7237 
  392000    131.80602   -10542.191   -9330.1289   -394.18131     102002.7      46.7237      46.7237      46.7237 
  393000    130.59822   -10603.161   -9402.2056   -626.14388     102002.7      46.7237      46.7237      46.7237 
  394000    130.54315   -10631.339   -9430.8901   -561.35791     102002.7      46.7237      46.7237      46.7237 
  395000    127.85948   -10573.595   -9397.8247    -485.6284     102002.7      46.7237      46.7237      46.7237 
  396000     127.8119   -10596.683     -9421.35   -456.92779     102002.7      46.7237      46.7237      46.7237 
  397000    131.28991   -10603.277   -9395.9618   -542.73652     102002.7      46.7237      46.7237      46.7237 
  398000    129.81798   -10593.348   -9399.5675   -464.58915     102002.7      46.7237      46.7237      46.7237 
  399000    129.20872   -10586.389   -9398.2117   -388.07348     102002.7      46.7237      46.7237      46.7237 
  400000    129.68244   -10574.019   -9381.4851   -232.74925     102002.7      46.7237      46.7237      46.7237 
  401000    127.24157   -10595.262   -9425.1742   -362.22615     102002.7      46.7237      46.7237      46.7237 
  402000    130.58273   -10562.872   -9362.0596     63.40335     102002.7      46.7237      46.7237      46.7237 
  403000    129.09697   -10576.494   -9389.3447   -525.31142     102002.7      46.7237      46.7237      46.7237 
  404000    129.96329   -10592.139    -9397.023   -241.96629     102002.7      46.7237      46.7237      46.7237 
  405000     129.7211   -10597.047   -9404.1577   -203.48548     102002.7      46.7237      46.7237      46.7237 
  406000    127.00486   -10585.136   -9417.2251   -331.09069     102002.7      46.7237      46.7237      46.7237 
  407000    129.13657   -10573.853   -9386.3395   -86.353175     102002.7      46.7237      46.7237      46.7237 
  408000    131.09195   -10592.276   -9386.7806   -269.81952     102002.7      46.7237      46.7237      46.7237 
  409000    128.23954   -10594.537   -9415.2719   -405.89167     102002.7      46.7237      46.7237      46.7237 
  410000    127.75313   -10607.885   -9433.0926   -455.33574     102002.7      46.7237      46.7237      46.7237 
  411000    132.50622   -10580.982   -9362.4816   -473.99316     102002.7      46.7237      46.7237      46.7237 
  412000    130.05907   -10582.281   -9386.2842   -787.00636     102002.7      46.7237      46.7237      46.7237 
  413000    127.13668   -10596.526   -9427.4025   -453.94779     102002.7      46.7237      46.7237      46.7237 
  414000    134.35162    -10593.23   -9357.7597   -585.18874     102002.7      46.7237      46.7237      46.7237 
  415000    131.26811   -10568.787   -9361.6718   -650.47909     102002.7      46.7237      46.7237      46.7237 
  416000    131.26245   -10569.697   -9362.6336   -571.45833     102002.7      46.7237      46.7237      46.7237 
  417000    129.05448   -10575.555   -9388.7961   -574.69537     102002.7      46.7237      46.7237      46.7237 
  418000    130.00762   -10596.789   -9401.2647   -413.91298     102002.7      46.7237      46.7237      46.7237 
  419000    132.02196   -10584.842   -9370.7945   -743.08481     102002.7      46.7237      46.7237      46.7237 
  420000    132.73045   -10556.196   -9335.6331   -809.96487     102002.7      46.7237      46.7237      46.7237 
  421000    128.99031   -10582.814   -9396.6446   -666.99686     102002.7      46.7237      46.7237      46.7237 
  422000    132.92145   -10572.519   -9350.1997   -285.06384     102002.7      46.7237      46.7237      46.7237 
  423000    126.56885   -10585.148   -9421.2461   -456.68072     102002.7      46.7237      46.7237      46.7237 
  424000    124.62706   -10579.755   -9433.7092   -631.39091     102002.7      46.7237      46.7237      46.7237 
  425000    129.41211   -10549.072   -9359.0242   -584.57789     102002.7      46.7237      46.7237      46.7237 
  426000    129.22674   -10584.637    -9396.294   -324.30433     102002.7      46.7237      46.7237      46.7237 
  427000    126.84606   -10593.408   -9426.9566   -433.30317     102002.7      46.7237      46.7237      46.7237 
  428000    129.85437   -10572.559   -9378.4442   -769.20166     102002.7      46.7237      46.7237      46.7237 
  429000    129.63912   -10579.858   -9387.7229   -546.72494     102002.7      46.7237      46.7237      46.7237 
  430000    128.50014   -10587.575   -9405.9131   -374.36979     102002.7      46.7237      46.7237      46.7237 
  431000    129.62014   -10610.977   -9419.0158   -319.34334     102002.7      46.7237      46.7237      46.7237 
  432000    129.22015   -10584.923   -9396.6409    -254.6486     102002.7      46.7237      46.7237      46.7237 
  433000    131.39203   -10608.713   -9400.4586   -277.94115     102002.7      46.7237      46.7237      46.7237 
  434000    130.29024   -10586.689   -9388.5663    -337.4727     102002.7      46.7237      46.7237      46.7237 
  435000    129.72488    -10564.18   -9371.2558   -378.81597     102002.7      46.7237      46.7237      46.7237 
  436000    127.42984   -10606.214   -9434.3951   -585.89497     102002.7      46.7237      46.7237      46.7237 
  437000    129.30794   -10564.678   -9375.5883   -473.48458     102002.7      46.7237      46.7237      46.7237 
  438000    129.72461    -10580.48   -9387.5585   -575.23869     102002.7      46.7237      46.7237      46.7237 
  439000    129.68336   -10568.025   -9375.4829   -439.82971     102002.7      46.7237      46.7237      46.7237 
  440000    128.50189   -10612.781   -9431.1034   -416.00402     102002.7      46.7237      46.7237      46.7237 
  441000    130.07218   -10575.816   -9379.6981   -613.46932     102002.7      46.7237      46.7237      46.7237 
  442000    131.88452   -10582.421   -9369.6379   -624.05532     102002.7      46.7237      46.7237      46.7237 
  443000    132.57754   -10597.343   -9378.1863   -355.37738     102002.7      46.7237      46.7237      46.7237 
  444000    128.52833    -10589.77   -9407.8497   -410.25922     102002.7      46.7237      46.7237      46.7237 
  445000    129.40705    -10581.51   -9391.5083   -116.90555     102002.7      46.7237      46.7237      46.7237 
  446000    126.94808   -10577.664   -9410.2753   -303.71211     102002.7      46.7237      46.7237      46.7237 
  447000    131.04396   -10579.587   -9374.5331   -267.49955     102002.7      46.7237      46.7237      46.7237 
  448000    130.53755    -10598.64   -9398.2432   -101.72742     102002.7      46.7237      46.7237      46.7237 
  449000    126.30904   -10601.723   -9440.2104   -314.10182     102002.7      46.7237      46.7237      46.7237 
  450000    131.01803   -10580.474   -9375.6586   -326.78063     102002.7      46.7237      46.7237      46.7237 
  451000    129.73732   -10603.456   -9410.4177   -369.81797     102002.7      46.7237      46.7237      46.7237 
  452000    127.42091   -10594.647   -9422.9096   -342.82209     102002.7      46.7237      46.7237      46.7237 
  453000    132.01014   -10579.332   -9365.3937   -9.9484471     102002.7      46.7237      46.7237      46.7237 
  454000    126.83596   -10586.118   -9419.7603   -341.34303     102002.7      46.7237      46.7237      46.7237 
  455000    132.89257   -10588.121   -9366.0681   -198.14206     102002.7      46.7237      46.7237      46.7237 
  456000    130.16496   -10557.906   -9360.9352   -132.03839     102002.7      46.7237      46.7237      46.7237 
  457000    128.45716   -10610.847   -9429.5809   -849.15786     102002.7      46.7237      46.7237      46.7237 
  458000    129.20808   -10573.412   -9385.2408   -213.51586     102002.7      46.7237      46.7237      46.7237 
  459000    129.16273   -10579.352   -9391.5971   -310.57015     102002.7      46.7237      46.7237      46.7237 
  460000    132.12176   -10586.833   -9371.8674    -319.5999     102002.7      46.7237      46.7237      46.7237 
  461000     131.3539   -10588.791   -9380.8866   -363.99872     102002.7      46.7237      46.7237      46.7237 
  462000    133.36042   -10598.409   -9372.0531   -300.77299     102002.7      46.7237      46.7237      46.7237 
  463000    129.87234   -10587.607   -9393.3275   -380.69088     102002.7      46.7237      46.7237      46.7237 
  464000    130.61369   -10592.214   -9391.1167   -498.49861     102002.7      46.7237      46.7237      46.7237 
  465000    134.72436   -10555.985   -9317.0866   -428.50556     102002.7      46.7237      46.7237      46.7237 
  466000    130.03158   -10591.747   -9396.0029   -599.64779     102002.7      46.7237      46.7237      46.7237 
  467000    130.78288   -10606.503   -9403.8503   -529.02484     102002.7      46.7237      46.7237      46.7237 
  468000    130.08716   -10594.484   -9398.2289   -455.17946     102002.7      46.7237      46.7237      46.7237 
  469000    129.25318   -10580.326   -9391.7395   -521.58931     102002.7      46.7237      46.7237      46.7237 
  470000    131.45798   -10586.018   -9377.1573   -569.74643     102002.7      46.7237      46.7237      46.7237 
  471000    131.80727   -10569.829   -9357.7554    -541.5979     102002.7      46.7237      46.7237      46.7237 
  472000    130.15497    -10591.62   -9394.7415   -805.53624     102002.7      46.7237      46.7237      46.7237 
  473000    129.12042   -10595.884   -9408.5186   -837.82419     102002.7      46.7237      46.7237      46.7237 
  474000    130.64065   -10581.876   -9380.5307   -527.55265     102002.7      46.7237      46.7237      46.7237 
  475000     132.0429   -10608.915   -9394.6747   -436.98096     102002.7      46.7237      46.7237      46.7237 
  476000    132.92866   -10565.354   -9342.9683   -423.04261     102002.7      46.7237      46.7237      46.7237 
  477000    131.85468    -10585.71   -9373.2008   -599.85213     102002.7      46.7237      46.7237      46.7237 
  478000     128.0808   -10568.035   -9390.2294   -186.35404     102002.7      46.7237      46.7237      46.7237 
  479000    130.48672   -10580.699   -9380.7696   -397.69055     102002.7      46.7237      46.7237      46.7237 
  480000    128.20443   -10569.281   -9390.3389   -200.33558     102002.7      46.7237      46.7237      46.7237 
  481000    128.75196   -10549.735   -9365.7574   -582.94396     102002.7      46.7237      46.7237      46.7237 
  482000    130.02375   -10594.791   -9399.1188   -383.96032     102002.7      46.7237      46.7237      46.7237 
  483000    129.83327   -10570.566   -9376.6452   -380.83642     102002.7      46.7237      46.7237      46.7237 
  484000    129.88846   -10591.358   -9396.9298   -728.91134     102002.7      46.7237      46.7237      46.7237 
  485000    127.04348   -10548.691   -9380.4245   -611.57393     102002.7      46.7237      46.7237      46.7237 
  486000    130.23452   -10601.016   -9403.4051   -618.12805     102002.7      46.7237      46.7237      46.7237 
  487000    131.92049   -10559.512   -9346.3979   -304.27529     102002.7      46.7237      46.7237      46.7237 
  488000    128.51207   -10580.144    -9398.373   -349.43066     102002.7      46.7237      46.7237      46.7237 
  489000    132.31922   -10583.004   -9366.2227   -801.56278     102002.7      46.7237      46.7237      46.7237 
  490000    125.20959   -10588.558   -9437.1558    -485.2517     102002.7      46.7237      46.7237      46.7237 
  491000    127.50595   -10591.211    -9418.692   -575.51883     102002.7      46.7237      46.7237      46.7237 
  492000    128.53099   -10599.652   -9417.7065   -884.98361     102002.7      46.7237      46.7237      46.7237 
  493000    128.65191   -10578.453    -9395.396   -788.16015     102002.7      46.7237      46.7237      46.7237 
  494000    131.36788   -10588.217   -9380.1841   -520.75277     102002.7      46.7237      46.7237      46.7237 
  495000     129.6716   -10566.761   -9374.3275   -625.16542     102002.7      46.7237      46.7237      46.7237 
  496000    129.51057    -10589.41   -9398.4565   -628.23837     102002.7      46.7237      46.7237      46.7237 
  497000    129.48589   -10607.732   -9417.0062   -666.73337     102002.7      46.7237      46.7237      46.7237 
  498000    131.50947   -10572.923   -9363.5886   -635.79889     102002.7      46.7237      46.7237      46.7237 
  499000    132.21974   -10570.658   -9354.7923   -586.30631     102002.7      46.7237      46.7237      46.7237 
  500000     129.8096   -10581.136   -9387.4328   -388.71596     102002.7      46.7237      46.7237      46.7237 
  500500    131.77497   -10577.556   -9365.7796   -245.55422     102002.7      46.7237      46.7237      46.7237 
Loop time of 1890.3 on 16 procs for 500000 steps with 3086 atoms

Performance: 22.854 ns/day, 1.050 hours/ns, 264.509 timesteps/s
99.9% CPU use with 16 MPI tasks x no OpenMP threads

MPI task timing breakdown:
Section |  min time  |  avg time  |  max time  |%varavg| %total
---------------------------------------------------------------
Pair    | 789.78     | 1111.4     | 1414.9     | 655.4 | 58.80
Bond    | 142.55     | 174.51     | 210.93     | 207.3 |  9.23
Neigh   | 17.368     | 17.429     | 17.468     |   0.8 |  0.92
Comm    | 246.49     | 569.9      | 919.87     |1020.6 | 30.15
Output  | 0.02187    | 0.022322   | 0.02632    |   0.7 |  0.00
Modify  | 8.572      | 10.339     | 12.218     |  39.1 |  0.55
Other   |            | 6.676      |            |       |  0.35

Nlocal:    192.875 ave 223 max 161 min
Histogram: 4 3 1 0 0 0 0 0 3 5
Nghost:    3930.62 ave 3962 max 3901 min
Histogram: 1 2 3 1 2 1 2 1 0 3
Neighs:    11463.7 ave 16819 max 5971 min
Histogram: 5 3 0 0 0 0 0 0 1 7

Total # of neighbors = 183419
Ave neighs/atom = 59.4358
Ave special neighs/atom = 3.73299
Neighbor list builds = 5168
Dangerous builds = 0
Neighbor list info ...
  update every 1 steps, delay 10 steps, check yes
  max neighbors/atom: 2000, page size: 100000
  master list distance cutoff = 16
  ghost atom cutoff = 16
  binsize = 8, bins = 6 6 6
  3 neighbor lists, perpetual/occasional/extra = 3 0 0
  (1) pair buck6d/coul/gauss/dsf, perpetual, skip from (3)
      attributes: half, newton on
      pair build: skip
      stencil: none
      bin: none
  (2) pair lj/cut, perpetual, skip from (3)
      attributes: half, newton on
      pair build: skip
      stencil: none
      bin: none
  (3) neighbor class addition, perpetual
      attributes: half, newton on
      pair build: half/bin/newton
      stencil: half/bin/3d/newton
      bin: standard
Setting up Verlet run ...
  Unit style    : real
  Current step  : 500500
  Time step     : 1
WARNING: Inconsistent image flags (../domain.cpp:786)
Per MPI rank memory allocation (min/avg/max) = 23.42 | 23.43 | 23.43 Mbytes
Step Time TotEng KinEng PotEng E_mol E_pair Temp Pxx Pyy Pzz Pxy Pxz Pyz Cella Cellb Cellc CellAlpha CellBeta CellGamma Volume Press 
  500500       500000   -9365.7796    1211.7761   -10577.556    4395.0908   -14972.647    131.77497   -101.43336   -217.28137   -417.94794    304.77709   -171.46341    150.93347      46.7237      46.7237      46.7237           90           90           90     102002.7   -245.55422 
  501000       500500   -9390.7312    1179.3689     -10570.1    4410.2324   -14980.333    128.25084   -163.34366   -791.40014   -650.95605   -62.504598    116.94587    -85.82967      46.7237      46.7237      46.7237           90           90           90     102002.7   -535.23328 
  502000       501500   -9411.2059    1193.1447   -10604.351    4376.0607   -14980.411    129.74889    -1237.512   -313.26231    -388.8672    237.09677    66.232256   -42.940542      46.7237      46.7237      46.7237           90           90           90     102002.7   -646.54717 
  503000       502500   -9375.0508    1181.8893    -10556.94    4380.3148   -14937.255    128.52491   -881.10806   -545.21751   -572.93598   -24.687831    142.80972   -355.22764      46.7237      46.7237      46.7237           90           90           90     102002.7   -666.42052 
  504000       503500   -9379.8196     1197.761   -10577.581    4400.5828   -14978.163    130.25089   -699.05205   -631.04351   -233.03057   -307.83219   -84.082169    187.01588      46.7237      46.7237      46.7237           90           90           90     102002.7   -521.04205 
  505000       504500   -9383.6434    1188.9224   -10572.566    4406.1698   -14978.736    129.28973   -597.31842   -714.29928   -355.92337    405.17085    40.745561    61.592361      46.7237      46.7237      46.7237           90           90           90     102002.7   -555.84702 
  506000       505500   -9360.2111    1201.2072   -10561.418    4404.7508   -14966.169    130.62565   -769.09332   -498.68251   -786.66315    23.362607    24.734306    57.044328      46.7237      46.7237      46.7237           90           90           90     102002.7   -684.81299 
  507000       506500    -9367.779    1221.8232   -10589.602     4372.598     -14962.2    132.86754   -766.45125   -199.95601   -24.693334    39.472673   -156.03473    60.077041      46.7237      46.7237      46.7237           90           90           90     102002.7   -330.36686 
  508000       507500   -9373.3912    1216.5213   -10589.912    4379.6465   -14969.559    132.29099      -985.03   -543.60849   -328.87877    165.91228   -143.89792    121.74426      46.7237      46.7237      46.7237           90           90           90     102002.7   -619.17242 
  509000       508500   -9413.8246    1190.0179   -10603.843    4381.3399   -14985.182    129.40887   -336.60725   -854.17887   -565.13232    204.36077    74.715854   -107.99414      46.7237      46.7237      46.7237           90           90           90     102002.7   -585.30615 
  510000       509500   -9398.7751    1207.0799   -10605.855    4357.2501   -14963.105    131.26428   -833.12711   -298.60001   -791.36084    340.79835   -110.62176   -117.34016      46.7237      46.7237      46.7237           90           90           90     102002.7   -641.02932 
  511000       510500   -9391.0583    1208.5398   -10599.598    4391.2708   -14990.869    131.42304   -585.60183    333.88403   -260.29065    41.518099    42.830488   -57.042526      46.7237      46.7237      46.7237           90           90           90     102002.7   -170.66948 
  512000       511500   -9357.6019    1221.8445   -10579.446    4374.1853   -14953.632    132.86986   -552.90031   -666.36131   -648.56439    22.847403   -12.650293   -366.59014      46.7237      46.7237      46.7237           90           90           90     102002.7   -622.60867 
  513000       512500    -9387.939    1186.9399   -10574.879    4395.6562   -14970.535    129.07415   -587.95528   -724.26702   -1006.1231    10.692814    41.239262   -158.69954      46.7237      46.7237      46.7237           90           90           90     102002.7   -772.78181 
  514000       513500   -9417.1745    1185.3526   -10602.527    4368.0825    -14970.61    128.90154   -120.44676   -135.88753   -35.113098    116.82805    194.90856   -191.65354      46.7237      46.7237      46.7237           90           90           90     102002.7    -97.14913 
  515000       514500   -9381.9381    1180.2283   -10562.166    4410.9858   -14973.152    128.34429   -770.11786   -515.58533   -357.86367   -120.80435   -77.662353    6.3023009      46.7237      46.7237      46.7237           90           90           90     102002.7   -547.85562 
  516000       515500   -9385.0929    1192.3837   -10577.477    4402.7333    -14980.21    129.66613   -107.62047   -779.57353   -527.44015    49.528869   -58.043203    -311.4711      46.7237      46.7237      46.7237           90           90           90     102002.7   -471.54471 
  517000       516500   -9378.4034    1192.4546   -10570.858    4395.3954   -14966.253    129.67384   -739.49863   -457.34581   -472.22654    188.91081   -202.01954   -280.92311      46.7237      46.7237      46.7237           90           90           90     102002.7   -556.35699 
  518000       517500    -9372.569     1223.216   -10595.785     4378.132   -14973.917      133.019    -275.9618   -588.41506   -504.74208   -92.543284   -89.647856     -22.5452      46.7237      46.7237      46.7237           90           90           90     102002.7   -456.37298 
  519000       518500   -9393.2641    1186.4316   -10579.696    4389.1353   -14968.831    129.01887   -400.01862   -558.90337    -631.2337   -156.21371   -340.01347     141.3533      46.7237      46.7237      46.7237           90           90           90     102002.7    -530.0519 
  520000       519500   -9404.0295    1171.1206    -10575.15    4393.8041   -14968.954    127.35387   -248.12253   -417.88127   -1124.2623    150.36721    61.646616    224.89565      46.7237      46.7237      46.7237           90           90           90     102002.7   -596.75535 
  521000       520500   -9374.7837    1201.4495   -10576.233    4393.9816   -14970.215    130.65199   -343.12661   -726.10644    -285.3793   -30.519418    131.36167    -7.529999      46.7237      46.7237      46.7237           90           90           90     102002.7   -451.53745 
  522000       521500   -9374.6726    1173.7805   -10548.453    4397.8632   -14946.316    127.64312   -430.15328   -832.36133   -722.55214    -261.6464    153.18085    -138.8333      46.7237      46.7237      46.7237           90           90           90     102002.7   -661.68892 
  523000       522500   -9434.0709     1182.678   -10616.749     4369.398   -14986.147    128.61069   -467.30063   -655.12511   -1028.9091    214.22048    297.90653    63.207147      46.7237      46.7237      46.7237           90           90           90     102002.7   -717.11161 
  524000       523500   -9389.6227    1200.4546   -10590.077    4393.3536   -14983.431    130.54381   -904.56472   -416.08848   -656.01229   -229.11238   -141.94384    34.746719      46.7237      46.7237      46.7237           90           90           90     102002.7    -658.8885 
  525000       524500   -9340.9362    1205.3006   -10546.237    4424.4459   -14970.683    131.07079    -244.1011   -489.14669   -1172.3552   -37.596891    6.9780623    196.52604      46.7237      46.7237      46.7237           90           90           90     102002.7     -635.201 
  526000       525500   -9385.7232    1214.7693   -10600.493    4361.9204   -14962.413    132.10047    -557.6641   -67.050108   -396.63632   -34.707342    67.778564   -74.120748      46.7237      46.7237      46.7237           90           90           90     102002.7   -340.45018 
  527000       526500   -9435.8038    1173.9453   -10609.749    4380.8043   -14990.553    127.66104   -156.24437   -670.09697   -662.73604    -5.547402    36.383617    132.86043      46.7237      46.7237      46.7237           90           90           90     102002.7   -496.35913 
  528000       527500   -9373.5754    1205.5748    -10579.15    4404.2409   -14983.391     131.1006   -927.63392   -662.99561    -427.0315   -50.896528   -185.23386    14.103174      46.7237      46.7237      46.7237           90           90           90     102002.7   -672.55368 
  529000       528500   -9401.5789    1173.1887   -10574.768    4417.5753   -14992.343    127.57877   -88.021183   -699.35508   -289.59248    14.267577   -63.307669   -134.58786      46.7237      46.7237      46.7237           90           90           90     102002.7   -358.98958 
  530000       529500    -9378.678    1202.8129   -10581.491    4371.9286    -14953.42    130.80026   -23.371775   -218.27108   -317.39632    15.442339    23.826612   -289.57656      46.7237      46.7237      46.7237           90           90           90     102002.7   -186.34639 
  531000       530500   -9352.2432     1199.616   -10551.859     4403.603   -14955.462    130.45261    264.10087   -217.78297    -461.6678   -137.81529    9.5033194   -124.52819      46.7237      46.7237      46.7237           90           90           90     102002.7   -138.44996 
  532000       531500   -9394.5299    1196.0118   -10590.542    4378.1821   -14968.724    130.06067    217.56244   -94.706751   -509.17981   -227.90281   -158.25334   -20.200979      46.7237      46.7237      46.7237           90           90           90     102002.7   -128.77471 
  533000       532500   -9374.4718    1205.8395   -10580.311     4389.174   -14969.485    131.12939   -532.93255   -309.97713   -827.61558   -167.45024   -5.5589025    245.26773      46.7237      46.7237      46.7237           90           90           90     102002.7   -556.84175 
  534000       533500   -9409.4048    1179.3779   -10588.783     4401.993   -14990.776    128.25182   -1070.5838   -399.45204   -708.71321    184.95973   -103.53892    157.75079      46.7237      46.7237      46.7237           90           90           90     102002.7   -726.24967 
  535000       534500   -9385.5612    1220.1856   -10605.747    4358.2587   -14964.006    132.68946   -343.41682   -585.06978   -360.48131     125.4333    103.67885   -173.08651      46.7237      46.7237      46.7237           90           90           90     102002.7   -429.65597 
  536000       535500   -9341.1021    1200.4007   -10541.503    4391.7879   -14933.291    130.53794    -437.3827   -399.05481   -722.90768    -61.83197   -166.69483    -175.1744      46.7237      46.7237      46.7237           90           90           90     102002.7   -519.78173 
  537000       536500   -9370.0984    1222.4907   -10592.589    4379.4003   -14971.989    132.94013   -718.56705   -316.28835   -782.91166   -202.71045    90.676396    176.74748      46.7237      46.7237      46.7237           90           90           90     102002.7   -605.92235 
  538000       537500   -9421.5696    1190.9449   -10612.515    4389.7746   -15002.289    129.50967   -497.26505   -447.58103     -457.105    91.952928   -39.776518    -50.83149      46.7237      46.7237      46.7237           90           90           90     102002.7   -467.31703 
  539000       538500   -9393.2305    1198.5972   -10591.828    4387.4492   -14979.277    130.34182   -844.28088   -435.42802   -136.80481    36.056859    176.19459   -230.07457      46.7237      46.7237      46.7237           90           90           90     102002.7   -472.17124 
  540000       539500   -9351.6654    1222.5883   -10574.254    4389.1043   -14963.358    132.95074   -475.04364    178.05338   -218.72906    73.836127    167.71532    144.24198      46.7237      46.7237      46.7237           90           90           90     102002.7   -171.90644 
  541000       540500   -9359.6585    1209.0579   -10568.716    4405.5327   -14974.249    131.47937   -795.60865   -493.19623     -618.231   -17.380077   -269.99392   -268.92805      46.7237      46.7237      46.7237           90           90           90     102002.7   -635.67863 
  542000       541500   -9396.8757    1187.9624   -10584.838    4381.9226   -14966.761    129.18534   -286.24154   -314.58103   -184.92193    56.491128   -62.193595    -130.8599      46.7237      46.7237      46.7237           90           90           90     102002.7   -261.91483 
  543000       542500    -9385.208    1203.6957   -10588.904    4385.5151   -14974.419    130.89626   -230.74068   -1084.0285   -382.68833   -159.99003   -109.39123   -242.96097      46.7237      46.7237      46.7237           90           90           90     102002.7   -565.81918 
  544000       543500   -9385.3215    1192.8951   -10578.217    4406.5847   -14984.801    129.72175   -609.02079   -726.40286   -960.26232   -143.83806    -106.0518    196.61766      46.7237      46.7237      46.7237           90           90           90     102002.7   -765.22866 
  545000       544500   -9333.4105     1209.403   -10542.814    4404.4992   -14947.313    131.51691   -544.95856   -295.36728   -528.62545    126.53741   -60.615061   -558.12898      46.7237      46.7237      46.7237           90           90           90     102002.7    -456.3171 
  546000       545500   -9398.8141    1174.3809   -10573.195    4401.8188   -14975.014    127.70842   -626.14384    248.23945   -470.61992    41.238786    199.74759       -60.89      46.7237      46.7237      46.7237           90           90           90     102002.7   -282.84143 
  547000       546500   -9384.0066    1207.0412   -10591.048    4397.6737   -14988.721    131.26007    -238.0732    -761.0282   -136.21985     93.77205   -259.24201     87.84719      46.7237      46.7237      46.7237           90           90           90     102002.7   -378.44042 
  548000       547500   -9419.0033     1153.776   -10572.779    4390.1585   -14962.938    125.46773    22.179721   -595.67944   -518.38228   -156.36394    210.10798    105.10958      46.7237      46.7237      46.7237           90           90           90     102002.7   -363.96067 
  549000       548500   -9391.1688    1206.8061   -10597.975    4384.8348    -14982.81     131.2345   -466.51921   -589.90086   -599.60572   0.38493255   -65.774492   -32.360024      46.7237      46.7237      46.7237           90           90           90     102002.7    -552.0086 
  550000       549500    -9376.249    1188.2036   -10564.453    4390.9955   -14955.448    129.21156   -40.228276   -50.316342    -739.2346    160.94433     187.1993    -117.2823      46.7237      46.7237      46.7237           90           90           90     102002.7   -276.59307 
  551000       550500   -9368.6811    1225.5786    -10594.26    4356.9942   -14951.254    133.27592   -234.58099   -240.61337   -459.12251    -69.11101   -128.75827    47.723875      46.7237      46.7237      46.7237           90           90           90     102002.7   -311.43895 
  552000       551500   -9361.7899    1175.5669   -10537.357    4414.3473   -14951.704    127.83739   -439.35245   -566.37617    -422.4263   -6.6447213   -394.48244   -107.01257      46.7237      46.7237      46.7237           90           90           90     102002.7   -476.05164 
  553000       552500   -9416.8959    1197.0456   -10613.941    4391.5378   -15005.479     130.1731   -568.17912   -555.70497   -665.82334    166.07429   -47.412652   -226.66461      46.7237      46.7237      46.7237           90           90           90     102002.7   -596.56914 
  554000       553500   -9397.8223     1185.541   -10583.363    4380.1094   -14963.473    128.92202   -330.79206   -695.52981   -356.16258   -192.54047    134.46361   -428.33367      46.7237      46.7237      46.7237           90           90           90     102002.7   -460.82815 
  555000       554500   -9335.0908    1215.4826   -10550.573    4392.9875   -14943.561    132.17803   -649.59265    -158.1019    14.415102   -199.26203   -196.32059   -2.2396703      46.7237      46.7237      46.7237           90           90           90     102002.7   -264.42648 
[...]
  936000       935500   -9380.8171    1230.5806   -10611.398    4370.9503   -14982.348    133.81987   -962.08265   -634.60644    -570.5995    125.59149   -49.964032    -37.61378      46.7237      46.7237      46.7237           90           90           90     102002.7   -722.42953 
  937000       936500   -9383.3263    1209.8755   -10593.202    4366.4324   -14959.634    131.56828   -26.493391   -363.05612   -684.69095   -254.62105   -14.262308   -107.99328      46.7237      46.7237      46.7237           90           90           90     102002.7   -358.08015 
  938000       937500   -9438.7855    1161.2423   -10600.028    4364.5662   -14964.594    126.27965   -918.85623   -659.97643   -603.85504   -94.511878   -216.09148    133.59835      46.7237      46.7237      46.7237           90           90           90     102002.7   -727.56257 
  939000       938500   -9435.0451    1173.2055   -10608.251    4372.8543   -14981.105    127.58059    -728.5716   -1214.7905   -642.64199    25.789509   -101.66577   -22.871402      46.7237      46.7237      46.7237           90           90           90     102002.7   -862.00137 
  940000       939500   -9390.0209    1186.5735   -10576.594     4389.041   -14965.635     129.0343    -317.2135   -212.32462   -327.57895    299.53048   -225.36771     42.73046      46.7237      46.7237      46.7237           90           90           90     102002.7   -285.70569 
  941000       940500    -9394.763    1182.8661   -10577.629    4383.7566   -14961.386    128.63114   -646.26235   -530.37488   -504.48916    13.076012    32.170202    109.82092      46.7237      46.7237      46.7237           90           90           90     102002.7   -560.37546 
  942000       941500   -9379.0418    1190.2247   -10569.267    4368.1571   -14937.424    129.43135   -468.28646   -661.73098   -66.017278    80.637044   -202.27809   -94.192029      46.7237      46.7237      46.7237           90           90           90     102002.7   -398.67824 
  943000       942500    -9361.217    1206.5249   -10567.742    4395.5576   -14963.299    131.20392   -524.61604   -661.48892   -27.948064   -43.711481   -250.09067   -252.52053      46.7237      46.7237      46.7237           90           90           90     102002.7   -404.68434 
  944000       943500   -9412.7149    1189.5183   -10602.233    4347.1419   -14949.375    129.35454   -210.33069   -370.21264    -543.1235    334.00805   -113.70204    82.215979      46.7237      46.7237      46.7237           90           90           90     102002.7   -374.55561 
  945000       944500   -9352.5315    1226.5641   -10579.096    4378.9626   -14958.058    133.38309   -53.445165   -244.98838   -422.55748    86.107223   -209.30474    142.00243      46.7237      46.7237      46.7237           90           90           90     102002.7   -240.33034 
  946000       945500   -9412.6777    1203.0763   -10615.754    4366.0266   -14981.781     130.8289   -881.55659   -630.04982   -646.69831   -122.50887    -130.9602    4.7178022      46.7237      46.7237      46.7237           90           90           90     102002.7   -719.43491 
  947000       946500   -9403.7394    1176.1353   -10579.875    4401.5899   -14981.465     127.8992   -104.71683   -138.41061   -501.16279   -191.13024   -345.59537    104.59171      46.7237      46.7237      46.7237           90           90           90     102002.7   -248.09674 
  948000       947500    -9413.755    1191.7371   -10605.492     4386.214   -14991.706    129.59581   -541.46053   -522.80539   -661.66446     7.859458    224.66666    64.993496      46.7237      46.7237      46.7237           90           90           90     102002.7   -575.31013 
  949000       948500   -9377.8321    1214.2535   -10592.086    4388.6847    -14980.77    132.04437   -649.76006   -378.42529   -979.29946   -289.86405   -161.44059   -226.96744      46.7237      46.7237      46.7237           90           90           90     102002.7    -669.1616 
  950000       949500   -9387.5726    1209.3035   -10596.876    4380.3555   -14977.232    131.50608   -1075.3894   -323.42798    -684.0383   -94.954627   -87.141245   -242.94754      46.7237      46.7237      46.7237           90           90           90     102002.7   -694.28523 
  951000       950500   -9391.9633     1191.179   -10583.142    4378.6696   -14961.812    129.53513   -146.89091   -534.07046   -330.76007   -124.04298    229.78497    426.48465      46.7237      46.7237      46.7237           90           90           90     102002.7   -337.24048 
  952000       951500   -9424.0207    1191.6134   -10615.634    4361.1995   -14976.834    129.58237   -150.44823   -940.96356   -748.19836   -109.91461    48.528216    142.35078      46.7237      46.7237      46.7237           90           90           90     102002.7   -613.20338 
  953000       952500   -9382.4686    1181.9579   -10564.427    4403.2215   -14967.648    128.53238   -448.81623   -810.90827   -909.08501    16.477143   -8.6456362   -258.99215      46.7237      46.7237      46.7237           90           90           90     102002.7    -722.9365 
  954000       953500   -9388.9979    1172.4336   -10561.432    4392.3147   -14953.746    127.49666   -506.67049    488.27599   -459.49331     57.96671    172.07322    19.353273      46.7237      46.7237      46.7237           90           90           90     102002.7   -159.29594 
  955000       954500   -9393.9988    1180.3365   -10574.335    4378.3196   -14952.655    128.35606   -391.72752   -56.006955   -176.55818   -168.60423   -104.34954    69.072474      46.7237      46.7237      46.7237           90           90           90     102002.7   -208.09755 
  956000       955500    -9361.899    1203.3926   -10565.292    4385.1929   -14950.485     130.8633    17.305906    186.16249   -392.93695    147.30841   -137.16084    -284.1503      46.7237      46.7237      46.7237           90           90           90     102002.7   -63.156186 
  957000       956500   -9399.8434    1182.9514   -10582.795    4384.7351    -14967.53    128.64042   -100.66733   -758.41193   -670.05471   -337.68957   -13.966403   -44.604495      46.7237      46.7237      46.7237           90           90           90     102002.7   -509.71132 
  958000       957500   -9418.2389    1183.4889   -10601.728    4370.0774   -14971.805    128.69886   -591.15079   -112.45016   -1005.7052    55.315352    147.25278   -273.24338      46.7237      46.7237      46.7237           90           90           90     102002.7   -569.76871 
  959000       958500   -9392.1039    1182.0048   -10574.109    4372.9212    -14947.03    128.53748   -501.40729   -493.94635   -657.66805    141.11628   -67.921084   -73.052023      46.7237      46.7237      46.7237           90           90           90     102002.7   -551.00723 
  960000       959500   -9400.6978    1198.5882   -10599.286    4387.0872   -14986.373    130.34084   -626.16906   -506.36735   -117.75468    84.998159   -25.443672      66.8917      46.7237      46.7237      46.7237           90           90           90     102002.7    -416.7637 
  961000       960500   -9399.7653    1215.6938   -10615.459    4365.9241   -14981.383    132.20099   -516.12507   -197.45578   -277.24513    -39.87465     133.4607   -27.009406      46.7237      46.7237      46.7237           90           90           90     102002.7   -330.27533 
  962000       961500    -9347.625      1212.76   -10560.385    4386.7163   -14947.101    131.88196   -461.88418   -339.12155    -768.4754    -97.28707    57.820555   -326.56517      46.7237      46.7237      46.7237           90           90           90     102002.7   -523.16038 
  963000       962500   -9383.5819    1195.0602   -10578.642    4380.3779    -14959.02    129.95719   -467.10075   -415.20922   -250.30786    -81.61778   -64.791477   -265.04076      46.7237      46.7237      46.7237           90           90           90     102002.7   -377.53928 
  964000       963500    -9387.666    1216.9427   -10604.609    4372.7823   -14977.391     132.3368    -840.3398   -270.51929   -1007.8415    -12.27427    233.72255   -176.44223      46.7237      46.7237      46.7237           90           90           90     102002.7   -706.23355 
  965000       964500   -9359.5844    1200.9064   -10560.491    4397.0835   -14957.574    130.59294    156.36565   -948.73177   -199.15527     15.84761   -8.0902357    96.480247      46.7237      46.7237      46.7237           90           90           90     102002.7   -330.50713 
  966000       965500   -9401.8391    1184.7622   -10586.601    4351.6811   -14938.282    128.83733    89.571606   -291.73521   -186.89319    182.48927    155.84324   -83.878858      46.7237      46.7237      46.7237           90           90           90     102002.7    -129.6856 
  967000       966500   -9366.4186    1198.3621   -10564.781     4395.424   -14960.205    130.31626   -727.87605   -636.09181   -702.18593   -261.74329   -61.970372   -331.85689      46.7237      46.7237      46.7237           90           90           90     102002.7   -688.71793 
  968000       967500   -9421.4769    1182.6017   -10604.079    4347.7434   -14951.822    128.60239    136.26037   -353.51091   -266.26409    52.014935   -13.455051    394.20288      46.7237      46.7237      46.7237           90           90           90     102002.7   -161.17154 
  969000       968500   -9409.8144    1187.0256    -10596.84    4360.9638   -14957.804    129.08347    12.339368   -437.17904   -379.97774    119.11419     131.2933   -133.36846      46.7237      46.7237      46.7237           90           90           90     102002.7   -268.27247 
  970000       969500   -9347.8271    1221.1313   -10568.958    4370.4921    -14939.45     132.7923   -493.51463   -255.54212   -784.14731   -261.89091    40.492607    208.28659      46.7237      46.7237      46.7237           90           90           90     102002.7   -511.06802 
  971000       970500   -9360.2667    1220.3797   -10580.646    4385.7465   -14966.393    132.71056   -348.49895   -480.38293   -401.62549   -198.08729    9.0469653    82.145822      46.7237      46.7237      46.7237           90           90           90     102002.7   -410.16912 
  972000       971500   -9419.9349    1195.2183   -10615.153    4363.7969    -14978.95    129.97438   -554.31306   -181.83864   -485.86096   -76.029252     85.38239    108.73107      46.7237      46.7237      46.7237           90           90           90     102002.7   -407.33755 
  973000       972500   -9406.4254    1165.8417   -10572.267    4383.3548   -14955.622    126.77981   -528.27131   -511.84863    -171.4538   -103.27443    23.527053   -129.36044      46.7237      46.7237      46.7237           90           90           90     102002.7   -403.85791 
  974000       973500   -9451.3377    1142.1471   -10593.485    4385.0492   -14978.534    124.20314   -432.35691    8.4884259   -614.98759   -244.86569   -201.38164   -293.13196      46.7237      46.7237      46.7237           90           90           90     102002.7   -346.28536 
  975000       974500   -9375.4878    1197.7917   -10573.279    4397.3125   -14970.592    130.25423   -42.784121   -478.34711   -909.61868   -7.0934168   -1.9547223    93.008356      46.7237      46.7237      46.7237           90           90           90     102002.7   -476.91664 
  976000       975500   -9351.5882    1224.2576   -10575.846     4392.573   -14968.419    133.13227   -536.32437   -97.188378   -438.09699   -84.332914   -173.69821    16.555448      46.7237      46.7237      46.7237           90           90           90     102002.7   -357.20325 
  977000       976500    -9386.436    1187.4941    -10573.93    4397.2632   -14971.193    129.13442   -816.00791   -759.60266   -689.91563   -185.56868   -49.287794    164.69012      46.7237      46.7237      46.7237           90           90           90     102002.7    -755.1754 
  978000       977500   -9381.5395    1221.0374   -10602.577    4366.1744   -14968.751    132.78209   -194.75775   -301.97004   -210.07632    99.437068   -162.38464   -397.56618      46.7237      46.7237      46.7237           90           90           90     102002.7   -235.60137 
  979000       978500   -9431.2946    1183.0899   -10614.385    4371.0889   -14985.473    128.65548   -953.74532   -820.44248   -138.24465    63.826461   -103.41177    189.83475      46.7237      46.7237      46.7237           90           90           90     102002.7   -637.47749 
  980000       979500   -9406.7339    1203.6903   -10610.424    4398.6229   -15009.047    130.89567   -252.49227   -891.06657   -903.01164    14.202065   -76.602918    40.667421      46.7237      46.7237      46.7237           90           90           90     102002.7   -682.19016 
  981000       980500   -9396.0066    1191.6768   -10587.683    4383.2345   -14970.918    129.58926   -718.29763   -711.34439   -48.507746    150.98678    111.44439    79.099929      46.7237      46.7237      46.7237           90           90           90     102002.7   -492.71659 
  982000       981500   -9346.2189      1205.52   -10551.739    4400.4853   -14952.224    131.09464   -307.48044   -803.38816   -399.80429    261.57391    285.00025   -137.54203      46.7237      46.7237      46.7237           90           90           90     102002.7   -503.55763 
  983000       982500   -9355.4797    1192.5155   -10547.995    4425.6911   -14973.686    129.68046   -481.07444   -937.95684   -544.81414     11.08302    13.905263   -18.076404      46.7237      46.7237      46.7237           90           90           90     102002.7   -654.61514 
  984000       983500   -9353.4853    1218.0708   -10571.556    4390.6919   -14962.248    132.45949   -629.26727    -756.4918   -370.01293   -99.024142    134.10149   -38.498262      46.7237      46.7237      46.7237           90           90           90     102002.7   -585.25733 
  985000       984500    -9374.365    1173.5827   -10547.948    4390.1658   -14938.114    127.62161    -1083.508   -695.22952   -704.79803   -173.30304   -131.83244    -31.55578      46.7237      46.7237      46.7237           90           90           90     102002.7   -827.84519 
  986000       985500   -9355.4707    1214.6176   -10570.088    4395.8139   -14965.902    132.08397   -698.77644   -1187.8671   -806.24346    107.97811    124.21191   -160.28378      46.7237      46.7237      46.7237           90           90           90     102002.7     -897.629 
  987000       986500   -9396.2882    1168.5453   -10564.834    4417.6295   -14982.463    127.07382   -550.83523   -705.33248    -613.8816    112.48591    188.68397    195.71015      46.7237      46.7237      46.7237           90           90           90     102002.7   -623.34977 
  988000       987500   -9381.4127     1195.822   -10577.235    4378.9345   -14956.169    130.04003   -1105.1037   -566.67868   -757.94634   -77.026018   -184.46055    95.415695      46.7237      46.7237      46.7237           90           90           90     102002.7   -809.90959 
  989000       988500   -9392.4523    1194.6707   -10587.123    4370.2125   -14957.335    129.91483   -519.01796   -491.17115    -376.1525   -178.81853    24.852331    321.42445      46.7237      46.7237      46.7237           90           90           90     102002.7   -462.11387 
  990000       989500   -9416.1897    1181.6555   -10597.845    4383.7189   -14981.564     128.4995    -592.7854     -381.835   -286.53443    150.21694    318.14125   -35.337401      46.7237      46.7237      46.7237           90           90           90     102002.7   -420.38494 
  991000       990500    -9414.058    1178.5064   -10592.564    4377.8174   -14970.382    128.15704   -557.25839   -327.29874   -1175.4117    90.111672   -294.68537    66.901587      46.7237      46.7237      46.7237           90           90           90     102002.7   -686.65627 
  992000       991500   -9401.7084    1194.2355   -10595.944    4386.8669   -14982.811    129.86751   -598.60839   -386.82988   -506.16008    179.84206    -40.47587    53.907724      46.7237      46.7237      46.7237           90           90           90     102002.7   -497.19945 
  993000       992500   -9380.1696    1196.3434   -10576.513    4375.3565    -14951.87    130.09673   -133.36648   -781.17075   -509.49369   -19.330837   -100.35724   -262.02862      46.7237      46.7237      46.7237           90           90           90     102002.7   -474.67697 
  994000       993500   -9374.4957    1227.2162   -10601.712     4364.915   -14966.627      133.454   -365.69008    -164.5493   -447.02328    348.77559    37.852336   -99.651578      46.7237      46.7237      46.7237           90           90           90     102002.7   -325.75422 
  995000       994500   -9393.2087    1194.3326   -10587.541     4377.586   -14965.127    129.87807   -436.70869    -723.1289    73.789892   -344.59969   -81.454255    62.184943      46.7237      46.7237      46.7237           90           90           90     102002.7    -362.0159 
  996000       995500   -9353.5771    1201.2373   -10554.814    4382.4774   -14937.292    130.62892   -421.43163   -637.95069   -681.02249    37.583862   -148.88362    91.045803      46.7237      46.7237      46.7237           90           90           90     102002.7   -580.13494 
  997000       996500   -9337.1776    1223.1028    -10560.28    4396.5199     -14956.8    133.00669   -744.88828   -904.67765   -610.16846   -59.241022    23.796454   -3.0965204      46.7237      46.7237      46.7237           90           90           90     102002.7    -753.2448 
  998000       997500   -9382.7407    1212.9097    -10595.65    4374.2907   -14969.941    131.89824   -384.68088   -364.01657   -433.88924   -34.181836    251.64052   -41.017911      46.7237      46.7237      46.7237           90           90           90     102002.7   -394.19556 
  999000       998500   -9365.5177     1213.969   -10579.487    4389.2601   -14968.747    132.01344   -563.20889   -827.60675   -219.22258    242.89968   -137.14633    74.339023      46.7237      46.7237      46.7237           90           90           90     102002.7   -536.67941 
 1000000       999500   -9376.3308     1213.898   -10590.229    4363.3991   -14953.628    132.00571   -684.62457   -397.92845   -1007.8981   -151.21794   -191.32313    5.9785558      46.7237      46.7237      46.7237           90           90           90     102002.7   -696.81702 
 1000500      1000000   -9385.3189    1183.8272   -10569.146    4382.4116   -14951.558    128.73565   -580.62173   -927.92004   -1066.7581    83.271873   -51.922851   -85.724534      46.7237      46.7237      46.7237           90           90           90     102002.7    -858.4333 
Loop time of 2280.69 on 16 procs for 500000 steps with 3086 atoms

Performance: 18.942 ns/day, 1.267 hours/ns, 219.232 timesteps/s
99.9% CPU use with 16 MPI tasks x no OpenMP threads

MPI task timing breakdown:
Section |  min time  |  avg time  |  max time  |%varavg| %total
---------------------------------------------------------------
Pair    | 944.85     | 1387.9     | 1833.1     | 894.2 | 60.86
Bond    | 117.25     | 183.05     | 245.36     | 444.5 |  8.03
Neigh   | 17.065     | 17.13      | 17.173     |   0.9 |  0.75
Comm    | 157.52     | 660.69     | 1162.3     |1519.5 | 28.97
Output  | 0.13127    | 0.13851    | 0.1392     |   0.5 |  0.01
Modify  | 22.994     | 25.011     | 27.121     |  31.5 |  1.10
Other   |            | 6.75       |            |       |  0.30

Nlocal:    192.875 ave 225 max 152 min
Histogram: 2 1 3 0 1 1 0 1 4 3
Nghost:    3912.94 ave 3964 max 3869 min
Histogram: 2 1 3 2 1 2 1 0 2 2
Neighs:    11458.8 ave 17787 max 5127 min
Histogram: 3 5 0 0 0 0 0 3 2 3

Total # of neighbors = 183341
Ave neighs/atom = 59.4106
Ave special neighs/atom = 3.73299
Neighbor list builds = 5151
Dangerous builds = 0
Total wall time: 1:09:37
