LAMMPS (30 Mar 2018)
Reading data file ...
  orthogonal box = (0 0 0) to (46.7237 46.7237 46.7237)
  2 by 2 by 4 MPI processor grid
  reading atoms ...
  3248 atoms
  scanning bonds ...
  5 = max bonds/atom
  scanning angles ...
  10 = max angles/atom
  scanning dihedrals ...
  32 = max dihedrals/atom
  scanning impropers ...
  3 = max impropers/atom
  reading bonds ...
  2064 bonds
  reading angles ...
  3696 angles
  reading dihedrals ...
  6240 dihedrals
  reading impropers ...
  1008 impropers
Finding 1-2 1-3 1-4 neighbors ...
  special bond factors lj:   0          0          0         
  special bond factors coul: 0          0          0         
  5 = max # of 1-2 neighbors
  8 = max # of 1-3 neighbors
  20 = max # of 1-4 neighbors
  19 = max # of special neighbors
Finding 1-2 1-3 1-4 neighbors ...
  special bond factors lj:   0          0          1         
  special bond factors coul: 1          1          1         
  5 = max # of 1-2 neighbors
  8 = max # of 1-3 neighbors
  19 = max # of special neighbors
WARNING: Using 'neigh_modify every 1 delay 0 check yes' setting during minimization (../min.cpp:168)
Neighbor list info ...
  update every 1 steps, delay 0 steps, check yes
  max neighbors/atom: 2000, page size: 100000
  master list distance cutoff = 16
  ghost atom cutoff = 16
  binsize = 8, bins = 6 6 6
  3 neighbor lists, perpetual/occasional/extra = 3 0 0
  (1) pair buck6d/coul/gauss/dsf, perpetual, skip from (3)
      attributes: half, newton on
      pair build: skip
      stencil: none
      bin: none
  (2) pair lj/cut, perpetual, skip from (3)
      attributes: half, newton on
      pair build: skip
      stencil: none
      bin: none
  (3) neighbor class addition, perpetual
      attributes: half, newton on
      pair build: half/bin/newton
      stencil: half/bin/3d/newton
      bin: standard
Setting up cg style minimization ...
  Unit style    : real
  Current step  : 0
WARNING: Inconsistent image flags (../domain.cpp:786)
Per MPI rank memory allocation (min/avg/max) = 23.02 | 23.48 | 23.92 Mbytes
Step Temp E_pair E_mol TotEng Press 
       0            0   -15730.648    6482.8914   -9247.7565    6163.3235 
     500            0   -16098.719    3770.2644   -12328.454   -1733.8815 
Loop time of 4.64471 on 16 procs for 500 steps with 3248 atoms

99.8% CPU use with 16 MPI tasks x no OpenMP threads

Minimization stats:
  Stopping criterion = max force evaluations
  Energy initial, next-to-last, final = 
        -9247.75648317     -12328.3900096     -12328.4542378
  Force two-norm initial, final = 2575.18 11.0661
  Force max component initial, final = 152.118 1.25994
  Final line search alpha, max atom move = 0.00802301 0.0101085
  Iterations, force evaluations = 500 1000

MPI task timing breakdown:
Section |  min time  |  avg time  |  max time  |%varavg| %total
---------------------------------------------------------------
Pair    | 2.3945     | 3.0476     | 3.7742     |  20.5 | 65.61
Bond    | 0.26722    | 0.35992    | 0.42062    |   7.8 |  7.75
Neigh   | 0.03197    | 0.032018   | 0.032083   |   0.0 |  0.69
Comm    | 0.37055    | 1.1553     | 1.9011     |  35.2 | 24.87
Output  | 0          | 0          | 0          |   0.0 |  0.00
Modify  | 0          | 0          | 0          |   0.0 |  0.00
Other   |            | 0.04985    |            |       |  1.07

Nlocal:    203 ave 220 max 177 min
Histogram: 1 1 1 2 1 0 3 2 2 3
Nghost:    4055.94 ave 4085 max 4038 min
Histogram: 5 2 0 1 2 1 2 1 0 2
Neighs:    11478.4 ave 16166 max 7609 min
Histogram: 2 3 0 4 2 1 0 0 3 1

Total # of neighbors = 183655
Ave neighs/atom = 56.544
Ave special neighs/atom = 3.5468
Neighbor list builds = 9
Dangerous builds = 0
Neighbor list info ...
  update every 1 steps, delay 10 steps, check yes
  max neighbors/atom: 2000, page size: 100000
  master list distance cutoff = 16
  ghost atom cutoff = 16
  binsize = 8, bins = 6 6 6
  3 neighbor lists, perpetual/occasional/extra = 3 0 0
  (1) pair buck6d/coul/gauss/dsf, perpetual, skip from (3)
      attributes: half, newton on
      pair build: skip
      stencil: none
      bin: none
  (2) pair lj/cut, perpetual, skip from (3)
      attributes: half, newton on
      pair build: skip
      stencil: none
      bin: none
  (3) neighbor class addition, perpetual
      attributes: half, newton on
      pair build: half/bin/newton
      stencil: half/bin/3d/newton
      bin: standard
Setting up Verlet run ...
  Unit style    : real
  Current step  : 500
  Time step     : 1
WARNING: Inconsistent image flags (../domain.cpp:786)
Per MPI rank memory allocation (min/avg/max) = 22.67 | 22.75 | 23.01 Mbytes
Step Temp PotEng TotEng Press Volume Lx Ly Lz 
     500           91   -12328.454   -11447.693   -1339.1706     102002.7      46.7237      46.7237      46.7237 
    1000    76.538142   -11597.467   -10856.678   -209.93802     102002.7      46.7237      46.7237      46.7237 
    2000    89.757857   -11442.183   -10573.445   -171.88561     102002.7      46.7237      46.7237      46.7237 
    3000    90.153617   -11492.159    -10619.59    69.691313     102002.7      46.7237      46.7237      46.7237 
    4000     92.43611   -11485.802   -10591.141    225.03253     102002.7      46.7237      46.7237      46.7237 
    5000    90.944942   -11477.507   -10597.279   -147.06445     102002.7      46.7237      46.7237      46.7237 
    6000    90.289443   -11482.117   -10608.234     23.17507     102002.7      46.7237      46.7237      46.7237 
    7000    92.440749   -11487.042   -10592.337   -331.79679     102002.7      46.7237      46.7237      46.7237 
    8000    90.058438   -11484.222   -10612.574   -31.541316     102002.7      46.7237      46.7237      46.7237 
    9000    89.006265    -11510.01   -10648.546    21.335932     102002.7      46.7237      46.7237      46.7237 
   10000    92.128513   -11489.353    -10597.67   -325.42756     102002.7      46.7237      46.7237      46.7237 
   11000    91.088132   -11490.867   -10609.253    45.919983     102002.7      46.7237      46.7237      46.7237 
   12000    91.735927   -11497.478   -10609.594   -41.045856     102002.7      46.7237      46.7237      46.7237 
   13000    89.168381   -11473.595   -10610.562   -61.726201     102002.7      46.7237      46.7237      46.7237 
   14000    91.398761   -11498.992   -10614.372   -68.082291     102002.7      46.7237      46.7237      46.7237 
   15000    90.500435   -11495.115   -10619.189   -264.54236     102002.7      46.7237      46.7237      46.7237 
   16000    90.184572    -11517.63   -10644.762   -320.12137     102002.7      46.7237      46.7237      46.7237 
   17000    89.382087   -11486.488   -10621.387   -110.39356     102002.7      46.7237      46.7237      46.7237 
   18000    91.237932   -11526.139   -10643.075   -228.84356     102002.7      46.7237      46.7237      46.7237 
   19000    91.396238   -11490.735   -10606.139   -224.04718     102002.7      46.7237      46.7237      46.7237 
   20000    91.600734   -11484.345    -10597.77   -66.980946     102002.7      46.7237      46.7237      46.7237 
   21000     91.26467   -11518.636   -10635.314   -160.75406     102002.7      46.7237      46.7237      46.7237 
   22000    92.019242   -11505.167   -10614.541    3.1094327     102002.7      46.7237      46.7237      46.7237 
   23000    90.709752   -11506.536   -10628.585   -141.06013     102002.7      46.7237      46.7237      46.7237 
   24000    91.540419   -11494.997   -10609.005   -315.85005     102002.7      46.7237      46.7237      46.7237 
   25000    90.145032   -11487.582   -10615.097    165.26772     102002.7      46.7237      46.7237      46.7237 
   26000    91.692171   -11476.009   -10588.549   -169.41278     102002.7      46.7237      46.7237      46.7237 
   27000      92.0011     -11493.8    -10603.35   -84.893415     102002.7      46.7237      46.7237      46.7237 
   28000    89.800028   -11502.083   -10632.936   -23.840817     102002.7      46.7237      46.7237      46.7237 
   29000    90.680817   -11495.084   -10617.413   -38.026282     102002.7      46.7237      46.7237      46.7237 
   30000    91.126575   -11510.384   -10628.398   -426.65584     102002.7      46.7237      46.7237      46.7237 
   31000    88.277487   -11498.108   -10643.698   -150.96743     102002.7      46.7237      46.7237      46.7237 
   32000    91.688278   -11497.965   -10610.542   -77.364323     102002.7      46.7237      46.7237      46.7237 
   33000    94.148978   -11505.936   -10594.697   -333.18615     102002.7      46.7237      46.7237      46.7237 
   34000    89.695257   -11504.609   -10636.477   -188.35275     102002.7      46.7237      46.7237      46.7237 
   35000    91.806107   -11497.572   -10609.009   -170.28938     102002.7      46.7237      46.7237      46.7237 
   36000    92.896685   -11517.123   -10618.004   -233.93582     102002.7      46.7237      46.7237      46.7237 
   37000    90.992404   -11492.465   -10611.777   -187.39841     102002.7      46.7237      46.7237      46.7237 
   38000    91.199504   -11521.144   -10638.452   -166.86151     102002.7      46.7237      46.7237      46.7237 
   39000    89.289285   -11478.912   -10614.709   -96.525268     102002.7      46.7237      46.7237      46.7237 
   40000    92.616569   -11520.083   -10623.675   -61.258259     102002.7      46.7237      46.7237      46.7237 
   41000    91.481103   -11507.249   -10621.832   -155.45469     102002.7      46.7237      46.7237      46.7237 
   42000    88.947753    -11509.93   -10649.033   -52.449488     102002.7      46.7237      46.7237      46.7237 
   43000    89.732421   -11492.747   -10624.254   -223.20176     102002.7      46.7237      46.7237      46.7237 
   44000    91.035801   -11483.361   -10602.253   -162.48119     102002.7      46.7237      46.7237      46.7237 
   45000    91.527625   -11486.299   -10600.432    -13.66767     102002.7      46.7237      46.7237      46.7237 
   46000    90.705244   -11501.861   -10623.953   -304.03568     102002.7      46.7237      46.7237      46.7237 
   47000    91.741051   -11486.842   -10598.909   -134.21356     102002.7      46.7237      46.7237      46.7237 
   48000    91.310765   -11512.381   -10628.613   -96.359889     102002.7      46.7237      46.7237      46.7237 
   49000     91.30729   -11511.026   -10627.291   -148.49416     102002.7      46.7237      46.7237      46.7237 
   50000    89.612432   -11513.209   -10645.878   -391.22906     102002.7      46.7237      46.7237      46.7237 
   51000    92.399239   -11501.353   -10607.049   -393.00384     102002.7      46.7237      46.7237      46.7237 
   52000    89.823782   -11507.312   -10637.935   -101.11026     102002.7      46.7237      46.7237      46.7237 
   53000    91.600015    -11539.89   -10653.322   -159.58448     102002.7      46.7237      46.7237      46.7237 
   54000    89.334881   -11508.224   -10643.579   -189.29705     102002.7      46.7237      46.7237      46.7237 
   55000    89.398281   -11536.319    -10671.06   -255.24663     102002.7      46.7237      46.7237      46.7237 
   56000    92.566971   -11496.902   -10600.975   -125.43298     102002.7      46.7237      46.7237      46.7237 
   57000    94.085064   -11507.246   -10596.626   -63.492123     102002.7      46.7237      46.7237      46.7237 
   58000    90.894918   -11535.045   -10655.301   -89.671597     102002.7      46.7237      46.7237      46.7237 
   59000    90.930728   -11523.349   -10643.258   -234.04026     102002.7      46.7237      46.7237      46.7237 
   60000    91.616828   -11482.695   -10595.964      -501.46     102002.7      46.7237      46.7237      46.7237 
   61000    89.818679   -11491.896   -10622.569   -18.526839     102002.7      46.7237      46.7237      46.7237 
   62000    91.187591    -11530.91   -10648.334   -187.97729     102002.7      46.7237      46.7237      46.7237 
   63000    90.570971   -11523.822   -10647.214   -233.93914     102002.7      46.7237      46.7237      46.7237 
   64000    94.105537   -11507.737   -10596.918   -29.636982     102002.7      46.7237      46.7237      46.7237 
   65000    90.237791   -11520.713    -10647.33    -91.72668     102002.7      46.7237      46.7237      46.7237 
   66000    91.928467   -11508.421   -10618.673    277.22246     102002.7      46.7237      46.7237      46.7237 
   67000    91.038592   -11531.426   -10650.292    40.985565     102002.7      46.7237      46.7237      46.7237 
   68000    92.108674   -11511.914   -10620.423   -217.79514     102002.7      46.7237      46.7237      46.7237 
   69000    91.045177   -11545.894   -10664.696   -367.41785     102002.7      46.7237      46.7237      46.7237 
   70000    91.385451   -11538.976   -10654.485    -549.2738     102002.7      46.7237      46.7237      46.7237 
   71000    91.056417   -11529.869   -10648.563   -351.46915     102002.7      46.7237      46.7237      46.7237 
   72000    92.038623    -11509.79   -10618.976   -50.553062     102002.7      46.7237      46.7237      46.7237 
   73000    91.654468   -11516.968   -10629.873   -262.85011     102002.7      46.7237      46.7237      46.7237 
   74000    89.371981   -11497.926   -10632.923   -477.71636     102002.7      46.7237      46.7237      46.7237 
   75000    90.254774    -11509.05   -10635.502   -278.42007     102002.7      46.7237      46.7237      46.7237 
   76000    92.169552   -11523.791   -10631.711   -219.95519     102002.7      46.7237      46.7237      46.7237 
   77000    89.654356   -11523.093   -10655.356   -293.81232     102002.7      46.7237      46.7237      46.7237 
   78000    91.064219   -11524.335   -10642.953   -278.04619     102002.7      46.7237      46.7237      46.7237 
   79000    90.896948   -11527.076   -10647.312   -237.37366     102002.7      46.7237      46.7237      46.7237 
   80000    90.824439   -11494.329   -10615.268   -348.02561     102002.7      46.7237      46.7237      46.7237 
   81000    90.154185   -11532.997   -10660.422    60.521923     102002.7      46.7237      46.7237      46.7237 
   82000    91.001324   -11501.018   -10620.244   -160.59616     102002.7      46.7237      46.7237      46.7237 
   83000    89.685711   -11512.185   -10644.145   -275.18607     102002.7      46.7237      46.7237      46.7237 
   84000    90.630923   -11497.429   -10620.241   -228.61354     102002.7      46.7237      46.7237      46.7237 
   85000    92.137599   -11510.129   -10618.357   -212.24747     102002.7      46.7237      46.7237      46.7237 
   86000    88.923485   -11517.533    -10656.87   -466.88008     102002.7      46.7237      46.7237      46.7237 
   87000    89.761479   -11519.017   -10650.243   -636.46165     102002.7      46.7237      46.7237      46.7237 
   88000    92.568911   -11509.185   -10613.239   -394.59613     102002.7      46.7237      46.7237      46.7237 
   89000    90.455199   -11504.087     -10628.6   -477.30749     102002.7      46.7237      46.7237      46.7237 
   90000    92.447953   -11534.748   -10639.973   -74.539058     102002.7      46.7237      46.7237      46.7237 
   91000    90.843777    -11527.84   -10648.591   -436.64381     102002.7      46.7237      46.7237      46.7237 
   92000    92.100595   -11507.482   -10616.069   -265.14536     102002.7      46.7237      46.7237      46.7237 
   93000    93.085779   -11528.322   -10627.374   -323.56513     102002.7      46.7237      46.7237      46.7237 
   94000    89.485004   -11516.384   -10650.286   -311.97345     102002.7      46.7237      46.7237      46.7237 
   95000    91.515844   -11514.198   -10628.445   -73.596713     102002.7      46.7237      46.7237      46.7237 
   96000    90.367383   -11540.641   -10666.003     20.46753     102002.7      46.7237      46.7237      46.7237 
   97000    91.638091   -11514.081   -10627.144   -375.13262     102002.7      46.7237      46.7237      46.7237 
   98000    93.418149   -11539.001   -10634.836   -158.25348     102002.7      46.7237      46.7237      46.7237 
   99000    88.859153   -11490.789   -10630.749   -56.041865     102002.7      46.7237      46.7237      46.7237 
  100000    92.327298   -11529.655   -10636.048   -413.35206     102002.7      46.7237      46.7237      46.7237 
  101000    92.696052   -11537.467   -10640.291   -238.29345     102002.7      46.7237      46.7237      46.7237 
  102000     90.75766   -11512.707   -10634.291   -358.01667     102002.7      46.7237      46.7237      46.7237 
  103000    94.005271   -11525.946   -10616.098   -390.09629     102002.7      46.7237      46.7237      46.7237 
  104000    89.978247   -11514.388   -10643.516   -53.740747     102002.7      46.7237      46.7237      46.7237 
  105000     91.33542   -11496.987    -10612.98   -383.69568     102002.7      46.7237      46.7237      46.7237 
  106000    90.223264   -11520.614   -10647.371    -276.3859     102002.7      46.7237      46.7237      46.7237 
  107000    89.376352   -11524.251   -10659.205   -217.08811     102002.7      46.7237      46.7237      46.7237 
  108000    90.790125   -11530.623   -10651.894   -548.58727     102002.7      46.7237      46.7237      46.7237 
  109000    92.562173   -11535.166   -10639.286   -7.5142603     102002.7      46.7237      46.7237      46.7237 
  110000    89.748543   -11510.251   -10641.602   -133.49084     102002.7      46.7237      46.7237      46.7237 
  111000    94.199117   -11517.236   -10605.511   -502.51751     102002.7      46.7237      46.7237      46.7237 
  112000    89.395051   -11516.671   -10651.444   -72.219601     102002.7      46.7237      46.7237      46.7237 
  113000    90.287726   -11504.089   -10630.222    77.332038     102002.7      46.7237      46.7237      46.7237 
  114000    91.180639   -11536.769    -10654.26   -124.07726     102002.7      46.7237      46.7237      46.7237 
  115000    91.833485    -11520.55   -10631.722   -116.59548     102002.7      46.7237      46.7237      46.7237 
  116000    92.613807   -11520.633   -10624.252   -203.54683     102002.7      46.7237      46.7237      46.7237 
  117000    91.364477   -11538.642   -10654.354   -259.27652     102002.7      46.7237      46.7237      46.7237 
  118000    91.855047   -11541.771   -10652.735    55.563837     102002.7      46.7237      46.7237      46.7237 
  119000    93.237153   -11536.321   -10633.908     55.79502     102002.7      46.7237      46.7237      46.7237 
  120000    89.585366   -11512.223   -10645.154   -64.065469     102002.7      46.7237      46.7237      46.7237 
  121000    89.487978   -11526.929   -10660.803   -43.443455     102002.7      46.7237      46.7237      46.7237 
  122000    90.574547    -11520.79   -10644.147   -206.93731     102002.7      46.7237      46.7237      46.7237 
  123000    89.505114   -11515.219   -10648.927   -154.63226     102002.7      46.7237      46.7237      46.7237 
  124000    88.842447   -11505.556   -10645.678   -7.6328129     102002.7      46.7237      46.7237      46.7237 
  125000    91.859977   -11524.742   -10635.658   -200.14087     102002.7      46.7237      46.7237      46.7237 
  126000    90.188831    -11519.21     -10646.3   -217.03963     102002.7      46.7237      46.7237      46.7237 
  127000    88.920375   -11502.029   -10641.396   -266.64528     102002.7      46.7237      46.7237      46.7237 
  128000     90.95028   -11522.441   -10642.162   -238.60317     102002.7      46.7237      46.7237      46.7237 
  129000    90.723018    -11491.87    -10613.79   -53.687554     102002.7      46.7237      46.7237      46.7237 
  130000    91.447819   -11566.341   -10681.246   -539.00195     102002.7      46.7237      46.7237      46.7237 
  131000    88.881735   -11551.314   -10691.055    -296.0833     102002.7      46.7237      46.7237      46.7237 
  132000    90.124839   -11535.803   -10663.513   -205.94945     102002.7      46.7237      46.7237      46.7237 
  133000    88.957144   -11535.976   -10674.987   -378.35875     102002.7      46.7237      46.7237      46.7237 
  134000      89.0329   -11528.195   -10666.473   -123.06787     102002.7      46.7237      46.7237      46.7237 
  135000    91.174771   -11528.778   -10646.326   -237.17792     102002.7      46.7237      46.7237      46.7237 
  136000    91.750709   -11513.526   -10625.499   -94.927777     102002.7      46.7237      46.7237      46.7237 
  137000    91.076317   -11527.203   -10645.703    -176.2517     102002.7      46.7237      46.7237      46.7237 
  138000    89.487725   -11538.951   -10672.827   -229.17541     102002.7      46.7237      46.7237      46.7237 
  139000    89.274552   -11535.657   -10671.596   -42.271686     102002.7      46.7237      46.7237      46.7237 
  140000    91.185677   -11547.969   -10665.411   -273.43808     102002.7      46.7237      46.7237      46.7237 
  141000    91.768877   -11524.038   -10635.835   -170.07057     102002.7      46.7237      46.7237      46.7237 
  142000    92.058977   -11521.226   -10630.216   -187.88494     102002.7      46.7237      46.7237      46.7237 
  143000    89.618165   -11520.969   -10653.582   -271.95003     102002.7      46.7237      46.7237      46.7237 
  144000    92.153028   -11542.904   -10650.983   -543.79864     102002.7      46.7237      46.7237      46.7237 
  145000    90.828314   -11516.222   -10637.123   -294.20209     102002.7      46.7237      46.7237      46.7237 
  146000    91.016367   -11534.911   -10653.992   -277.44948     102002.7      46.7237      46.7237      46.7237 
  147000    92.063071   -11520.926   -10629.876    -225.1809     102002.7      46.7237      46.7237      46.7237 
  148000    91.358188   -11522.691   -10638.463    55.767766     102002.7      46.7237      46.7237      46.7237 
  149000    90.731406   -11532.524   -10654.363   -137.64733     102002.7      46.7237      46.7237      46.7237 
  150000    91.987689   -11514.625   -10624.305    60.779859     102002.7      46.7237      46.7237      46.7237 
  151000    90.354627   -11526.137   -10651.623   -154.31546     102002.7      46.7237      46.7237      46.7237 
  152000    90.995058   -11553.931   -10673.218   -157.68771     102002.7      46.7237      46.7237      46.7237 
  153000    92.252183    -11559.07    -10666.19    7.7136047     102002.7      46.7237      46.7237      46.7237 
  154000     89.22177    -11527.41    -10663.86   -277.59207     102002.7      46.7237      46.7237      46.7237 
  155000     91.96344   -11546.806   -10656.721   -197.25984     102002.7      46.7237      46.7237      46.7237 
  156000     89.14965   -11527.174   -10664.322    -45.44027     102002.7      46.7237      46.7237      46.7237 
  157000    91.176924   -11543.314   -10660.841   -244.87695     102002.7      46.7237      46.7237      46.7237 
  158000    90.161703   -11527.254   -10654.607    -207.1075     102002.7      46.7237      46.7237      46.7237 
  159000    89.910267   -11546.792   -10676.579   -48.940215     102002.7      46.7237      46.7237      46.7237 
  160000    92.925455   -11539.412   -10640.016   -344.19815     102002.7      46.7237      46.7237      46.7237 
  161000    90.944498   -11549.461   -10669.237   -262.36216     102002.7      46.7237      46.7237      46.7237 
  162000    91.883971   -11536.727   -10647.411   -135.60561     102002.7      46.7237      46.7237      46.7237 
  163000    90.175894   -11534.453   -10661.669   -322.47353     102002.7      46.7237      46.7237      46.7237 
  164000     92.51034   -11529.083   -10633.704   -252.72323     102002.7      46.7237      46.7237      46.7237 
  165000    92.305434   -11548.875   -10655.479   -129.06939     102002.7      46.7237      46.7237      46.7237 
  166000    91.713536   -11535.686   -10648.019   -207.34234     102002.7      46.7237      46.7237      46.7237 
  167000    91.213695   -11536.939    -10654.11   -407.80778     102002.7      46.7237      46.7237      46.7237 
  168000    89.889387   -11532.403   -10662.392   -216.25515     102002.7      46.7237      46.7237      46.7237 
  169000    88.503349   -11541.038   -10684.441   -395.29444     102002.7      46.7237      46.7237      46.7237 
  170000    90.461277   -11535.093   -10659.546   -155.82751     102002.7      46.7237      46.7237      46.7237 
  171000    89.037365   -11546.949   -10685.184   -170.07542     102002.7      46.7237      46.7237      46.7237 
  172000    92.037003   -11539.611   -10648.813   -251.08459     102002.7      46.7237      46.7237      46.7237 
  173000    91.117471   -11549.815   -10667.918    57.162209     102002.7      46.7237      46.7237      46.7237 
  174000    93.262212   -11536.494   -10633.838   -166.14743     102002.7      46.7237      46.7237      46.7237 
  175000     88.26784   -11551.893   -10697.576   -44.512852     102002.7      46.7237      46.7237      46.7237 
  176000    90.387063   -11523.362   -10648.534   -236.45411     102002.7      46.7237      46.7237      46.7237 
  177000     90.07086   -11521.394   -10649.626   -47.868864     102002.7      46.7237      46.7237      46.7237 
  178000    91.047413   -11527.173   -10645.953   -19.733501     102002.7      46.7237      46.7237      46.7237 
  179000    93.010876   -11549.215   -10648.991   -79.132241     102002.7      46.7237      46.7237      46.7237 
  180000     91.19369   -11508.353   -10625.718   -269.04814     102002.7      46.7237      46.7237      46.7237 
  181000    88.814283   -11531.073   -10671.468   -153.71874     102002.7      46.7237      46.7237      46.7237 
  182000    93.668553   -11533.716   -10627.127   -84.764449     102002.7      46.7237      46.7237      46.7237 
  183000    91.168958   -11538.024   -10655.628   -290.30755     102002.7      46.7237      46.7237      46.7237 
  184000    91.880633   -11526.003   -10636.719   -19.520112     102002.7      46.7237      46.7237      46.7237 
  185000    89.829345   -11530.747   -10661.316    16.589654     102002.7      46.7237      46.7237      46.7237 
  186000    90.494437    -11548.82   -10672.952   -126.66268     102002.7      46.7237      46.7237      46.7237 
  187000    89.772013   -11514.782   -10645.906   -244.44015     102002.7      46.7237      46.7237      46.7237 
  188000    90.698849   -11541.384   -10663.538   -309.16524     102002.7      46.7237      46.7237      46.7237 
  189000     92.07567   -11498.526   -10607.354   -254.74058     102002.7      46.7237      46.7237      46.7237 
  190000    91.169412   -11545.523   -10663.122   -150.03921     102002.7      46.7237      46.7237      46.7237 
  191000    91.356566   -11523.573   -10639.361     32.37567     102002.7      46.7237      46.7237      46.7237 
  192000    90.869698   -11518.415   -10638.916   -92.742291     102002.7      46.7237      46.7237      46.7237 
  193000    91.462993   -11541.386   -10656.144   -343.21952     102002.7      46.7237      46.7237      46.7237 
  194000    89.979365   -11530.634   -10659.752   -229.39677     102002.7      46.7237      46.7237      46.7237 
  195000    91.743828   -11521.551   -10633.591    9.8041114     102002.7      46.7237      46.7237      46.7237 
  196000    88.541679   -11551.948   -10694.981   -275.23956     102002.7      46.7237      46.7237      46.7237 
  197000    91.044982   -11520.603   -10639.407   -260.31792     102002.7      46.7237      46.7237      46.7237 
  198000    89.425992   -11530.575   -10665.048    -246.2858     102002.7      46.7237      46.7237      46.7237 
  199000    90.664909   -11536.593   -10659.075   -298.60085     102002.7      46.7237      46.7237      46.7237 
  200000    90.358244   -11534.886   -10660.337    -52.41466     102002.7      46.7237      46.7237      46.7237 
  201000    92.647582   -11534.735   -10638.028   -60.707811     102002.7      46.7237      46.7237      46.7237 
  202000     92.33736   -11548.681   -10654.977   -180.90233     102002.7      46.7237      46.7237      46.7237 
  203000    89.795553   -11539.783    -10670.68   -225.05346     102002.7      46.7237      46.7237      46.7237 
  204000    93.935048   -11539.981   -10630.813   -74.287982     102002.7      46.7237      46.7237      46.7237 
  205000    90.385794   -11522.683   -10647.867    129.51157     102002.7      46.7237      46.7237      46.7237 
  206000    91.259045   -11537.552   -10654.284   -265.76637     102002.7      46.7237      46.7237      46.7237 
  207000     93.30226   -11531.645   -10628.602   -143.41023     102002.7      46.7237      46.7237      46.7237 
  208000    93.132336   -11533.846   -10632.447   -116.29212     102002.7      46.7237      46.7237      46.7237 
  209000    90.933096    -11521.52   -10641.407   -368.92908     102002.7      46.7237      46.7237      46.7237 
  210000    91.349368   -11539.597   -10655.455   -177.38983     102002.7      46.7237      46.7237      46.7237 
  211000    92.662261   -11532.123   -10635.274   -241.24061     102002.7      46.7237      46.7237      46.7237 
  212000    90.998397   -11539.299   -10658.553    173.03533     102002.7      46.7237      46.7237      46.7237 
  213000    89.590396   -11531.101   -10663.984    -100.6382     102002.7      46.7237      46.7237      46.7237 
  214000    89.090273   -11551.136   -10688.858   -335.60365     102002.7      46.7237      46.7237      46.7237 
  215000    90.858847   -11523.949   -10644.554   -133.11017     102002.7      46.7237      46.7237      46.7237 
  216000    90.420958   -11516.066   -10640.909   -109.18247     102002.7      46.7237      46.7237      46.7237 
  217000    91.557954   -11532.017   -10645.856    -47.70628     102002.7      46.7237      46.7237      46.7237 
  218000    90.668665   -11536.825   -10659.271   -603.98313     102002.7      46.7237      46.7237      46.7237 
  219000    90.510286   -11523.905   -10647.884   -235.12529     102002.7      46.7237      46.7237      46.7237 
  220000    90.869516   -11510.545   -10631.048   -305.09536     102002.7      46.7237      46.7237      46.7237 
  221000    87.734888   -11525.372   -10676.213   -53.144161     102002.7      46.7237      46.7237      46.7237 
  222000    89.997369   -11515.024   -10643.967   -251.50911     102002.7      46.7237      46.7237      46.7237 
  223000    91.166177   -11517.132   -10634.763   -157.30758     102002.7      46.7237      46.7237      46.7237 
  224000    90.475933   -11541.277   -10665.589   -322.19034     102002.7      46.7237      46.7237      46.7237 
  225000    91.660879   -11526.664   -10639.507    -191.3068     102002.7      46.7237      46.7237      46.7237 
  226000    90.794687   -11532.655   -10653.881   -267.51115     102002.7      46.7237      46.7237      46.7237 
  227000     88.57796   -11525.185   -10667.866   -241.05526     102002.7      46.7237      46.7237      46.7237 
  228000    88.681905   -11533.853   -10675.528   -155.98031     102002.7      46.7237      46.7237      46.7237 
  229000    91.833305   -11525.563   -10636.737   -239.89323     102002.7      46.7237      46.7237      46.7237 
  230000      92.1511   -11542.333   -10650.431   -355.32709     102002.7      46.7237      46.7237      46.7237 
  231000    91.229252   -11530.559   -10647.579   -366.43273     102002.7      46.7237      46.7237      46.7237 
  232000    92.052897   -11546.025   -10655.073   -409.93623     102002.7      46.7237      46.7237      46.7237 
  233000    92.328391   -11536.765   -10643.147   -384.61455     102002.7      46.7237      46.7237      46.7237 
  234000    89.957855   -11528.798   -10658.124   -387.11051     102002.7      46.7237      46.7237      46.7237 
  235000    90.042625   -11558.504   -10687.009   -164.67974     102002.7      46.7237      46.7237      46.7237 
  236000    91.357317   -11530.072   -10645.853   -377.78956     102002.7      46.7237      46.7237      46.7237 
  237000     92.14565   -11540.385   -10648.536   -402.01116     102002.7      46.7237      46.7237      46.7237 
  238000    90.874894   -11539.791   -10660.241   -446.76842     102002.7      46.7237      46.7237      46.7237 
  239000    92.441182   -11519.731   -10625.021   -388.76395     102002.7      46.7237      46.7237      46.7237 
  240000    91.011444   -11539.185   -10658.313   -209.60873     102002.7      46.7237      46.7237      46.7237 
  241000    90.048715   -11510.587   -10639.034   -97.565496     102002.7      46.7237      46.7237      46.7237 
  242000    90.485746   -11548.468   -10672.684   -56.740375     102002.7      46.7237      46.7237      46.7237 
  243000    90.572747   -11540.079   -10663.453    -89.14508     102002.7      46.7237      46.7237      46.7237 
  244000    92.288094   -11530.929   -10637.701   -397.99449     102002.7      46.7237      46.7237      46.7237 
  245000    90.374441   -11550.679   -10675.972   -25.183326     102002.7      46.7237      46.7237      46.7237 
  246000    90.553888   -11524.642   -10648.199   -80.063343     102002.7      46.7237      46.7237      46.7237 
  247000    90.274686   -11555.041     -10681.3   -306.60845     102002.7      46.7237      46.7237      46.7237 
  248000    89.708349   -11542.868   -10674.608   -378.58198     102002.7      46.7237      46.7237      46.7237 
  249000    92.053571   -11504.894   -10613.936   -64.601539     102002.7      46.7237      46.7237      46.7237 
  250000    91.428015   -11541.354    -10656.45    -95.36143     102002.7      46.7237      46.7237      46.7237 
  251000    90.909832   -11546.235   -10666.347   -367.75843     102002.7      46.7237      46.7237      46.7237 
  252000    92.181802   -11538.436   -10646.237   -270.19521     102002.7      46.7237      46.7237      46.7237 
  253000    89.339717   -11546.478   -10681.787   -227.16564     102002.7      46.7237      46.7237      46.7237 
  254000    92.179299   -11552.297   -10660.122   -110.38625     102002.7      46.7237      46.7237      46.7237 
  255000    91.031841   -11558.228   -10677.159   -327.13518     102002.7      46.7237      46.7237      46.7237 
  256000    89.170812   -11542.105   -10679.048   -98.390048     102002.7      46.7237      46.7237      46.7237 
  257000    87.455406   -11533.847   -10687.393   -23.554183     102002.7      46.7237      46.7237      46.7237 
  258000     90.90211   -11561.838   -10682.025   -291.10687     102002.7      46.7237      46.7237      46.7237 
  259000     91.25658    -11552.15   -10668.906    54.327362     102002.7      46.7237      46.7237      46.7237 
  260000    88.995814    -11543.04   -10681.677   -358.91099     102002.7      46.7237      46.7237      46.7237 
  261000    91.549193   -11530.299   -10644.223   -265.28634     102002.7      46.7237      46.7237      46.7237 
  262000    92.320442   -11538.777   -10645.236   -58.436103     102002.7      46.7237      46.7237      46.7237 
  263000    90.632152    -11531.83   -10654.629    6.6571742     102002.7      46.7237      46.7237      46.7237 
  264000    88.855753   -11522.382   -10662.375    23.146842     102002.7      46.7237      46.7237      46.7237 
  265000    91.024105   -11537.402   -10656.408   -341.02175     102002.7      46.7237      46.7237      46.7237 
  266000    92.345752    -11532.22   -10638.434   -261.40043     102002.7      46.7237      46.7237      46.7237 
  267000    89.988482   -11515.013   -10644.043   -77.767638     102002.7      46.7237      46.7237      46.7237 
  268000    91.185071    -11539.47   -10656.918      100.623     102002.7      46.7237      46.7237      46.7237 
  269000    86.979576   -11532.138    -10690.29   -210.87863     102002.7      46.7237      46.7237      46.7237 
  270000    92.936519   -11537.366   -10637.862    -308.9335     102002.7      46.7237      46.7237      46.7237 
  271000     90.84691   -11525.583   -10646.304   -272.80654     102002.7      46.7237      46.7237      46.7237 
  272000    93.230378   -11535.778    -10633.43    -115.7857     102002.7      46.7237      46.7237      46.7237 
  273000    90.657697   -11551.435   -10673.987   -181.16088     102002.7      46.7237      46.7237      46.7237 
  274000    92.492611   -11562.096   -10666.889   -477.56027     102002.7      46.7237      46.7237      46.7237 
  275000    89.627452   -11527.104   -10659.628   -185.75834     102002.7      46.7237      46.7237      46.7237 
  276000    89.816224   -11549.049   -10679.746   -317.21954     102002.7      46.7237      46.7237      46.7237 
  277000    90.557089   -11546.844    -10670.37   -231.06376     102002.7      46.7237      46.7237      46.7237 
  278000    92.063149   -11549.134   -10658.083   -264.78127     102002.7      46.7237      46.7237      46.7237 
  279000    90.649824   -11530.467   -10653.095   -265.84104     102002.7      46.7237      46.7237      46.7237 
  280000    90.051137   -11537.728    -10666.15    -345.6447     102002.7      46.7237      46.7237      46.7237 
  281000    91.392536   -11530.176   -10645.616    -136.9468     102002.7      46.7237      46.7237      46.7237 
  282000    90.683105   -11507.013    -10629.32   -342.69476     102002.7      46.7237      46.7237      46.7237 
  283000    90.940041   -11551.196   -10671.016   -269.85096     102002.7      46.7237      46.7237      46.7237 
  284000    90.746002   -11528.502   -10650.199   -72.874415     102002.7      46.7237      46.7237      46.7237 
  285000    88.494167   -11537.288    -10680.78   -195.46689     102002.7      46.7237      46.7237      46.7237 
  286000    92.516156   -11540.853   -10645.418   -459.71535     102002.7      46.7237      46.7237      46.7237 
  287000    91.834554   -11548.337   -10659.499    -120.4168     102002.7      46.7237      46.7237      46.7237 
  288000    91.580382   -11558.496   -10672.118    134.93508     102002.7      46.7237      46.7237      46.7237 
  289000    90.061674   -11540.166   -10668.487  -0.06762498     102002.7      46.7237      46.7237      46.7237 
  290000     90.05326   -11524.667   -10653.069   -214.17377     102002.7      46.7237      46.7237      46.7237 
  291000    89.406809   -11511.488   -10646.147   -177.30284     102002.7      46.7237      46.7237      46.7237 
  292000    90.634489    -11548.72   -10671.497   -384.17485     102002.7      46.7237      46.7237      46.7237 
  293000    89.457628   -11533.532   -10667.699   -130.32657     102002.7      46.7237      46.7237      46.7237 
  294000    91.125811   -11539.208   -10657.229   -390.36694     102002.7      46.7237      46.7237      46.7237 
  295000    91.221801   -11546.184   -10663.276   -122.23178     102002.7      46.7237      46.7237      46.7237 
  296000    92.700479   -11530.561   -10633.341   -166.22593     102002.7      46.7237      46.7237      46.7237 
  297000    91.063527   -11516.198   -10634.822   -178.69368     102002.7      46.7237      46.7237      46.7237 
  298000    90.352534   -11550.373   -10675.879    64.360635     102002.7      46.7237      46.7237      46.7237 
  299000    92.767376   -11532.054   -10634.187   -388.98488     102002.7      46.7237      46.7237      46.7237 
  300000    92.136368   -11535.175   -10643.416   -388.43688     102002.7      46.7237      46.7237      46.7237 
  301000    90.419454   -11523.341   -10648.199    19.253755     102002.7      46.7237      46.7237      46.7237 
  302000    91.716894   -11526.156   -10638.456   -58.960192     102002.7      46.7237      46.7237      46.7237 
  303000    89.820386   -11547.751   -10678.408   -194.76128     102002.7      46.7237      46.7237      46.7237 
  304000    90.526701   -11529.763   -10653.583    -193.1919     102002.7      46.7237      46.7237      46.7237 
  305000    88.582593   -11518.562   -10661.198   -96.042929     102002.7      46.7237      46.7237      46.7237 
  306000    92.855048   -11529.644   -10630.929    -165.3399     102002.7      46.7237      46.7237      46.7237 
  307000     87.76409   -11542.066   -10692.625   -59.873683     102002.7      46.7237      46.7237      46.7237 
  308000    90.775674   -11524.025   -10645.436   -414.40198     102002.7      46.7237      46.7237      46.7237 
  309000    90.235724   -11531.934   -10658.571   -386.06203     102002.7      46.7237      46.7237      46.7237 
  310000    89.764606   -11508.505   -10639.701   -46.014418     102002.7      46.7237      46.7237      46.7237 
  311000    91.635127   -11532.128    -10645.22   -281.94307     102002.7      46.7237      46.7237      46.7237 
  312000    90.438953   -11529.481   -10654.151   -221.16146     102002.7      46.7237      46.7237      46.7237 
  313000     90.99555    -11506.29   -10625.573    107.70385     102002.7      46.7237      46.7237      46.7237 
  314000    90.708825   -11516.214   -10638.271   -302.80009     102002.7      46.7237      46.7237      46.7237 
  315000    91.845382    -11545.76   -10656.817   -133.41698     102002.7      46.7237      46.7237      46.7237 
  316000     92.41526    -11537.43   -10642.971   -46.263752     102002.7      46.7237      46.7237      46.7237 
  317000    91.760338   -11507.945   -10619.825   -462.75337     102002.7      46.7237      46.7237      46.7237 
  318000     89.44666   -11536.036   -10670.309    -158.0151     102002.7      46.7237      46.7237      46.7237 
  319000    88.767898   -11547.242   -10688.085   -480.73625     102002.7      46.7237      46.7237      46.7237 
  320000    91.899452   -11521.642   -10632.176   -273.73365     102002.7      46.7237      46.7237      46.7237 
  321000    91.759744   -11518.118   -10630.004   -161.67462     102002.7      46.7237      46.7237      46.7237 
  322000    90.020442   -11554.852   -10683.572   -241.59774     102002.7      46.7237      46.7237      46.7237 
  323000    91.313222   -11529.471   -10645.679   -368.58536     102002.7      46.7237      46.7237      46.7237 
  324000    92.352748   -11512.778   -10618.924   -208.68729     102002.7      46.7237      46.7237      46.7237 
  325000    91.915961   -11510.096   -10620.469    10.849095     102002.7      46.7237      46.7237      46.7237 
  326000    91.810322   -11560.734   -10672.131   -413.02519     102002.7      46.7237      46.7237      46.7237 
  327000    88.375002   -11544.299   -10688.945   -208.73263     102002.7      46.7237      46.7237      46.7237 
  328000    91.909923   -11530.891   -10641.323   -212.28784     102002.7      46.7237      46.7237      46.7237 
  329000    92.354886   -11538.986   -10645.112   -204.91564     102002.7      46.7237      46.7237      46.7237 
  330000    92.207787   -11516.332   -10623.882   -248.55432     102002.7      46.7237      46.7237      46.7237 
  331000    88.177428    -11523.89   -10670.448   -232.63036     102002.7      46.7237      46.7237      46.7237 
  332000    93.225531   -11519.005   -10616.704   -164.98317     102002.7      46.7237      46.7237      46.7237 
  333000    89.675462   -11529.091    -10661.15   -61.848809     102002.7      46.7237      46.7237      46.7237 
  334000    90.636752   -11545.867   -10668.621    -347.1265     102002.7      46.7237      46.7237      46.7237 
  335000    92.642408   -11509.002   -10612.345   -204.57902     102002.7      46.7237      46.7237      46.7237 
  336000     89.71157   -11546.602   -10678.312   -307.29668     102002.7      46.7237      46.7237      46.7237 
  337000    91.649566   -11536.104   -10649.056   -76.086495     102002.7      46.7237      46.7237      46.7237 
  338000     91.72858    -11540.57   -10652.758   -189.26075     102002.7      46.7237      46.7237      46.7237 
  339000    93.385408   -11528.994   -10625.146   -178.97042     102002.7      46.7237      46.7237      46.7237 
  340000    89.600746   -11524.053   -10656.835   -134.91786     102002.7      46.7237      46.7237      46.7237 
  341000     91.23094    -11543.95   -10660.954    35.505517     102002.7      46.7237      46.7237      46.7237 
  342000    92.305512    -11545.43   -10652.033    10.597935     102002.7      46.7237      46.7237      46.7237 
  343000    90.567304   -11510.081   -10633.508    35.196602     102002.7      46.7237      46.7237      46.7237 
  344000    93.757466   -11537.878   -10630.429   -327.78334     102002.7      46.7237      46.7237      46.7237 
  345000    90.972531   -11520.011   -10639.516    -413.9105     102002.7      46.7237      46.7237      46.7237 
  346000    92.240429   -11536.854   -10644.088    27.325205     102002.7      46.7237      46.7237      46.7237 
  347000    92.188905    -11529.91   -10637.642   -253.99163     102002.7      46.7237      46.7237      46.7237 
  348000    88.266986   -11529.541   -10675.232   -344.04463     102002.7      46.7237      46.7237      46.7237 
  349000     91.10281   -11503.955   -10622.199   -228.37084     102002.7      46.7237      46.7237      46.7237 
  350000    93.955941   -11538.182   -10628.812   -82.901703     102002.7      46.7237      46.7237      46.7237 
  351000    92.034702   -11541.668   -10650.893   -96.197314     102002.7      46.7237      46.7237      46.7237 
  352000    91.435351   -11531.308   -10646.334   -225.13776     102002.7      46.7237      46.7237      46.7237 
  353000    93.378938   -11513.252   -10609.466   -41.715113     102002.7      46.7237      46.7237      46.7237 
  354000    90.642607   -11527.738   -10650.436   -269.68156     102002.7      46.7237      46.7237      46.7237 
  355000    91.101578   -11567.925   -10686.181   -10.624602     102002.7      46.7237      46.7237      46.7237 
  356000     90.35894   -11526.242   -10651.685   -285.01456     102002.7      46.7237      46.7237      46.7237 
  357000    90.830915   -11534.218   -10655.094   -345.35913     102002.7      46.7237      46.7237      46.7237 
  358000    91.641732   -11547.123   -10660.151   -194.12046     102002.7      46.7237      46.7237      46.7237 
  359000    88.396897   -11509.595   -10654.029     -134.582     102002.7      46.7237      46.7237      46.7237 
  360000    90.114999   -11545.075    -10672.88    -232.2554     102002.7      46.7237      46.7237      46.7237 
  361000    91.038083   -11537.993   -10656.863   -252.31409     102002.7      46.7237      46.7237      46.7237 
  362000    92.951538   -11523.244   -10623.595    -6.756625     102002.7      46.7237      46.7237      46.7237 
  363000    92.476568   -11536.342    -10641.29   -282.15782     102002.7      46.7237      46.7237      46.7237 
  364000    90.457951   -11540.738   -10665.224   -220.20268     102002.7      46.7237      46.7237      46.7237 
  365000    91.069229   -11525.118   -10643.687   -420.93262     102002.7      46.7237      46.7237      46.7237 
  366000     90.14006    -11538.93   -10666.492   -242.14146     102002.7      46.7237      46.7237      46.7237 
  367000    90.358438   -11533.291   -10658.739   -171.74896     102002.7      46.7237      46.7237      46.7237 
  368000      89.9221   -11544.606   -10674.278    -102.2455     102002.7      46.7237      46.7237      46.7237 
  369000    91.407192   -11542.115   -10657.413   -37.720615     102002.7      46.7237      46.7237      46.7237 
  370000    92.222348   -11537.689   -10645.097   -166.41927     102002.7      46.7237      46.7237      46.7237 
  371000    90.985133   -11506.323   -10625.706   -354.48225     102002.7      46.7237      46.7237      46.7237 
  372000    91.194692   -11545.916   -10663.271    -93.18276     102002.7      46.7237      46.7237      46.7237 
  373000    89.470627   -11537.802   -10671.843   -328.78313     102002.7      46.7237      46.7237      46.7237 
  374000    91.976502   -11531.782   -10641.569    -101.6003     102002.7      46.7237      46.7237      46.7237 
  375000    91.251277   -11510.261   -10627.068   -110.11988     102002.7      46.7237      46.7237      46.7237 
  376000    90.209336   -11521.591   -10648.483   -396.38894     102002.7      46.7237      46.7237      46.7237 
  377000    90.175959    -11555.56   -10682.774   -485.62817     102002.7      46.7237      46.7237      46.7237 
  378000     89.93974   -11533.609    -10663.11   -291.40949     102002.7      46.7237      46.7237      46.7237 
  379000    91.873428   -11529.793   -10640.579   -146.05701     102002.7      46.7237      46.7237      46.7237 
  380000    90.412098   -11524.818   -10649.747   -106.76244     102002.7      46.7237      46.7237      46.7237 
  381000    90.369489   -11545.965   -10671.306   -126.47438     102002.7      46.7237      46.7237      46.7237 
  382000    93.142975   -11536.015   -10634.513   -239.25942     102002.7      46.7237      46.7237      46.7237 
  383000    92.598315   -11530.331     -10634.1   -225.26678     102002.7      46.7237      46.7237      46.7237 
  384000    89.500102   -11564.314    -10698.07   -61.106161     102002.7      46.7237      46.7237      46.7237 
  385000    91.635974   -11546.166    -10659.25   -248.48979     102002.7      46.7237      46.7237      46.7237 
  386000    87.607258   -11524.057   -10676.133   -110.62564     102002.7      46.7237      46.7237      46.7237 
  387000    90.072543   -11537.518   -10665.734   -384.91985     102002.7      46.7237      46.7237      46.7237 
  388000    91.014888   -11521.366   -10640.461    -94.41358     102002.7      46.7237      46.7237      46.7237 
  389000    91.681906    -11522.06   -10634.699   -114.21335     102002.7      46.7237      46.7237      46.7237 
  390000    92.823353   -11545.811   -10647.402   -98.361925     102002.7      46.7237      46.7237      46.7237 
  391000    89.629255   -11525.323   -10657.829   -193.56474     102002.7      46.7237      46.7237      46.7237 
  392000     91.26994   -11521.649   -10638.275    31.394574     102002.7      46.7237      46.7237      46.7237 
  393000    89.270052   -11537.695   -10673.678   -54.328234     102002.7      46.7237      46.7237      46.7237 
  394000    90.516564   -11523.275   -10647.193    44.533667     102002.7      46.7237      46.7237      46.7237 
  395000     91.82206   -11510.668   -10621.951    2.5195392     102002.7      46.7237      46.7237      46.7237 
  396000    92.292683   -11531.918   -10638.646   -137.78075     102002.7      46.7237      46.7237      46.7237 
  397000    90.674608     -11524.7   -10647.089   -219.12312     102002.7      46.7237      46.7237      46.7237 
  398000     89.66128   -11544.811   -10677.007   -566.35197     102002.7      46.7237      46.7237      46.7237 
  399000     92.76095   -11532.565   -10634.761   -322.93764     102002.7      46.7237      46.7237      46.7237 
  400000    90.759566   -11534.258   -10655.824   -276.51981     102002.7      46.7237      46.7237      46.7237 
  401000    90.930585   -11530.702   -10650.613   -432.52805     102002.7      46.7237      46.7237      46.7237 
  402000    90.284709   -11527.567    -10653.73   -523.41213     102002.7      46.7237      46.7237      46.7237 
  403000    90.745005    -11520.71   -10642.417   -316.56006     102002.7      46.7237      46.7237      46.7237 
  404000    89.726078   -11519.859   -10651.428   -313.40742     102002.7      46.7237      46.7237      46.7237 
  405000    92.013462   -11542.361   -10651.791    47.013737     102002.7      46.7237      46.7237      46.7237 
  406000    90.046743   -11537.873   -10666.338   -92.693792     102002.7      46.7237      46.7237      46.7237 
  407000    91.262433   -11531.277   -10647.976   -147.49142     102002.7      46.7237      46.7237      46.7237 
  408000    89.618022   -11523.362   -10655.977   -281.33298     102002.7      46.7237      46.7237      46.7237 
  409000    90.750334   -11528.014    -10649.67   -264.92368     102002.7      46.7237      46.7237      46.7237 
  410000    90.771891   -11532.178   -10653.625   -167.49683     102002.7      46.7237      46.7237      46.7237 
  411000    92.504507   -11508.662    -10613.34   -36.728614     102002.7      46.7237      46.7237      46.7237 
  412000    91.165271   -11536.487   -10654.127   -225.75578     102002.7      46.7237      46.7237      46.7237 
  413000    91.834324   -11546.631   -10657.795   -81.665374     102002.7      46.7237      46.7237      46.7237 
  414000    91.389956   -11552.919   -10668.384   -82.840515     102002.7      46.7237      46.7237      46.7237 
  415000    89.300701   -11510.267   -10645.954   -62.418769     102002.7      46.7237      46.7237      46.7237 
  416000    91.349398   -11576.154   -10692.011   -128.87602     102002.7      46.7237      46.7237      46.7237 
  417000    91.004214   -11534.645   -10653.843   -178.71375     102002.7      46.7237      46.7237      46.7237 
  418000    90.398024    -11565.21   -10690.275   -10.335467     102002.7      46.7237      46.7237      46.7237 
  419000    88.113995   -11523.002   -10670.174    -290.3162     102002.7      46.7237      46.7237      46.7237 
  420000    90.623158   -11514.075   -10636.962   -202.55293     102002.7      46.7237      46.7237      46.7237 
  421000    93.875049   -11539.215   -10630.628    -407.9318     102002.7      46.7237      46.7237      46.7237 
  422000    89.519679   -11530.306   -10663.873   -700.24754     102002.7      46.7237      46.7237      46.7237 
  423000    92.601141   -11539.445   -10643.187   -390.97878     102002.7      46.7237      46.7237      46.7237 
  424000     91.28764   -11532.164   -10648.619   -417.05675     102002.7      46.7237      46.7237      46.7237 
  425000    90.873869   -11536.547   -10657.007   -292.77537     102002.7      46.7237      46.7237      46.7237 
  426000    88.946004   -11552.241   -10691.361   -265.74886     102002.7      46.7237      46.7237      46.7237 
  427000    93.366283   -11541.464   -10637.801   -283.68762     102002.7      46.7237      46.7237      46.7237 
  428000    91.012037   -11529.303   -10648.425   -351.43604     102002.7      46.7237      46.7237      46.7237 
  429000     89.52125   -11528.615   -10662.167    -339.1073     102002.7      46.7237      46.7237      46.7237 
  430000    91.673843   -11539.409   -10652.126   -251.17372     102002.7      46.7237      46.7237      46.7237 
  431000    88.612526   -11527.989   -10670.336   -241.80832     102002.7      46.7237      46.7237      46.7237 
  432000     89.87204   -11532.573   -10662.729   -251.80723     102002.7      46.7237      46.7237      46.7237 
  433000    90.813048   -11526.993   -10648.041   -152.09474     102002.7      46.7237      46.7237      46.7237 
  434000    90.660599   -11534.084   -10656.609   -315.16984     102002.7      46.7237      46.7237      46.7237 
  435000    88.753074    -11546.14   -10687.126   -80.671369     102002.7      46.7237      46.7237      46.7237 
  436000    89.691735   -11527.569    -10659.47   -400.44022     102002.7      46.7237      46.7237      46.7237 
  437000    91.392521   -11532.089   -10647.529   -123.83259     102002.7      46.7237      46.7237      46.7237 
  438000    90.735379   -11546.519   -10668.319   -97.474838     102002.7      46.7237      46.7237      46.7237 
  439000     91.37368   -11515.491   -10631.114   -309.13282     102002.7      46.7237      46.7237      46.7237 
  440000    91.756262   -11517.695   -10629.614    55.583779     102002.7      46.7237      46.7237      46.7237 
  441000    89.279605   -11523.707   -10659.598   -263.47802     102002.7      46.7237      46.7237      46.7237 
  442000    92.436982   -11529.072   -10634.403   -112.36024     102002.7      46.7237      46.7237      46.7237 
  443000    91.031776   -11544.651   -10663.582   -140.16748     102002.7      46.7237      46.7237      46.7237 
  444000    91.614694   -11549.764   -10663.054   -227.72187     102002.7      46.7237      46.7237      46.7237 
  445000    90.814585   -11551.891   -10672.924   -317.93342     102002.7      46.7237      46.7237      46.7237 
  446000    90.641054   -11547.822   -10670.535   -150.65965     102002.7      46.7237      46.7237      46.7237 
  447000    90.209499   -11533.603   -10660.493   -122.57167     102002.7      46.7237      46.7237      46.7237 
  448000    90.572334   -11525.872    -10649.25   -200.42054     102002.7      46.7237      46.7237      46.7237 
  449000    89.899538   -11537.598   -10667.489   -182.99841     102002.7      46.7237      46.7237      46.7237 
  450000     91.95712   -11541.917   -10651.893   -346.89242     102002.7      46.7237      46.7237      46.7237 
  451000    92.259206   -11535.703   -10642.755   -208.39925     102002.7      46.7237      46.7237      46.7237 
  452000     88.76325   -11558.156   -10699.044     -258.129     102002.7      46.7237      46.7237      46.7237 
  453000    89.497595   -11532.657   -10666.438   -311.52454     102002.7      46.7237      46.7237      46.7237 
  454000     91.89674   -11552.832   -10663.392     -323.249     102002.7      46.7237      46.7237      46.7237 
  455000    92.414103   -11529.729   -10635.281    -270.0118     102002.7      46.7237      46.7237      46.7237 
  456000    90.011418   -11533.891   -10662.699   -161.19485     102002.7      46.7237      46.7237      46.7237 
  457000    90.527301   -11525.441   -10649.255   -437.47084     102002.7      46.7237      46.7237      46.7237 
  458000     89.50822   -11521.137   -10654.814   -283.38251     102002.7      46.7237      46.7237      46.7237 
  459000    92.000311   -11536.365   -10645.923   -230.66923     102002.7      46.7237      46.7237      46.7237 
  460000    91.506805   -11543.389   -10657.723   -405.73108     102002.7      46.7237      46.7237      46.7237 
  461000    91.910983   -11544.292   -10654.714   -210.43867     102002.7      46.7237      46.7237      46.7237 
  462000    90.992479   -11534.641   -10653.953   -108.01103     102002.7      46.7237      46.7237      46.7237 
  463000    90.005817   -11529.861   -10658.722   -217.53429     102002.7      46.7237      46.7237      46.7237 
  464000    92.618307   -11529.297   -10632.873    68.098633     102002.7      46.7237      46.7237      46.7237 
  465000    92.087929   -11532.216   -10640.926   -292.84325     102002.7      46.7237      46.7237      46.7237 
  466000     91.04617   -11543.061   -10661.854   -64.428442     102002.7      46.7237      46.7237      46.7237 
  467000    91.768529   -11532.115   -10643.916   -101.35943     102002.7      46.7237      46.7237      46.7237 
  468000    90.827905   -11545.595     -10666.5    100.43997     102002.7      46.7237      46.7237      46.7237 
  469000    91.013959   -11524.929   -10644.034   -91.945579     102002.7      46.7237      46.7237      46.7237 
  470000    91.141627   -11527.063   -10644.931    147.08978     102002.7      46.7237      46.7237      46.7237 
  471000    92.937243   -11532.661    -10633.15   -211.99253     102002.7      46.7237      46.7237      46.7237 
  472000    89.733727     -11516.2   -10647.695   -108.61875     102002.7      46.7237      46.7237      46.7237 
  473000    90.062745   -11539.208   -10667.518   -50.663501     102002.7      46.7237      46.7237      46.7237 
  474000    89.187903   -11545.864   -10682.642   -227.87536     102002.7      46.7237      46.7237      46.7237 
  475000    92.557008   -11525.087   -10629.257    -52.64751     102002.7      46.7237      46.7237      46.7237 
  476000    86.446271   -11528.681   -10691.994    33.761788     102002.7      46.7237      46.7237      46.7237 
  477000    90.701858   -11526.963   -10649.088   -337.14247     102002.7      46.7237      46.7237      46.7237 
  478000    89.923459   -11525.156   -10654.815   -278.38258     102002.7      46.7237      46.7237      46.7237 
  479000    91.705544   -11514.578   -10626.989   -227.62499     102002.7      46.7237      46.7237      46.7237 
  480000    89.243184   -11538.667    -10674.91   -133.43113     102002.7      46.7237      46.7237      46.7237 
  481000    90.063499   -11529.807    -10658.11   -123.72265     102002.7      46.7237      46.7237      46.7237 
  482000    93.732513   -11527.167   -10619.959   -315.09823     102002.7      46.7237      46.7237      46.7237 
  483000    91.820816   -11537.366   -10648.661   -315.95428     102002.7      46.7237      46.7237      46.7237 
  484000    90.719718   -11541.556   -10663.508   -59.505149     102002.7      46.7237      46.7237      46.7237 
  485000    91.428142   -11535.054    -10650.15   -51.896801     102002.7      46.7237      46.7237      46.7237 
  486000    93.294254   -11512.885   -10609.919    129.69826     102002.7      46.7237      46.7237      46.7237 
  487000    91.934244   -11510.168   -10620.365     -65.7023     102002.7      46.7237      46.7237      46.7237 
  488000     90.53126   -11550.202   -10673.978   -343.34704     102002.7      46.7237      46.7237      46.7237 
  489000    90.570891   -11531.518   -10654.911   -324.00612     102002.7      46.7237      46.7237      46.7237 
  490000    88.788693   -11546.529   -10687.171   -327.68766     102002.7      46.7237      46.7237      46.7237 
  491000     89.29999   -11518.344   -10654.037   -371.88291     102002.7      46.7237      46.7237      46.7237 
  492000    92.598233   -11541.969   -10645.739   -94.853588     102002.7      46.7237      46.7237      46.7237 
  493000    90.585889   -11550.779   -10674.027   -410.45847     102002.7      46.7237      46.7237      46.7237 
  494000    89.344905   -11530.229   -10665.487   -334.53769     102002.7      46.7237      46.7237      46.7237 
  495000    92.254081   -11555.328    -10662.43   -64.894878     102002.7      46.7237      46.7237      46.7237 
  496000    91.606374   -11544.224   -10657.595   -220.68247     102002.7      46.7237      46.7237      46.7237 
  497000    89.615833    -11530.42   -10663.056    19.250576     102002.7      46.7237      46.7237      46.7237 
  498000    89.298549   -11541.866   -10677.573   -372.67927     102002.7      46.7237      46.7237      46.7237 
  499000    92.768798   -11512.607   -10614.726   -138.19954     102002.7      46.7237      46.7237      46.7237 
  500000     91.59716   -11521.733   -10635.193   -36.813552     102002.7      46.7237      46.7237      46.7237 
  500500    90.877399   -11521.015   -10641.441   -93.708359     102002.7      46.7237      46.7237      46.7237 
Loop time of 1877.47 on 16 procs for 500000 steps with 3248 atoms

Performance: 23.010 ns/day, 1.043 hours/ns, 266.316 timesteps/s
99.8% CPU use with 16 MPI tasks x no OpenMP threads

MPI task timing breakdown:
Section |  min time  |  avg time  |  max time  |%varavg| %total
---------------------------------------------------------------
Pair    | 955.83     | 1182.6     | 1427.6     | 343.1 | 62.99
Bond    | 89.57      | 174.75     | 239.43     | 318.0 |  9.31
Neigh   | 15.148     | 15.185     | 15.219     |   0.5 |  0.81
Comm    | 178.08     | 486.38     | 797.04     | 668.4 | 25.91
Output  | 0.021504   | 0.022338   | 0.02533    |   0.6 |  0.00
Modify  | 9.7204     | 11.51      | 12.998     |  33.7 |  0.61
Other   |            | 6.991      |            |       |  0.37

Nlocal:    203 ave 251 max 171 min
Histogram: 3 4 2 0 0 0 4 0 1 2
Nghost:    4102.12 ave 4131 max 4055 min
Histogram: 1 0 2 1 0 3 3 0 4 2
Neighs:    11446.5 ave 15903 max 8049 min
Histogram: 1 0 3 4 3 3 0 1 0 1

Total # of neighbors = 183144
Ave neighs/atom = 56.3867
Ave special neighs/atom = 3.5468
Neighbor list builds = 4173
Dangerous builds = 0
Neighbor list info ...
  update every 1 steps, delay 10 steps, check yes
  max neighbors/atom: 2000, page size: 100000
  master list distance cutoff = 16
  ghost atom cutoff = 16
  binsize = 8, bins = 6 6 6
  3 neighbor lists, perpetual/occasional/extra = 3 0 0
  (1) pair buck6d/coul/gauss/dsf, perpetual, skip from (3)
      attributes: half, newton on
      pair build: skip
      stencil: none
      bin: none
  (2) pair lj/cut, perpetual, skip from (3)
      attributes: half, newton on
      pair build: skip
      stencil: none
      bin: none
  (3) neighbor class addition, perpetual
      attributes: half, newton on
      pair build: half/bin/newton
      stencil: half/bin/3d/newton
      bin: standard
Setting up Verlet run ...
  Unit style    : real
  Current step  : 500500
  Time step     : 1
WARNING: Inconsistent image flags (../domain.cpp:786)
Per MPI rank memory allocation (min/avg/max) = 22.67 | 23.17 | 23.44 Mbytes
Step Time TotEng KinEng PotEng E_mol E_pair Temp Pxx Pyy Pzz Pxy Pxz Pyz Cella Cellb Cellc CellAlpha CellBeta CellGamma Volume Press 
  500500       500000   -10641.441     879.5742   -11521.015     4165.631   -15686.646    90.877399   -154.52132   -68.889207   -57.714548    3.8109383   -201.69224    -182.0789      46.7237      46.7237      46.7237           90           90           90     102002.7   -93.708359 
  501000       500500   -10617.491    898.61241   -11516.104    4169.5474   -15685.651    92.844423   -504.48923   -136.79617     -488.744    62.215764   -62.646202    38.763901      46.7237      46.7237      46.7237           90           90           90     102002.7   -376.67647 
  502000       501500   -10665.672    872.43137   -11538.104    4172.3704   -15710.474    90.139404   -212.80784   -143.07426   -441.15183   -71.992887   -24.985594    -28.08182      46.7237      46.7237      46.7237           90           90           90     102002.7   -265.67798 
  503000       502500   -10652.101    873.81047   -11525.911    4165.5401   -15691.451    90.281893   -486.54519    -125.4987    333.13218    157.17127    138.39447   -82.326444      46.7237      46.7237      46.7237           90           90           90     102002.7   -92.970572 
  504000       503500       -10649    873.36705   -11522.367    4159.6212   -15681.988    90.236079   -135.54176    -38.67944   -21.323889    80.754277    14.703909    1.8115192      46.7237      46.7237      46.7237           90           90           90     102002.7   -65.181697 
  505000       504500   -10654.438    859.31104   -11513.749    4175.8314   -15689.581    88.783814   -407.89397    44.976201   -216.06116   -163.77573    148.61253    140.54709      46.7237      46.7237      46.7237           90           90           90     102002.7   -192.99298 
  506000       505500   -10629.299    896.16221   -11525.461    4164.8817   -15690.343    92.591269   -488.99066   -108.77549    394.88105     -166.905    83.455939    161.70666      46.7237      46.7237      46.7237           90           90           90     102002.7   -67.628365 
  507000       506500   -10672.076    863.99379    -11536.07     4155.971   -15692.041    89.267636   -276.72368   -69.856594   -85.383516   -15.356623    15.238602   -338.56769      46.7237      46.7237      46.7237           90           90           90     102002.7   -143.98793 
  508000       507500   -10656.795    893.56542    -11550.36     4137.484   -15687.844    92.322969   -415.38909   -61.602841   -36.674734   -155.74612   -5.9326543   -85.343649      46.7237      46.7237      46.7237           90           90           90     102002.7   -171.22222 
  509000       508500   -10658.508    876.81311   -11535.321    4168.6936   -15704.014    90.592125   -433.15329   -394.61039    279.98625   -113.64802    15.239315     246.8738      46.7237      46.7237      46.7237           90           90           90     102002.7   -182.59248 
  510000       509500   -10612.801    903.14865    -11515.95    4176.3782   -15692.328    93.313106   -327.62508   -519.82462    170.62637    58.575347    105.46629    -63.28662      46.7237      46.7237      46.7237           90           90           90     102002.7   -225.60778 
  511000       510500   -10658.914    888.60974   -11547.524    4152.8179   -15700.341    91.810949   -549.09367   -1.5955319   -154.15441   -114.73655    169.28327    57.134959      46.7237      46.7237      46.7237           90           90           90     102002.7   -234.94787 
  512000       511500   -10676.058    874.87195    -11550.93    4157.6522   -15708.582    90.391564   -314.08238    267.00689    63.481321  -0.92377181   0.75718134   -103.67498      46.7237      46.7237      46.7237           90           90           90     102002.7    5.4686114 
  513000       512500   -10674.391    866.89566   -11541.287    4144.0393   -15685.326    89.567456   -138.83605   -158.95505   -105.66258    158.37631    53.352872   -174.64188      46.7237      46.7237      46.7237           90           90           90     102002.7   -134.48456 
  514000       513500   -10658.773    874.22497   -11532.998    4165.8533   -15698.852    90.324718    89.153869    39.470099   -345.25371    15.773198    138.57499    96.672161      46.7237      46.7237      46.7237           90           90           90     102002.7   -72.209915 
  515000       514500   -10648.373    877.43108   -11525.804    4165.0011   -15690.805    90.655973    111.42353   -128.41511   -28.015722   -96.392612    108.17025   -154.87935      46.7237      46.7237      46.7237           90           90           90     102002.7   -15.002434 
  516000       515500   -10666.882    878.66164   -11545.544    4152.5974   -15698.141    90.783115   -22.985519   -435.25607   -277.01705    136.80425    16.418261   -299.62739      46.7237      46.7237      46.7237           90           90           90     102002.7   -245.08621 
  517000       516500   -10661.392    870.16253   -11531.554    4181.2733   -15712.828    89.904988   -231.60124   -152.33389   -348.29478    7.2975523    15.416577   -10.467539      46.7237      46.7237      46.7237           90           90           90     102002.7   -244.07663 
  518000       517500   -10624.438    888.66014   -11513.098    4162.6368   -15675.735    91.816156   -231.93226   -110.74966   -73.853496   -62.985934    23.165187     -131.332      46.7237      46.7237      46.7237           90           90           90     102002.7   -138.84514 
  519000       518500   -10636.905    894.79424     -11531.7     4159.959   -15691.659    92.449931    -73.29021    115.39794   -175.66365    24.659987   -90.714559   -29.968212      46.7237      46.7237      46.7237           90           90           90     102002.7   -44.518642 
  520000       519500   -10645.004    874.05181   -11519.056    4159.8081   -15678.864    90.306828   -125.94266   -62.922372    10.308658    96.392066   -194.44973   -0.7882525      46.7237      46.7237      46.7237           90           90           90     102002.7   -59.518791 
  521000       520500   -10668.725    868.83827   -11537.563    4160.6028   -15698.166    89.768166   -94.453384   -39.439298    3.3719112   -65.748198    15.409845    24.054132      46.7237      46.7237      46.7237           90           90           90     102002.7   -43.506924 
  522000       521500   -10605.774    892.63802   -11498.412    4190.1285   -15688.541     92.22715    -46.58817   -386.50861   -159.67032     99.70905   -97.181269    107.33772      46.7237      46.7237      46.7237           90           90           90     102002.7   -197.58904 
  523000       522500   -10646.113    879.97943   -11526.093    4177.0521   -15703.145    90.919268   -236.85815    12.780223    44.444746   -97.431343    27.213366    90.765288      46.7237      46.7237      46.7237           90           90           90     102002.7   -59.877728 
  524000       523500   -10644.303    872.74896   -11517.052    4176.8615   -15693.914    90.172218    142.09289   -184.59749   -290.26058    -233.2362    12.550947   -166.37563      46.7237      46.7237      46.7237           90           90           90     102002.7   -110.92172 
  525000       524500   -10641.299    883.33259   -11524.631    4155.2102   -15679.841    91.265715   -89.212241    505.11624    113.93528    262.48372    149.87128    55.503633      46.7237      46.7237      46.7237           90           90           90     102002.7    176.61309 
  526000       525500   -10660.918    866.37294   -11527.291    4158.1862   -15685.477    89.513449    -144.9316   -80.873189    37.257354    106.57431   -234.64093   -213.07544      46.7237      46.7237      46.7237           90           90           90     102002.7   -62.849146 
  527000       526500   -10597.498    875.30662   -11472.804    4192.2273   -15665.031    90.436475   -272.32651    361.38382   -29.239175    103.83747   -22.990835    147.35464      46.7237      46.7237      46.7237           90           90           90     102002.7     19.93938 
  528000       527500   -10628.446    873.23776   -11501.684    4192.9034   -15694.587     90.22272   -86.460261   -290.01653    626.70202    271.70869    152.32471    37.186503      46.7237      46.7237      46.7237           90           90           90     102002.7     83.40841 
  529000       528500   -10654.628    874.73726   -11529.365    4161.1865   -15690.551    90.377648   -63.212445   -657.60101   -57.672396    -100.6231    56.938115   -100.13451      46.7237      46.7237      46.7237           90           90           90     102002.7   -259.49528 
  530000       529500    -10622.33    883.64864   -11505.979    4180.5277   -15686.506    91.298369   -56.743744   -94.612008    202.08913   -45.801431    26.050982   -244.89654      46.7237      46.7237      46.7237           90           90           90     102002.7    16.911126 
  531000       530500   -10653.079    875.38591   -11528.465     4174.104   -15702.569    90.444667   -562.40697   -342.19655    278.94182   -24.231157   -233.77044   -126.60664      46.7237      46.7237      46.7237           90           90           90     102002.7    -208.5539 
  532000       531500   -10645.055    876.39034   -11521.445    4178.9742   -15700.419    90.548444   -195.45189   -128.53387   -283.88944    76.413907    -216.7695    16.026414      46.7237      46.7237      46.7237           90           90           90     102002.7   -202.62506 
  533000       532500   -10647.885    895.53281   -11543.418    4164.7526    -15708.17     92.52624   -499.67618   -286.56094    117.63192    89.779109   -32.789872    65.942123      46.7237      46.7237      46.7237           90           90           90     102002.7    -222.8684 
  534000       533500    -10655.49    868.76837   -11524.258     4174.287   -15698.545    89.760944     152.3675   -114.61969    414.20142   -5.3306693    158.74553    6.4694961      46.7237      46.7237      46.7237           90           90           90     102002.7    150.64975 
  535000       534500   -10661.852     868.9568   -11530.809    4165.2862   -15696.095    89.780412    29.841367    -211.6067    340.95738    55.022202    161.16852    112.82836      46.7237      46.7237      46.7237           90           90           90     102002.7    53.064018 
  536000       535500   -10661.288    872.62222    -11533.91      4175.87    -15709.78    90.159123   -446.37104    71.616729    -168.9649   -75.602445    8.7849624     327.1958      46.7237      46.7237      46.7237           90           90           90     102002.7   -181.23974 
  537000       536500    -10638.17    891.27475   -11529.445    4173.7018   -15703.147    92.086297    255.43884    468.49759   -337.30472    147.71301   -80.134236    12.399107      46.7237      46.7237      46.7237           90           90           90     102002.7    128.87724 
  538000       537500   -10624.189    878.76363   -11502.953    4182.5608   -15685.514    90.793652   -55.919012    362.61292    108.35008   -70.842407     38.95077   -72.083083      46.7237      46.7237      46.7237           90           90           90     102002.7      138.348 
  539000       538500   -10637.222     883.7051   -11520.927    4170.7327    -15691.66    91.304203    -58.62058    85.168117    384.79876   -56.509926    153.55626    16.314648      46.7237      46.7237      46.7237           90           90           90     102002.7    137.11543 
  540000       539500   -10680.891     875.9692   -11556.861     4161.107   -15717.968    90.504932   -94.680794    17.963773   -153.24807   -57.608548   -120.85901   -124.22758      46.7237      46.7237      46.7237           90           90           90     102002.7   -76.655029 
  541000       540500   -10619.017    904.78417   -11523.801    4178.0306   -15701.831    93.482088    372.23927   -40.151029   -7.6063699   -67.454986    166.19078   -219.58441      46.7237      46.7237      46.7237           90           90           90     102002.7    108.16062 
  542000       541500   -10638.925    871.52242   -11510.447    4179.9089   -15690.356    90.045492      421.735    41.546447    -129.2467    21.598789   -231.83994   -166.37964      46.7237      46.7237      46.7237           90           90           90     102002.7    111.34491 
  543000       542500   -10646.567    887.50349   -11534.071    4189.0463   -15723.117    91.696652   -371.70589   -169.84653   -415.78098   -18.912893   -32.494237   -100.81682      46.7237      46.7237      46.7237           90           90           90     102002.7   -319.11113 
  544000       543500   -10665.299    862.52293   -11527.822    4162.4655   -15690.287    89.115666   -263.83672   -316.49612   -16.100152     69.03478   -88.477655   -167.88537      46.7237      46.7237      46.7237           90           90           90     102002.7     -198.811 
  545000       544500   -10643.864    895.11921   -11538.983    4156.6129   -15695.596    92.483506   -262.57864   -130.62756   -504.74298   -136.23525    208.75251   -58.992195      46.7237      46.7237      46.7237           90           90           90     102002.7   -299.31639 
  546000       545500   -10615.822    905.34835    -11521.17     4170.954   -15692.124    93.540379   -349.36689   -332.39032   -376.36333    216.07404    123.22242     167.0181      46.7237      46.7237      46.7237           90           90           90     102002.7   -352.70684 
  547000       546500   -10631.853    914.57698    -11546.43    4160.3718   -15706.802    94.493878   -69.526618   -65.220594   -299.77589   -129.37134    13.745119   -92.595893      46.7237      46.7237      46.7237           90           90           90     102002.7   -144.84103 
  548000       547500    -10646.14    886.70444   -11532.844    4153.3216   -15686.166    91.614095   -31.723684   -268.71989   -638.62888    109.99233    16.329206   -162.69935      46.7237      46.7237      46.7237           90           90           90     102002.7   -313.02415 
  549000       548500   -10671.269    871.97544   -11543.245    4161.9209   -15705.166    90.092297   -132.29408   -52.008048    14.869331   -253.02354    21.979676   -139.36818      46.7237      46.7237      46.7237           90           90           90     102002.7   -56.477597 
  550000       549500   -10657.729    889.37206   -11547.101    4148.4089    -15695.51    91.889713   -233.01202    34.952311    390.94348   -133.04775    120.05972    44.916475      46.7237      46.7237      46.7237           90           90           90     102002.7    64.294591 
  551000       550500    -10649.35    883.36013    -11532.71    4156.9456   -15689.656    91.268561   -409.49314   -205.97115   -23.519412    50.988579    49.477246    176.50658      46.7237      46.7237      46.7237           90           90           90     102002.7   -212.99457 
  552000       551500   -10640.717    893.91139   -11534.628    4173.8545   -15708.483    92.358715   -56.922904    64.249885    593.21725    99.752984    98.861541    113.88409      46.7237      46.7237      46.7237           90           90           90     102002.7    200.18141 
  553000       552500   -10645.997    873.76313   -11519.761    4177.6145   -15697.375    90.277002    7.0141607    115.86926   -51.744637   -21.269636   -135.90151   -140.01843      46.7237      46.7237      46.7237           90           90           90     102002.7    23.712927 
  554000       553500   -10684.408    870.53102    -11554.94    4146.1442   -15701.084     89.94306   -75.580832    286.73154    178.75526    10.014439    60.267447   -135.04603      46.7237      46.7237      46.7237           90           90           90     102002.7    129.96865 
  555000       554500   -10654.477    873.71662   -11528.193     4179.298   -15707.491    90.272196   -220.76896    136.75712   -230.15599    128.92795     144.3928    52.407151      46.7237      46.7237      46.7237           90           90           90     102002.7   -104.72261 
[...]
  936000       935500   -10628.548    906.06325   -11534.611    4167.6442   -15702.255    93.614242   -48.886259    -223.0456    -383.9008   -119.00135   -123.80573    77.323767      46.7237      46.7237      46.7237           90           90           90     102002.7   -218.61089 
  937000       936500   -10668.101    867.72498   -11535.826     4179.616   -15715.442     89.65314   -461.06749   -295.70956    114.55158   -93.603673    190.70018   -184.74144      46.7237      46.7237      46.7237           90           90           90     102002.7   -214.07515 
  938000       937500   -10620.904    882.21034   -11503.114    4195.0002   -15698.114    91.149765   -126.31083    55.606207   -29.003835    18.749385   -128.89026   -68.063658      46.7237      46.7237      46.7237           90           90           90     102002.7   -33.236154 
  939000       938500   -10666.461    876.74279   -11543.204    4184.8291   -15728.033    90.584859   -45.357391    44.437966    187.00722    172.44611    222.26552   -38.220628      46.7237      46.7237      46.7237           90           90           90     102002.7    62.029266 
  940000       939500   -10680.523    869.56869   -11550.092    4145.5158   -15695.607    89.843632   -314.00532    182.51723   -35.100425   -36.408083   -318.31606   -101.10694      46.7237      46.7237      46.7237           90           90           90     102002.7   -55.529504 
  941000       940500   -10612.781    883.52188   -11496.302    4189.4135   -15685.716    91.285273   -174.08273    162.07179    303.61163    73.541534    97.417689    35.069433      46.7237      46.7237      46.7237           90           90           90     102002.7    97.200232 
  942000       941500   -10644.636    886.64504   -11531.281    4180.4696   -15711.751    91.607957    122.68807   -24.843806    52.210042   -57.855353    119.80362    182.06802      46.7237      46.7237      46.7237           90           90           90     102002.7    50.018103 
  943000       942500   -10675.682    854.70533   -11530.387    4171.2366   -15701.624    88.307954   -274.62245   -154.44186   -518.74156     85.13527    99.371912    69.867125      46.7237      46.7237      46.7237           90           90           90     102002.7   -315.93529 
  944000       943500   -10628.704    896.52169   -11525.225    4173.7589   -15698.984     92.62841   -28.835096   -180.80224    309.58373   -94.430065    264.39602    104.87056      46.7237      46.7237      46.7237           90           90           90     102002.7    33.315467 
  945000       944500   -10675.115    865.07781   -11540.193    4175.5143   -15715.707    89.379636    -42.97611   -10.872166    108.85939    18.603743   -27.580152   -10.356582      46.7237      46.7237      46.7237           90           90           90     102002.7    18.337037 
  946000       945500   -10657.366    892.82859   -11550.195    4176.9006   -15727.096     92.24684   -421.96097   -670.39042   -247.26519    116.16618    88.802699   -85.258438      46.7237      46.7237      46.7237           90           90           90     102002.7   -446.53886 
  947000       946500   -10649.018    875.31456   -11524.333    4170.9922   -15695.325    90.437295   -364.54445     170.9471   -124.58848   -5.7100607    58.767545    -17.23643      46.7237      46.7237      46.7237           90           90           90     102002.7   -106.06194 
  948000       947500   -10643.106    894.57834   -11537.685    4176.5686   -15714.253    92.427624   -532.41782   -274.64731    141.61143    104.13323    65.328453   -35.399887      46.7237      46.7237      46.7237           90           90           90     102002.7    -221.8179 
  949000       948500   -10668.868    869.20788   -11538.076     4155.308   -15693.384    89.806354   -160.10099   -468.62988    2.2821995    110.57905    22.108036    30.090793      46.7237      46.7237      46.7237           90           90           90     102002.7   -208.81622 
  950000       949500   -10658.089    880.83971   -11538.929      4144.73   -15683.659    91.008152    -114.9505    290.49061    107.50525   -139.61461   -16.282439    29.376302      46.7237      46.7237      46.7237           90           90           90     102002.7    94.348451 
  951000       950500   -10644.433    886.86341   -11531.297    4180.3044   -15711.601    91.630519   -152.76072   -316.21852   -5.2202067   -10.113973   -167.31122   -44.991492      46.7237      46.7237      46.7237           90           90           90     102002.7   -158.06648 
  952000       951500   -10667.156     855.0729   -11522.229    4191.7137   -15713.943    88.345931   -271.30807    6.3996826   -367.00263   -77.175084   -28.531787   -38.213695      46.7237      46.7237      46.7237           90           90           90     102002.7     -210.637 
  953000       952500   -10656.019    863.61664   -11519.635    4173.9965   -15693.632    89.228669   -28.881783    473.62074    20.828188   -2.1153435   -77.985499    143.05016      46.7237      46.7237      46.7237           90           90           90     102002.7    155.18905 
  954000       953500   -10651.919    881.71785   -11533.637    4170.7105   -15704.347    91.098881   -11.990563   -128.58203   -21.302758    69.240642    304.27123    87.669007      46.7237      46.7237      46.7237           90           90           90     102002.7   -53.958451 
  955000       954500   -10678.597    885.06856   -11563.666    4144.7525   -15708.418    91.445076   -183.84944   -375.60566   -153.76591     -47.6642   -166.76328   -108.93255      46.7237      46.7237      46.7237           90           90           90     102002.7   -237.74033 
  956000       955500   -10617.245    911.08763   -11528.333     4155.051   -15683.384     94.13336   -439.58159    270.37355    193.81056   -92.696968   -65.038293    20.365212      46.7237      46.7237      46.7237           90           90           90     102002.7    8.2008409 
  957000       956500   -10657.483    885.15877   -11542.642      4159.42   -15702.062    91.454396    -382.7088   -257.71179    91.996125   -26.657818     -91.2745   -84.845046      46.7237      46.7237      46.7237           90           90           90     102002.7   -182.80815 
  958000       957500   -10631.802    888.53347   -11520.335    4177.3715   -15697.707    91.803069    10.924277   -342.49097   -391.63388   -39.452025    22.854012    255.65409      46.7237      46.7237      46.7237           90           90           90     102002.7   -241.06686 
  959000       958500   -10665.971    878.22877   -11544.199    4159.8681   -15704.068     90.73839   -404.95504    -25.55631    259.07367   -6.9230831    386.56934     134.9402      46.7237      46.7237      46.7237           90           90           90     102002.7   -57.145893 
  960000       959500   -10669.046    887.00576   -11556.052    4149.6306   -15705.682    91.645227   -381.44693   -397.71561   -228.59358   -129.98694      55.2276    166.62605      46.7237      46.7237      46.7237           90           90           90     102002.7    -335.9187 
  961000       960500   -10656.666    882.77378    -11539.44    4165.2774   -15704.717    91.207979   -439.65444   -167.89112   -720.80825    40.349506   -31.299539    30.241413      46.7237      46.7237      46.7237           90           90           90     102002.7   -442.78461 
  962000       961500   -10666.962      874.008    -11540.97    4167.6185   -15708.588    90.302301   -740.51168   -405.10179    -307.9748   -14.759893   -5.0665482   -65.307556      46.7237      46.7237      46.7237           90           90           90     102002.7   -484.52942 
  963000       962500   -10666.672    883.97894   -11550.651    4169.6919   -15720.343    91.332497    -604.7972   -522.57453   -289.25711    262.19426   -107.59545    134.78772      46.7237      46.7237      46.7237           90           90           90     102002.7   -472.20962 
  964000       963500   -10640.608    888.21173   -11528.819    4186.4664   -15715.286    91.769827   -597.35385    2.2881332   -280.22255    125.28015     359.8617    42.769637      46.7237      46.7237      46.7237           90           90           90     102002.7   -291.76276 
  965000       964500   -10683.285    865.76064   -11549.046    4167.5152   -15716.561    89.450185    -747.8348    135.41035   -778.32575   -197.90434   -97.617221   -97.824849      46.7237      46.7237      46.7237           90           90           90     102002.7    -463.5834 
  966000       965500   -10637.348    888.10902   -11525.457    4171.4363   -15696.894    91.759215     -675.987   -22.060092   -161.13291   -62.372002    -12.94821   -136.64839      46.7237      46.7237      46.7237           90           90           90     102002.7   -286.39333 
  967000       966500   -10615.002    904.83029   -11519.833    4171.3097   -15691.142    93.486853    -225.1164   -396.34447   -315.22574   -164.23603     20.36412    86.360493      46.7237      46.7237      46.7237           90           90           90     102002.7   -312.22887 
  968000       967500   -10684.396    861.62084   -11546.016    4153.2758   -15699.292    89.022462   -41.604667    93.017428    220.88842    128.95573    125.61881    -41.79333      46.7237      46.7237      46.7237           90           90           90     102002.7    90.767062 
  969000       968500   -10683.913    864.20744    -11548.12    4161.0772   -15709.197    89.289709   -52.683621   -380.88655   -72.331639    108.83517    50.191377   -219.61341      46.7237      46.7237      46.7237           90           90           90     102002.7   -168.63394 
  970000       969500   -10650.116    890.55264   -11540.669    4166.1344   -15706.803     92.01169   -99.845052    235.54847   -158.04494   -71.601784   -247.13085   -109.04383      46.7237      46.7237      46.7237           90           90           90     102002.7   -7.4471743 
  971000       970500   -10641.276    904.27219   -11545.549    4164.7572   -15710.306     93.42919   -418.56416   -96.016584    405.45291   -281.53873   -161.00551   -142.30968      46.7237      46.7237      46.7237           90           90           90     102002.7   -36.375946 
  972000       971500    -10662.96     866.3921   -11529.352    4167.8643   -15697.217    89.515428    -191.7644   -528.89507   -123.63985   -224.80708     -25.6375    93.257081      46.7237      46.7237      46.7237           90           90           90     102002.7   -281.43311 
  973000       972500   -10661.978    864.97626   -11526.954    4173.1053   -15700.059    89.369144   -216.47568   -94.055013   -272.92034    247.10751    248.91507    -153.3373      46.7237      46.7237      46.7237           90           90           90     102002.7   -194.48368 
  974000       973500   -10637.512     887.9121   -11525.424    4185.4756     -15710.9    91.738869   -528.06807   -406.88767   -261.75585   -84.001833    157.93727    30.370107      46.7237      46.7237      46.7237           90           90           90     102002.7   -398.90386 
  975000       974500   -10660.605    877.85489    -11538.46    4168.1169   -15706.577    90.699761      -681.49   -305.01816   -227.69767    158.97814   -310.05961   -102.09763      46.7237      46.7237      46.7237           90           90           90     102002.7   -404.73528 
  976000       975500   -10680.731    875.60889    -11556.34    4165.6224   -15721.962    90.467705   -557.38797   -285.73912   -335.97747    12.318965    67.194054    -46.09937      46.7237      46.7237      46.7237           90           90           90     102002.7   -393.03485 
  977000       976500   -10648.971    885.10809   -11534.079    4180.4178   -15714.497    91.449159   -249.15994    717.00674   -502.84734   -26.049201    90.140721    111.09437      46.7237      46.7237      46.7237           90           90           90     102002.7   -11.666849 
  978000       977500   -10648.862    894.38551   -11543.248    4170.2984   -15713.546      92.4077   -383.51673   -339.68041   -55.301427   -176.92084    248.55153      32.4896      46.7237      46.7237      46.7237           90           90           90     102002.7   -259.49952 
  979000       978500   -10671.504    871.22217   -11542.726    4182.8495   -15725.576     90.01447    -296.3662   -29.944021   -396.75948    -197.0301    158.59566   -51.813182      46.7237      46.7237      46.7237           90           90           90     102002.7   -241.02323 
  980000       979500   -10644.471    900.80711   -11545.278    4139.6372   -15684.915    93.071179   -539.14362    14.976394   -92.254999    1.0598011   -161.82525   -81.600087      46.7237      46.7237      46.7237           90           90           90     102002.7   -205.47408 
  981000       980500   -10664.448     869.3846   -11533.833    4188.1532   -15721.986    89.824613   -314.84687     -79.1481   -227.36367   -38.968343    68.403142   -163.07665      46.7237      46.7237      46.7237           90           90           90     102002.7   -207.11955 
  982000       981500   -10605.281    906.15848    -11511.44    4180.9012   -15692.341    93.624082    400.83638     6.619497   -412.33767   -17.886039    185.71966    28.764989      46.7237      46.7237      46.7237           90           90           90     102002.7   -1.6272652 
  983000       982500   -10690.319    874.35239   -11564.672    4166.5088    -15731.18    90.337883   -456.73806    -147.3764   -173.86106   -78.625144    204.02023    260.82612      46.7237      46.7237      46.7237           90           90           90     102002.7   -259.32517 
  984000       983500   -10654.597    872.07525   -11526.672    4169.9251   -15696.597     90.10261   -20.331886   -102.06057    265.41206   -1.5845033   -4.7341995   -169.44721      46.7237      46.7237      46.7237           90           90           90     102002.7    47.673199 
  985000       984500   -10644.864    882.88767   -11527.751    4170.4202   -15698.171    91.219747    -317.4859    513.71291    109.45215    151.63809   -121.31785    66.001645      46.7237      46.7237      46.7237           90           90           90     102002.7    101.89305 
  986000       985500   -10644.324    874.87298   -11519.197    4186.1672   -15705.364    90.391671    189.93815    -207.1112    73.872818    157.11689   -59.476546   -50.927388      46.7237      46.7237      46.7237           90           90           90     102002.7    18.899923 
  987000       986500   -10657.543     888.2529   -11545.796    4155.1715   -15700.967    91.774081   -406.24431   0.28078529   -118.34863   -50.703715    171.36658   -70.571033      46.7237      46.7237      46.7237           90           90           90     102002.7   -174.77072 
  988000       987500   -10634.843    883.63961   -11518.482    4190.0796   -15708.562    91.297437   -81.984765   -480.59822   -558.08247   -103.37107     20.83315   -7.7875866      46.7237      46.7237      46.7237           90           90           90     102002.7   -373.55515 
  989000       988500   -10669.099    860.67658   -11529.776    4171.4577   -15701.234    88.924902   -352.47337   -258.55231   -85.900755   -54.223425   -36.458339   -22.868105      46.7237      46.7237      46.7237           90           90           90     102002.7   -232.30881 
  990000       989500   -10661.828    874.91776   -11536.746    4176.2439    -15712.99    90.396297   -452.37063   -245.73249   -199.65897    51.867093    57.619089   -367.93378      46.7237      46.7237      46.7237           90           90           90     102002.7   -299.25403 
  991000       990500   -10665.513     875.7252   -11541.238     4157.864   -15699.103    90.479722   -105.40464   -389.35685   -261.98097    11.797379    171.49549   -30.631791      46.7237      46.7237      46.7237           90           90           90     102002.7   -252.24749 
  992000       991500   -10683.931    848.11789   -11532.049    4154.7765   -15686.826    87.627341    68.702284    52.324018    88.375511    72.310569    396.83358   -225.69433      46.7237      46.7237      46.7237           90           90           90     102002.7    69.800604 
  993000       992500   -10659.727    888.61739   -11548.344    4144.4706   -15692.814     91.81174   -414.65102    316.13968    239.11218   -153.48863    203.10561   -87.851662      46.7237      46.7237      46.7237           90           90           90     102002.7     46.86695 
  994000       993500   -10640.624    890.38006   -11531.004    4180.9485   -15711.952    91.993858    -207.9167   -218.17254   -156.52101   -182.52821    -164.7872   -121.42677      46.7237      46.7237      46.7237           90           90           90     102002.7   -194.20342 
  995000       994500   -10612.976    894.74482    -11507.72    4164.6346   -15672.355    92.444824   -294.05982    205.61756   -77.550674   -112.80281    77.913659   -166.36502      46.7237      46.7237      46.7237           90           90           90     102002.7   -55.330978 
  996000       995500   -10659.335    882.78531   -11542.121    4165.3225   -15707.443    91.209171   -389.65819    42.557919    22.542272    52.382055   -120.43435    58.547922      46.7237      46.7237      46.7237           90           90           90     102002.7     -108.186 
  997000       996500   -10673.492    868.90749   -11542.399    4164.5471   -15706.947    89.775317   -583.55273   -444.92763   -10.518951   -175.05068    103.99777   -172.94286      46.7237      46.7237      46.7237           90           90           90     102002.7    -346.3331 
  998000       997500   -10695.389     861.0716    -11556.46    4158.6928   -15715.153    88.965715   -119.09911   -258.37996    80.002734     54.85129     195.2387   -4.1359601      46.7237      46.7237      46.7237           90           90           90     102002.7   -99.158777 
  999000       998500   -10657.995    865.94926   -11523.945    4173.9834   -15697.928    89.469674   -244.65474    -41.00778   -386.57215    8.8609519   -3.5538892   -34.221225      46.7237      46.7237      46.7237           90           90           90     102002.7   -224.07822 
 1000000       999500   -10645.671    879.77698   -11525.448    4178.3327   -15703.781    90.898351   -587.24669   -201.46504    -501.4886    68.617013   -118.22821   -334.05681      46.7237      46.7237      46.7237           90           90           90     102002.7   -430.06678 
 1000500      1000000    -10650.11    882.21876   -11532.329    4187.6919   -15720.021    91.150635   -323.75834    -682.3536   -285.37476    23.356852    66.257849  -0.99395308      46.7237      46.7237      46.7237           90           90           90     102002.7   -430.49556 
Loop time of 2340 on 16 procs for 500000 steps with 3248 atoms

Performance: 18.462 ns/day, 1.300 hours/ns, 213.675 timesteps/s
99.8% CPU use with 16 MPI tasks x no OpenMP threads

MPI task timing breakdown:
Section |  min time  |  avg time  |  max time  |%varavg| %total
---------------------------------------------------------------
Pair    | 1151.5     | 1491.5     | 1902.1     | 482.9 | 63.74
Bond    | 81.538     | 183.91     | 280.46     | 442.9 |  7.86
Neigh   | 15.321     | 15.363     | 15.4       |   0.6 |  0.66
Comm    | 110.46     | 615.05     | 1054.5     | 965.9 | 26.28
Output  | 0.13806    | 0.14474    | 0.14532    |   0.5 |  0.01
Modify  | 24.287     | 26.873     | 29.544     |  37.3 |  1.15
Other   |            | 7.191      |            |       |  0.31

Nlocal:    203 ave 248 max 149 min
Histogram: 1 1 3 1 1 2 1 0 4 2
Nghost:    4102.56 ave 4160 max 4057 min
Histogram: 3 1 2 1 2 1 3 2 0 1
Neighs:    11460.2 ave 14691 max 7318 min
Histogram: 2 0 0 2 2 3 2 2 1 2

Total # of neighbors = 183363
Ave neighs/atom = 56.4541
Ave special neighs/atom = 3.5468
Neighbor list builds = 4136
Dangerous builds = 0
Total wall time: 1:10:22
