LAMMPS (30 Mar 2018)
Reading data file ...
  orthogonal box = (0 0 0) to (46.7237 46.7237 46.7237)
  2 by 3 by 4 MPI processor grid
  reading atoms ...
  1748 atoms
  scanning bonds ...
  5 = max bonds/atom
  scanning angles ...
  10 = max angles/atom
  scanning dihedrals ...
  32 = max dihedrals/atom
  scanning impropers ...
  3 = max impropers/atom
  reading bonds ...
  2064 bonds
  reading angles ...
  3696 angles
  reading dihedrals ...
  6240 dihedrals
  reading impropers ...
  1008 impropers
Finding 1-2 1-3 1-4 neighbors ...
  special bond factors lj:   0          0          0         
  special bond factors coul: 0          0          0         
  5 = max # of 1-2 neighbors
  8 = max # of 1-3 neighbors
  20 = max # of 1-4 neighbors
  19 = max # of special neighbors
Finding 1-2 1-3 1-4 neighbors ...
  special bond factors lj:   0          0          1         
  special bond factors coul: 1          1          1         
  5 = max # of 1-2 neighbors
  8 = max # of 1-3 neighbors
  19 = max # of special neighbors
WARNING: Using 'neigh_modify every 1 delay 0 check yes' setting during minimization (../min.cpp:168)
Neighbor list info ...
  update every 1 steps, delay 0 steps, check yes
  max neighbors/atom: 2000, page size: 100000
  master list distance cutoff = 16
  ghost atom cutoff = 16
  binsize = 8, bins = 6 6 6
  3 neighbor lists, perpetual/occasional/extra = 3 0 0
  (1) pair buck6d/coul/gauss/dsf, perpetual, skip from (3)
      attributes: half, newton on
      pair build: skip
      stencil: none
      bin: none
  (2) pair lj/cut, perpetual, skip from (3)
      attributes: half, newton on
      pair build: skip
      stencil: none
      bin: none
  (3) neighbor class addition, perpetual
      attributes: half, newton on
      pair build: half/bin/newton
      stencil: half/bin/3d/newton
      bin: standard
Setting up cg style minimization ...
  Unit style    : real
  Current step  : 0
WARNING: Inconsistent image flags (../domain.cpp:786)
Per MPI rank memory allocation (min/avg/max) = 22.87 | 23.28 | 24.42 Mbytes
Step Temp E_pair E_mol TotEng Press 
       0            0   -11569.866    6482.8914   -5086.9743    6258.9514 
     504            0   -11596.506    3736.3707   -7860.1356    -498.1946 
Loop time of 1.27104 on 24 procs for 504 steps with 1748 atoms

99.8% CPU use with 24 MPI tasks x no OpenMP threads

Minimization stats:
  Stopping criterion = max force evaluations
  Energy initial, next-to-last, final = 
        -5086.97429319      -7860.1213344      -7860.1356491
  Force two-norm initial, final = 2576.85 5.60091
  Force max component initial, final = 151.977 0.883458
  Final line search alpha, max atom move = 0.0171214 0.015126
  Iterations, force evaluations = 504 1001

MPI task timing breakdown:
Section |  min time  |  avg time  |  max time  |%varavg| %total
---------------------------------------------------------------
Pair    | 0.47876    | 0.61188    | 0.81878    |  12.2 | 48.14
Bond    | 0.12192    | 0.15741    | 0.18419    |   4.3 | 12.38
Neigh   | 0.0068543  | 0.0071202  | 0.0076092  |   0.3 |  0.56
Comm    | 0.26505    | 0.47336    | 0.61052    |  14.3 | 37.24
Output  | 0          | 0          | 0          |   0.0 |  0.00
Modify  | 0          | 0          | 0          |   0.0 |  0.00
Other   |            | 0.02127    |            |       |  1.67

Nlocal:    72.8333 ave 88 max 51 min
Histogram: 2 1 2 3 1 2 2 5 2 4
Nghost:    1983.42 ave 2162 max 1888 min
Histogram: 14 2 0 0 0 0 0 0 1 7
Neighs:    7628.79 ave 11428 max 3605 min
Histogram: 2 1 1 5 4 3 2 0 2 4

Total # of neighbors = 183091
Ave neighs/atom = 104.743
Ave special neighs/atom = 6.59039
Neighbor list builds = 12
Dangerous builds = 0
Neighbor list info ...
  update every 1 steps, delay 10 steps, check yes
  max neighbors/atom: 2000, page size: 100000
  master list distance cutoff = 16
  ghost atom cutoff = 16
  binsize = 8, bins = 6 6 6
  3 neighbor lists, perpetual/occasional/extra = 3 0 0
  (1) pair buck6d/coul/gauss/dsf, perpetual, skip from (3)
      attributes: half, newton on
      pair build: skip
      stencil: none
      bin: none
  (2) pair lj/cut, perpetual, skip from (3)
      attributes: half, newton on
      pair build: skip
      stencil: none
      bin: none
  (3) neighbor class addition, perpetual
      attributes: half, newton on
      pair build: half/bin/newton
      stencil: half/bin/3d/newton
      bin: standard
Setting up Verlet run ...
  Unit style    : real
  Current step  : 504
  Time step     : 1
WARNING: Inconsistent image flags (../domain.cpp:786)
Per MPI rank memory allocation (min/avg/max) = 22.52 | 22.72 | 23.31 Mbytes
Step Temp PotEng TotEng Press Volume Lx Ly Lz 
     504          110   -7860.1356   -7287.3134   -241.48562     102002.7      46.7237      46.7237      46.7237 
    1000    100.14445   -7368.7373   -6847.2376   -815.97108     102002.7      46.7237      46.7237      46.7237 
    2000    109.77877   -7257.0662    -6685.396   -618.11416     102002.7      46.7237      46.7237      46.7237 
    3000    104.34359   -7263.7407    -6720.374   -1027.6812     102002.7      46.7237      46.7237      46.7237 
    4000     109.2488   -7282.1788   -6713.2684   -443.73087     102002.7      46.7237      46.7237      46.7237 
    5000    109.83647   -7271.2058   -6699.2351   -758.71497     102002.7      46.7237      46.7237      46.7237 
    6000    110.52823   -7295.1667   -6719.5937     -604.307     102002.7      46.7237      46.7237      46.7237 
    7000    111.36724   -7285.3471    -6705.405    -571.0922     102002.7      46.7237      46.7237      46.7237 
    8000    111.69354   -7282.3033    -6700.662   -546.99573     102002.7      46.7237      46.7237      46.7237 
    9000    110.13499   -7266.8617   -6693.3365   -732.31224     102002.7      46.7237      46.7237      46.7237 
   10000    108.66202   -7288.9495   -6723.0947   -450.70105     102002.7      46.7237      46.7237      46.7237 
   11000    110.64465   -7269.0949   -6692.9157   -572.72373     102002.7      46.7237      46.7237      46.7237 
   12000     109.7707   -7293.2354   -6721.6073   -588.04734     102002.7      46.7237      46.7237      46.7237 
   13000    108.47496   -7260.4148   -6695.5342   -642.87384     102002.7      46.7237      46.7237      46.7237 
   14000    109.81334   -7271.6011   -6699.7508   -957.53953     102002.7      46.7237      46.7237      46.7237 
   15000     108.6252   -7264.5689   -6698.9059   -494.38838     102002.7      46.7237      46.7237      46.7237 
   16000    105.49619   -7264.2015   -6714.8327   -726.92502     102002.7      46.7237      46.7237      46.7237 
   17000    110.65225   -7278.1698    -6701.951   -861.08666     102002.7      46.7237      46.7237      46.7237 
   18000    105.79018   -7284.6967    -6733.797   -596.03445     102002.7      46.7237      46.7237      46.7237 
   19000    112.12562   -7277.7343   -6693.8429   -695.30228     102002.7      46.7237      46.7237      46.7237 
   20000    110.87574   -7258.3173   -6680.9346   -614.00713     102002.7      46.7237      46.7237      46.7237 
   21000    112.25259   -7285.5699   -6701.0173   -961.93576     102002.7      46.7237      46.7237      46.7237 
   22000    109.60442   -7256.5027   -6685.7404   -747.18278     102002.7      46.7237      46.7237      46.7237 
   23000    108.48482   -7285.5416   -6720.6096   -727.93713     102002.7      46.7237      46.7237      46.7237 
   24000     108.1816   -7270.6117   -6707.2586   -615.97371     102002.7      46.7237      46.7237      46.7237 
   25000    113.04449   -7273.3758   -6684.6994   -624.27939     102002.7      46.7237      46.7237      46.7237 
   26000    110.07382   -7262.8447    -6689.638   -282.04513     102002.7      46.7237      46.7237      46.7237 
   27000    111.82211   -7284.7956   -6702.4847   -618.64578     102002.7      46.7237      46.7237      46.7237 
   28000    111.51464    -7274.111   -6693.4013   -872.76006     102002.7      46.7237      46.7237      46.7237 
   29000    115.09992   -7288.7962   -6689.4162   -535.39507     102002.7      46.7237      46.7237      46.7237 
   30000    108.99826   -7286.7891   -6719.1833   -684.42307     102002.7      46.7237      46.7237      46.7237 
   31000    107.61925   -7273.8178   -6713.3932   -365.72931     102002.7      46.7237      46.7237      46.7237 
   32000     111.5827   -7267.0681   -6686.0039    -710.4689     102002.7      46.7237      46.7237      46.7237 
   33000     111.9871   -7274.8078   -6691.6378   -740.55111     102002.7      46.7237      46.7237      46.7237 
   34000    108.25912   -7270.6843   -6706.9276   -720.19665     102002.7      46.7237      46.7237      46.7237 
   35000    109.87599   -7265.4181   -6693.2417   -896.70831     102002.7      46.7237      46.7237      46.7237 
   36000    112.56316   -7298.5557   -6712.3858   -842.08235     102002.7      46.7237      46.7237      46.7237 
   37000     112.1963   -7272.9743   -6688.7149   -720.35559     102002.7      46.7237      46.7237      46.7237 
   38000    110.26161   -7273.2498   -6699.0652   -883.44186     102002.7      46.7237      46.7237      46.7237 
   39000    109.43633   -7285.0957   -6715.2087   -720.67079     102002.7      46.7237      46.7237      46.7237 
   40000    110.91233   -7269.5686   -6691.9953   -898.09858     102002.7      46.7237      46.7237      46.7237 
   41000    109.51793   -7285.3387   -6715.0268   -856.57557     102002.7      46.7237      46.7237      46.7237 
   42000    107.25697   -7284.3322   -6725.7942   -780.97833     102002.7      46.7237      46.7237      46.7237 
   43000    110.54304   -7269.0869   -6693.4367   -1043.7666     102002.7      46.7237      46.7237      46.7237 
   44000    111.63056   -7290.9798   -6709.6664   -887.24237     102002.7      46.7237      46.7237      46.7237 
   45000    108.90332   -7271.4936   -6704.3823   -877.03018     102002.7      46.7237      46.7237      46.7237 
   46000    111.55276   -7260.2536   -6679.3454   -796.55168     102002.7      46.7237      46.7237      46.7237 
   47000    110.15503   -7262.3838   -6688.7542   -680.29079     102002.7      46.7237      46.7237      46.7237 
   48000    111.20651   -7281.7897   -6702.6846   -635.82513     102002.7      46.7237      46.7237      46.7237 
   49000    107.67617   -7273.2217   -6712.5007   -704.50492     102002.7      46.7237      46.7237      46.7237 
   50000    109.13636   -7263.6412   -6695.3163   -986.79352     102002.7      46.7237      46.7237      46.7237 
   51000     108.1905   -7284.8428   -6721.4435   -548.71754     102002.7      46.7237      46.7237      46.7237 
   52000    111.50797   -7278.6495   -6697.9745   -708.27856     102002.7      46.7237      46.7237      46.7237 
   53000    108.55883   -7278.9535   -6713.6361   -493.24825     102002.7      46.7237      46.7237      46.7237 
   54000    108.88485   -7295.2258   -6728.2107   -637.24691     102002.7      46.7237      46.7237      46.7237 
   55000    112.92359   -7283.4102   -6695.3634   -707.59479     102002.7      46.7237      46.7237      46.7237 
   56000    112.32887   -7268.8916   -6683.9418   -564.17268     102002.7      46.7237      46.7237      46.7237 
   57000    114.72228   -7276.9672   -6679.5538   -913.78602     102002.7      46.7237      46.7237      46.7237 
   58000    109.55173   -7292.0224   -6721.5345   -654.98632     102002.7      46.7237      46.7237      46.7237 
   59000    110.83476   -7280.8818   -6703.7125   -706.96034     102002.7      46.7237      46.7237      46.7237 
   60000    110.86301   -7258.1221   -6680.8058   -892.94256     102002.7      46.7237      46.7237      46.7237 
   61000    105.77641   -7264.0591   -6713.2311   -787.28541     102002.7      46.7237      46.7237      46.7237 
   62000    108.63713   -7260.9116   -6695.1864   -661.28546     102002.7      46.7237      46.7237      46.7237 
   63000    109.06722   -7286.3438    -6718.379   -606.69746     102002.7      46.7237      46.7237      46.7237 
   64000    111.56793   -7279.1067   -6698.1195   -780.54114     102002.7      46.7237      46.7237      46.7237 
   65000     111.6645   -7276.8825   -6695.3924   -552.35212     102002.7      46.7237      46.7237      46.7237 
   66000    107.16191   -7273.5242   -6715.4812   -676.02952     102002.7      46.7237      46.7237      46.7237 
   67000    108.43132   -7268.6359   -6703.9825   -737.57813     102002.7      46.7237      46.7237      46.7237 
   68000    113.29967   -7274.5276   -6684.5224   -490.41856     102002.7      46.7237      46.7237      46.7237 
   69000    111.84548    -7299.408   -6716.9754   -563.12331     102002.7      46.7237      46.7237      46.7237 
   70000    109.77013   -7271.3811   -6699.7559   -433.98746     102002.7      46.7237      46.7237      46.7237 
   71000     109.0847    -7276.928   -6708.8721   -575.73433     102002.7      46.7237      46.7237      46.7237 
   72000    110.96732   -7292.9103   -6715.0507   -561.83177     102002.7      46.7237      46.7237      46.7237 
   73000    107.70136   -7273.6266   -6712.7744   -504.50363     102002.7      46.7237      46.7237      46.7237 
   74000    105.48705   -7289.3681   -6740.0469   -542.14656     102002.7      46.7237      46.7237      46.7237 
   75000    107.18393   -7254.9593   -6696.8016   -822.10397     102002.7      46.7237      46.7237      46.7237 
   76000    105.48443   -7299.2524   -6749.9449   -560.05167     102002.7      46.7237      46.7237      46.7237 
   77000    111.56383   -7274.7066   -6693.7407   -669.25839     102002.7      46.7237      46.7237      46.7237 
   78000    106.88895   -7291.2333   -6734.6118    -597.5761     102002.7      46.7237      46.7237      46.7237 
   79000    111.52269   -7288.8237    -6708.072   -822.52861     102002.7      46.7237      46.7237      46.7237 
   80000    111.16333   -7282.1435   -6703.2632    -825.6556     102002.7      46.7237      46.7237      46.7237 
   81000    107.87078   -7267.4578   -6705.7234   -892.25396     102002.7      46.7237      46.7237      46.7237 
   82000    113.99273   -7288.8135   -6695.1992    -790.5754     102002.7      46.7237      46.7237      46.7237 
   83000    108.15432   -7275.8518   -6712.6409   -784.92068     102002.7      46.7237      46.7237      46.7237 
   84000    112.26949   -7282.0639   -6697.4233   -940.01362     102002.7      46.7237      46.7237      46.7237 
   85000    109.25794   -7264.6283   -6695.6702   -911.09202     102002.7      46.7237      46.7237      46.7237 
   86000    110.77684   -7286.3725   -6709.5049   -639.56748     102002.7      46.7237      46.7237      46.7237 
   87000    111.72892   -7279.3683   -6697.5428   -718.85174     102002.7      46.7237      46.7237      46.7237 
   88000    110.58596   -7277.3259   -6701.4522   -754.68516     102002.7      46.7237      46.7237      46.7237 
   89000    110.96578   -7271.6759   -6693.8244   -913.77599     102002.7      46.7237      46.7237      46.7237 
   90000    113.40603   -7297.3559   -6706.7968   -970.12373     102002.7      46.7237      46.7237      46.7237 
   91000    106.82396   -7280.7846   -6724.5015   -896.39282     102002.7      46.7237      46.7237      46.7237 
   92000    113.64965   -7280.4361   -6688.6083   -1096.8578     102002.7      46.7237      46.7237      46.7237 
   93000    111.00097   -7286.1852   -6708.1504   -726.34408     102002.7      46.7237      46.7237      46.7237 
   94000     115.2015   -7260.4318   -6660.5228   -438.25866     102002.7      46.7237      46.7237      46.7237 
   95000    110.01545   -7271.7566   -6698.8538   -725.97642     102002.7      46.7237      46.7237      46.7237 
   96000    107.53245   -7279.0525     -6719.08    -709.7403     102002.7      46.7237      46.7237      46.7237 
   97000    112.43504   -7275.1723   -6689.6696   -608.40773     102002.7      46.7237      46.7237      46.7237 
   98000     108.5289   -7285.6764   -6720.5149   -666.65839     102002.7      46.7237      46.7237      46.7237 
   99000    107.82812   -7268.4404   -6706.9281    -757.8521     102002.7      46.7237      46.7237      46.7237 
  100000    112.88252   -7283.1724   -6695.3395   -529.52713     102002.7      46.7237      46.7237      46.7237 
  101000    113.39459    -7276.115   -6685.6154   -870.04292     102002.7      46.7237      46.7237      46.7237 
  102000    108.09293   -7288.4539   -6725.5627   -643.13171     102002.7      46.7237      46.7237      46.7237 
  103000    111.37985   -7254.7835   -6674.7757   -717.34653     102002.7      46.7237      46.7237      46.7237 
  104000    107.42414   -7265.0385   -6705.6299   -743.43387     102002.7      46.7237      46.7237      46.7237 
  105000     113.2493   -7280.4059    -6690.663   -490.53605     102002.7      46.7237      46.7237      46.7237 
  106000    106.43696   -7274.3922   -6720.1244   -599.43706     102002.7      46.7237      46.7237      46.7237 
  107000    110.60698   -7294.5452   -6718.5621   -697.02669     102002.7      46.7237      46.7237      46.7237 
  108000    115.40378     -7277.39   -6676.4276   -789.57761     102002.7      46.7237      46.7237      46.7237 
  109000     109.8359   -7270.9036   -6698.9358   -839.33466     102002.7      46.7237      46.7237      46.7237 
  110000    109.98188    -7285.801   -6713.0731   -454.44194     102002.7      46.7237      46.7237      46.7237 
  111000    114.61286   -7263.0529   -6666.2092   -865.27632     102002.7      46.7237      46.7237      46.7237 
  112000    109.21776   -7272.8852   -6704.1364   -745.85564     102002.7      46.7237      46.7237      46.7237 
  113000    110.21295   -7256.7923   -6682.8611    -810.2136     102002.7      46.7237      46.7237      46.7237 
  114000    110.01585   -7261.8893   -6688.9845   -696.75029     102002.7      46.7237      46.7237      46.7237 
  115000    105.51398   -7273.2421   -6723.7807   -764.86793     102002.7      46.7237      46.7237      46.7237 
  116000    110.74367   -7268.5164   -6691.8215   -834.08036     102002.7      46.7237      46.7237      46.7237 
  117000    106.78536   -7269.6406   -6713.5584   -948.90566     102002.7      46.7237      46.7237      46.7237 
  118000    109.24358   -7281.2679   -6712.3847   -624.25863     102002.7      46.7237      46.7237      46.7237 
  119000    113.65989    -7272.595   -6680.7139   -778.58187     102002.7      46.7237      46.7237      46.7237 
  120000    110.36171   -7281.3227   -6706.6168   -638.27114     102002.7      46.7237      46.7237      46.7237 
  121000      112.554   -7278.4683   -6692.3462   -765.56908     102002.7      46.7237      46.7237      46.7237 
  122000    108.68497    -7277.314   -6711.3397   -834.33678     102002.7      46.7237      46.7237      46.7237 
  123000     109.3341   -7278.2046     -6708.85   -632.12955     102002.7      46.7237      46.7237      46.7237 
  124000    109.73605   -7273.4929   -6702.0452   -1099.7233     102002.7      46.7237      46.7237      46.7237 
  125000    111.24787   -7257.1079   -6677.7874   -1006.0411     102002.7      46.7237      46.7237      46.7237 
  126000    108.15514   -7277.1015   -6713.8863   -624.22545     102002.7      46.7237      46.7237      46.7237 
  127000    107.47352   -7243.4183   -6683.7526   -955.46419     102002.7      46.7237      46.7237      46.7237 
  128000    107.07683   -7281.8547   -6724.2548    -774.8122     102002.7      46.7237      46.7237      46.7237 
  129000    111.38255   -7285.5719     -6705.55   -444.59922     102002.7      46.7237      46.7237      46.7237 
  130000    109.37793   -7287.5576   -6717.9748   -859.28807     102002.7      46.7237      46.7237      46.7237 
  131000    113.28426   -7270.6607   -6680.7358   -728.14801     102002.7      46.7237      46.7237      46.7237 
  132000    106.76074   -7269.7092   -6713.7553   -777.06698     102002.7      46.7237      46.7237      46.7237 
  133000    110.31495     -7287.32   -6712.8576   -793.15092     102002.7      46.7237      46.7237      46.7237 
  134000    110.39451    -7276.725   -6701.8483   -853.79002     102002.7      46.7237      46.7237      46.7237 
  135000    107.66595    -7284.078   -6723.4103   -749.88165     102002.7      46.7237      46.7237      46.7237 
  136000    108.07355   -7267.4988   -6704.7085   -787.83045     102002.7      46.7237      46.7237      46.7237 
  137000    110.03104   -7274.1359   -6701.1519   -978.30701     102002.7      46.7237      46.7237      46.7237 
  138000    111.17336   -7275.2752   -6696.3427   -705.20194     102002.7      46.7237      46.7237      46.7237 
  139000    108.96434   -7290.3175   -6722.8884     -682.264     102002.7      46.7237      46.7237      46.7237 
  140000    109.37907   -7262.5807   -6692.9919   -546.42977     102002.7      46.7237      46.7237      46.7237 
  141000    109.74683   -7302.0024   -6730.4985   -590.86897     102002.7      46.7237      46.7237      46.7237 
  142000    108.92695   -7266.8071   -6699.5727   -1099.0886     102002.7      46.7237      46.7237      46.7237 
  143000    111.00011   -7274.8807   -6696.8504   -608.38084     102002.7      46.7237      46.7237      46.7237 
  144000    109.77831   -7284.9761   -6713.3083    -886.0026     102002.7      46.7237      46.7237      46.7237 
  145000    109.91832   -7275.5484   -6703.1515   -794.81926     102002.7      46.7237      46.7237      46.7237 
  146000    111.24636   -7260.6785   -6681.3659   -798.11989     102002.7      46.7237      46.7237      46.7237 
  147000    110.16545   -7292.9536   -6719.2697   -781.52302     102002.7      46.7237      46.7237      46.7237 
  148000    109.01256   -7251.5497   -6683.8695   -484.84146     102002.7      46.7237      46.7237      46.7237 
  149000    109.04349   -7281.0204   -6713.1792   -903.72654     102002.7      46.7237      46.7237      46.7237 
  150000    112.53365   -7274.8046   -6688.7884   -480.44056     102002.7      46.7237      46.7237      46.7237 
  151000    114.34425   -7276.2597   -6680.8149   -533.46669     102002.7      46.7237      46.7237      46.7237 
  152000     106.5721   -7274.9526    -6719.981   -582.90225     102002.7      46.7237      46.7237      46.7237 
  153000    113.76052   -7250.0442   -6657.6391   -665.77306     102002.7      46.7237      46.7237      46.7237 
  154000    110.00826    -7280.223   -6707.3577   -612.15073     102002.7      46.7237      46.7237      46.7237 
  155000    111.31772   -7290.6908   -6711.0065   -284.15247     102002.7      46.7237      46.7237      46.7237 
  156000    108.69848   -7305.1607   -6739.1161   -723.06131     102002.7      46.7237      46.7237      46.7237 
  157000    108.84579   -7266.8667    -6700.055   -670.33216     102002.7      46.7237      46.7237      46.7237 
  158000    111.89694   -7287.1618   -6704.4612   -752.62692     102002.7      46.7237      46.7237      46.7237 
  159000    109.56026   -7277.4141   -6706.8818   -868.80952     102002.7      46.7237      46.7237      46.7237 
  160000      108.957   -7246.3219    -6678.931   -822.53788     102002.7      46.7237      46.7237      46.7237 
  161000     106.5483   -7266.2459   -6711.3983   -1008.7808     102002.7      46.7237      46.7237      46.7237 
  162000    108.58904   -7286.4274   -6720.9527    -514.3836     102002.7      46.7237      46.7237      46.7237 
  163000    107.79769   -7269.4278    -6708.074    -657.4952     102002.7      46.7237      46.7237      46.7237 
  164000    112.97076   -7264.4926   -6676.2002    -465.6911     102002.7      46.7237      46.7237      46.7237 
  165000    110.35203   -7274.6929   -6700.0375    -754.3659     102002.7      46.7237      46.7237      46.7237 
  166000    109.61005   -7294.9248   -6724.1332   -499.16195     102002.7      46.7237      46.7237      46.7237 
  167000      114.369   -7291.0709   -6695.4972   -417.63339     102002.7      46.7237      46.7237      46.7237 
  168000    109.75829   -7284.9755    -6713.412   -557.95941     102002.7      46.7237      46.7237      46.7237 
  169000    112.27909   -7270.3609   -6685.6703   -453.12466     102002.7      46.7237      46.7237      46.7237 
  170000    108.08205   -7280.5493   -6717.7147   -343.06128     102002.7      46.7237      46.7237      46.7237 
  171000    110.75831    -7263.303   -6686.5319   -545.76552     102002.7      46.7237      46.7237      46.7237 
  172000    110.27962   -7283.4407   -6709.1623   -593.71614     102002.7      46.7237      46.7237      46.7237 
  173000    111.93916   -7271.9495   -6689.0292   -705.11131     102002.7      46.7237      46.7237      46.7237 
  174000    108.87499    -7264.563   -6697.5991   -940.53911     102002.7      46.7237      46.7237      46.7237 
  175000    107.62645   -7288.7503   -6728.2882   -995.89245     102002.7      46.7237      46.7237      46.7237 
  176000    109.12578   -7254.0336   -6685.7638   -912.32493     102002.7      46.7237      46.7237      46.7237 
  177000     111.7106   -7291.1837   -6709.4535    -742.2587     102002.7      46.7237      46.7237      46.7237 
  178000    110.15509   -7286.5882   -6712.9583   -797.44265     102002.7      46.7237      46.7237      46.7237 
  179000    108.06556   -7261.9562   -6699.2074   -851.55726     102002.7      46.7237      46.7237      46.7237 
  180000    110.16654   -7297.3751   -6723.6856   -748.69603     102002.7      46.7237      46.7237      46.7237 
  181000    109.77123   -7266.0824   -6694.4514   -950.77136     102002.7      46.7237      46.7237      46.7237 
  182000    113.33217   -7269.2268   -6679.0523   -987.72995     102002.7      46.7237      46.7237      46.7237 
  183000    110.78549   -7285.4196   -6708.5069   -595.72591     102002.7      46.7237      46.7237      46.7237 
  184000    111.02564   -7281.3882   -6703.2249   -875.19634     102002.7      46.7237      46.7237      46.7237 
  185000    106.15566    -7285.346   -6732.5431   -682.71883     102002.7      46.7237      46.7237      46.7237 
  186000    110.19311   -7270.6595   -6696.8316   -428.25117     102002.7      46.7237      46.7237      46.7237 
  187000    111.53743   -7288.3198   -6707.4914   -692.26791     102002.7      46.7237      46.7237      46.7237 
  188000    105.19556    -7282.542   -6734.7388   -608.15674     102002.7      46.7237      46.7237      46.7237 
  189000    112.02893    -7275.521   -6692.1331   -667.49467     102002.7      46.7237      46.7237      46.7237 
  190000    106.97007   -7272.4933   -6715.4493   -647.03891     102002.7      46.7237      46.7237      46.7237 
  191000    108.08292   -7275.3197   -6712.4806    -534.3921     102002.7      46.7237      46.7237      46.7237 
  192000     110.3218   -7281.4756   -6706.9776   -902.43794     102002.7      46.7237      46.7237      46.7237 
  193000    112.15633   -7261.4028   -6677.3515   -572.83433     102002.7      46.7237      46.7237      46.7237 
  194000    110.00847   -7281.8751   -6709.0088   -683.85135     102002.7      46.7237      46.7237      46.7237 
  195000    111.22201   -7290.6166   -6711.4307    -904.3815     102002.7      46.7237      46.7237      46.7237 
  196000    111.15656    -7265.391    -6686.546   -841.86027     102002.7      46.7237      46.7237      46.7237 
  197000    110.62193   -7277.3629    -6701.302   -867.57315     102002.7      46.7237      46.7237      46.7237 
  198000    111.64779   -7284.3244   -6702.9214   -872.97073     102002.7      46.7237      46.7237      46.7237 
  199000    111.10875   -7289.5255   -6710.9294   -1026.4148     102002.7      46.7237      46.7237      46.7237 
  200000    113.23954   -7247.3596   -6657.6675   -574.43382     102002.7      46.7237      46.7237      46.7237 
  201000    109.55569   -7287.0297   -6716.5211   -631.97006     102002.7      46.7237      46.7237      46.7237 
  202000    110.65534   -7270.7845   -6694.5495   -820.76832     102002.7      46.7237      46.7237      46.7237 
  203000    109.96457   -7287.0964   -6714.4586   -685.87125     102002.7      46.7237      46.7237      46.7237 
  204000    106.77754   -7291.7379   -6735.6965   -759.90856     102002.7      46.7237      46.7237      46.7237 
  205000    110.33775   -7269.0698   -6694.4887   -794.12979     102002.7      46.7237      46.7237      46.7237 
  206000     108.6737   -7298.5868   -6732.6712   -536.85901     102002.7      46.7237      46.7237      46.7237 
  207000    113.13419   -7299.2005   -6710.0571   -800.63004     102002.7      46.7237      46.7237      46.7237 
  208000    113.16741   -7273.9802   -6684.6637   -469.96602     102002.7      46.7237      46.7237      46.7237 
  209000     109.6679   -7265.2951   -6694.2023   -857.21613     102002.7      46.7237      46.7237      46.7237 
  210000     109.3643   -7284.6383   -6715.1264   -955.00141     102002.7      46.7237      46.7237      46.7237 
  211000    108.87987   -7278.8652   -6711.8759   -423.87985     102002.7      46.7237      46.7237      46.7237 
  212000    109.83962   -7257.7902   -6685.8031   -639.40144     102002.7      46.7237      46.7237      46.7237 
  213000    107.51645   -7279.0655   -6719.1762   -737.77887     102002.7      46.7237      46.7237      46.7237 
  214000    113.42215   -7267.1903   -6676.5472   -874.26401     102002.7      46.7237      46.7237      46.7237 
  215000    110.80374   -7289.6258   -6712.6181   -740.14071     102002.7      46.7237      46.7237      46.7237 
  216000    112.78212   -7281.4239   -6694.1138   -782.92975     102002.7      46.7237      46.7237      46.7237 
  217000    108.13647   -7270.1697   -6707.0518   -941.75124     102002.7      46.7237      46.7237      46.7237 
  218000    111.88156   -7267.3985    -6684.778   -769.53822     102002.7      46.7237      46.7237      46.7237 
  219000    110.13833   -7307.2514   -6733.7088   -946.98731     102002.7      46.7237      46.7237      46.7237 
  220000    110.36448   -7283.9278   -6709.2075   -747.64645     102002.7      46.7237      46.7237      46.7237 
  221000    108.90155   -7278.2898   -6711.1877   -981.78972     102002.7      46.7237      46.7237      46.7237 
  222000    109.36875   -7272.0012   -6702.4662   -623.88106     102002.7      46.7237      46.7237      46.7237 
  223000    111.40588   -7254.0893    -6673.946   -900.49798     102002.7      46.7237      46.7237      46.7237 
  224000    111.80318     -7275.58   -6693.3677   -768.81384     102002.7      46.7237      46.7237      46.7237 
  225000    108.00916   -7285.5112   -6723.0562   -623.76982     102002.7      46.7237      46.7237      46.7237 
  226000    108.68642   -7282.7997   -6716.8179   -861.30025     102002.7      46.7237      46.7237      46.7237 
  227000    108.68077   -7299.7734    -6733.821   -454.58586     102002.7      46.7237      46.7237      46.7237 
  228000    108.11074   -7259.1655   -6696.1815   -817.79665     102002.7      46.7237      46.7237      46.7237 
  229000    107.98746   -7290.4042   -6728.0622   -620.29482     102002.7      46.7237      46.7237      46.7237 
  230000    110.95316   -7276.4186   -6698.6327   -574.56519     102002.7      46.7237      46.7237      46.7237 
  231000    112.13668   -7262.1065   -6678.1575   -652.02997     102002.7      46.7237      46.7237      46.7237 
  232000    110.11828   -7281.6605   -6708.2223   -369.56179     102002.7      46.7237      46.7237      46.7237 
  233000    110.09337   -7279.4534   -6706.1449   -394.80765     102002.7      46.7237      46.7237      46.7237 
  234000    111.84131   -7284.5233   -6702.1125   -701.23145     102002.7      46.7237      46.7237      46.7237 
  235000    110.95504   -7284.1655   -6706.3699   -737.74019     102002.7      46.7237      46.7237      46.7237 
  236000    109.85161    -7258.964   -6686.9144   -459.06612     102002.7      46.7237      46.7237      46.7237 
  237000    109.51429   -7253.0259   -6682.7329   -944.20624     102002.7      46.7237      46.7237      46.7237 
  238000    109.40742   -7272.4958   -6702.7594   -661.16374     102002.7      46.7237      46.7237      46.7237 
  239000    109.27121    -7267.738   -6698.7109   -811.45603     102002.7      46.7237      46.7237      46.7237 
  240000    110.15971   -7275.0105   -6701.3565   -513.51996     102002.7      46.7237      46.7237      46.7237 
  241000    109.89582   -7269.5725   -6697.2928   -759.51696     102002.7      46.7237      46.7237      46.7237 
  242000    109.37555   -7295.3039   -6725.7335   -515.04863     102002.7      46.7237      46.7237      46.7237 
  243000     110.2093   -7274.9719   -6701.0597   -723.99526     102002.7      46.7237      46.7237      46.7237 
  244000    110.20075   -7262.4255   -6688.5578    -551.4928     102002.7      46.7237      46.7237      46.7237 
  245000    109.09986   -7275.7442   -6707.6094   -1122.9057     102002.7      46.7237      46.7237      46.7237 
  246000    109.94372   -7276.7469   -6704.2177    -583.7046     102002.7      46.7237      46.7237      46.7237 
  247000    109.48555   -7284.9774   -6714.8342   -683.31021     102002.7      46.7237      46.7237      46.7237 
  248000    110.09963   -7281.1855   -6707.8445   -901.30517     102002.7      46.7237      46.7237      46.7237 
  249000    109.24367   -7281.9143   -6713.0306   -586.33634     102002.7      46.7237      46.7237      46.7237 
  250000    109.23418   -7298.5747   -6729.7405    -632.9565     102002.7      46.7237      46.7237      46.7237 
  251000    112.13637    -7275.105   -6691.1576   -717.25285     102002.7      46.7237      46.7237      46.7237 
  252000    109.98388   -7280.4233   -6707.6849    -640.9309     102002.7      46.7237      46.7237      46.7237 
  253000    107.80837   -7281.0651   -6719.6557   -521.55964     102002.7      46.7237      46.7237      46.7237 
  254000    111.14695   -7279.8392   -6701.0443   -734.81725     102002.7      46.7237      46.7237      46.7237 
  255000    108.14192   -7266.1972   -6703.0508   -475.43211     102002.7      46.7237      46.7237      46.7237 
  256000    109.46498   -7268.7855   -6698.7493   -502.29721     102002.7      46.7237      46.7237      46.7237 
  257000    109.74593   -7283.9271    -6712.428   -369.46599     102002.7      46.7237      46.7237      46.7237 
  258000    107.87761   -7275.3462   -6713.5763   -552.93409     102002.7      46.7237      46.7237      46.7237 
  259000    113.25961    -7258.288   -6668.4914   -617.77427     102002.7      46.7237      46.7237      46.7237 
  260000    109.69625   -7274.4668   -6703.2263   -591.87885     102002.7      46.7237      46.7237      46.7237 
  261000    115.41968   -7286.4959   -6685.4508   -800.42719     102002.7      46.7237      46.7237      46.7237 
  262000    112.42746   -7280.3551   -6694.8919   -698.41376     102002.7      46.7237      46.7237      46.7237 
  263000      108.595   -7287.6778    -6722.172   -765.83343     102002.7      46.7237      46.7237      46.7237 
  264000    106.38355   -7282.3853   -6728.3956   -797.54476     102002.7      46.7237      46.7237      46.7237 
  265000    112.69014   -7282.1203   -6695.2892   -535.68993     102002.7      46.7237      46.7237      46.7237 
  266000    106.52874   -7274.4466   -6719.7008   -764.64495     102002.7      46.7237      46.7237      46.7237 
  267000    111.34096   -7273.8959   -6694.0907   -947.47566     102002.7      46.7237      46.7237      46.7237 
  268000    108.95694   -7280.9336    -6713.543   -584.96064     102002.7      46.7237      46.7237      46.7237 
  269000    108.40623   -7265.5196   -6700.9968   -884.58372     102002.7      46.7237      46.7237      46.7237 
  270000    104.41403   -7280.3631   -6736.6297    -628.9506     102002.7      46.7237      46.7237      46.7237 
  271000    109.52733   -7265.6574   -6695.2965   -743.63873     102002.7      46.7237      46.7237      46.7237 
  272000    110.58838   -7244.7505   -6668.8643   -678.82963     102002.7      46.7237      46.7237      46.7237 
  273000    109.48863   -7288.1487   -6717.9894   -634.69563     102002.7      46.7237      46.7237      46.7237 
  274000    109.45028   -7264.5524   -6694.5928   -761.89152     102002.7      46.7237      46.7237      46.7237 
  275000    109.33481   -7269.4868   -6700.1285   -570.49857     102002.7      46.7237      46.7237      46.7237 
  276000    109.40258    -7277.618   -6707.9068   -746.32853     102002.7      46.7237      46.7237      46.7237 
  277000    112.86385   -7276.0835   -6688.3478   -799.62595     102002.7      46.7237      46.7237      46.7237 
  278000    105.99462     -7273.26   -6721.2957   -807.11113     102002.7      46.7237      46.7237      46.7237 
  279000    109.18927   -7273.0238   -6704.4234   -1027.2605     102002.7      46.7237      46.7237      46.7237 
  280000     109.6118   -7275.5881   -6704.7874   -843.41075     102002.7      46.7237      46.7237      46.7237 
  281000    108.20188   -7267.9728   -6704.5142   -549.71177     102002.7      46.7237      46.7237      46.7237 
  282000    108.30863   -7276.4405    -6712.426   -927.57824     102002.7      46.7237      46.7237      46.7237 
  283000    118.15441   -7271.9373   -6656.6512   -934.69082     102002.7      46.7237      46.7237      46.7237 
  284000    110.03479   -7284.4248   -6711.4214   -911.51861     102002.7      46.7237      46.7237      46.7237 
  285000    110.36345   -7262.7148   -6687.9999    -747.2729     102002.7      46.7237      46.7237      46.7237 
  286000    111.58742    -7263.008   -6681.9193   -568.13933     102002.7      46.7237      46.7237      46.7237 
  287000    108.73052   -7264.3476   -6698.1361   -1008.3387     102002.7      46.7237      46.7237      46.7237 
  288000    107.05972    -7289.001   -6731.4902    -424.0805     102002.7      46.7237      46.7237      46.7237 
  289000    109.96999   -7267.4954   -6694.8294   -711.20096     102002.7      46.7237      46.7237      46.7237 
  290000    110.32919   -7252.4958   -6677.9593   -523.79904     102002.7      46.7237      46.7237      46.7237 
  291000    110.08727   -7278.2351   -6704.9584   -918.19345     102002.7      46.7237      46.7237      46.7237 
  292000    113.30891   -7271.7967   -6681.7434   -566.30737     102002.7      46.7237      46.7237      46.7237 
  293000    108.80865   -7281.4165   -6714.7982   -562.24209     102002.7      46.7237      46.7237      46.7237 
  294000    110.11503   -7282.9685   -6709.5472   -626.44909     102002.7      46.7237      46.7237      46.7237 
  295000    106.42785    -7282.108   -6727.8876   -735.93989     102002.7      46.7237      46.7237      46.7237 
  296000    110.34293   -7278.3949   -6703.7868    -613.4539     102002.7      46.7237      46.7237      46.7237 
  297000    112.95811   -7273.2753   -6685.0488   -789.39806     102002.7      46.7237      46.7237      46.7237 
  298000     108.2013   -7254.7858   -6691.3302   -577.23762     102002.7      46.7237      46.7237      46.7237 
  299000    111.17616   -7297.1173   -6718.1702   -747.31432     102002.7      46.7237      46.7237      46.7237 
  300000    111.79639   -7267.3516   -6685.1747   -590.94723     102002.7      46.7237      46.7237      46.7237 
  301000    109.51829   -7277.5949   -6707.2812   -855.92963     102002.7      46.7237      46.7237      46.7237 
  302000    110.40732   -7251.2346   -6676.2912   -693.65464     102002.7      46.7237      46.7237      46.7237 
  303000    108.31496    -7267.871   -6703.8235   -799.65899     102002.7      46.7237      46.7237      46.7237 
  304000    107.07626   -7273.3626   -6715.7657   -866.54962     102002.7      46.7237      46.7237      46.7237 
  305000    112.71501   -7267.5851   -6680.6245   -664.21574     102002.7      46.7237      46.7237      46.7237 
  306000    104.84805   -7291.6459   -6745.6523   -686.35457     102002.7      46.7237      46.7237      46.7237 
  307000    113.30157   -7283.0046   -6692.9895   -417.74383     102002.7      46.7237      46.7237      46.7237 
  308000    112.24749   -7263.6457   -6679.1196   -553.76787     102002.7      46.7237      46.7237      46.7237 
  309000     109.8504    -7285.725   -6713.6818   -554.47796     102002.7      46.7237      46.7237      46.7237 
  310000    113.44773   -7267.0918   -6676.3156   -855.85842     102002.7      46.7237      46.7237      46.7237 
  311000    111.29379   -7271.7175   -6692.1579   -905.74394     102002.7      46.7237      46.7237      46.7237 
  312000    109.40107   -7277.4532   -6707.7498    -789.2831     102002.7      46.7237      46.7237      46.7237 
  313000    111.96483   -7275.6248   -6692.5707   -756.76456     102002.7      46.7237      46.7237      46.7237 
  314000    114.33287   -7274.5168   -6679.1312   -477.83099     102002.7      46.7237      46.7237      46.7237 
  315000    108.47799   -7282.4917   -6717.5952    -749.6985     102002.7      46.7237      46.7237      46.7237 
  316000    103.86031   -7283.0349    -6742.185   -698.01338     102002.7      46.7237      46.7237      46.7237 
  317000    109.07598   -7275.5986   -6707.5882   -646.86324     102002.7      46.7237      46.7237      46.7237 
  318000    110.40567   -7282.9939   -6708.0591    -575.7067     102002.7      46.7237      46.7237      46.7237 
  319000     114.6766   -7269.4467   -6672.2712   -839.19608     102002.7      46.7237      46.7237      46.7237 
  320000     111.2282   -7272.3292   -6693.1111   -793.70049     102002.7      46.7237      46.7237      46.7237 
  321000    107.40411   -7270.2121   -6710.9078   -574.58077     102002.7      46.7237      46.7237      46.7237 
  322000    109.60223   -7254.4426   -6683.6916   -868.96868     102002.7      46.7237      46.7237      46.7237 
  323000    107.77948   -7284.0079    -6722.749   -667.15184     102002.7      46.7237      46.7237      46.7237 
  324000    113.43595   -7254.7416   -6664.0267   -617.00357     102002.7      46.7237      46.7237      46.7237 
  325000    110.49925   -7291.1603   -6715.7382   -811.83012     102002.7      46.7237      46.7237      46.7237 
  326000    108.93218   -7279.3707   -6712.1091   -637.04824     102002.7      46.7237      46.7237      46.7237 
  327000    112.55598   -7283.6027   -6697.4702   -764.22875     102002.7      46.7237      46.7237      46.7237 
  328000    110.24815    -7280.541   -6706.4265   -774.09742     102002.7      46.7237      46.7237      46.7237 
  329000    109.68422   -7277.8199    -6706.642   -940.03321     102002.7      46.7237      46.7237      46.7237 
  330000    108.64296   -7290.5428   -6724.7873   -704.25822     102002.7      46.7237      46.7237      46.7237 
  331000    107.74469   -7270.8594   -6709.7816   -707.51071     102002.7      46.7237      46.7237      46.7237 
  332000    112.36558   -7264.7771   -6679.6361   -657.11864     102002.7      46.7237      46.7237      46.7237 
  333000    112.29042   -7269.0816    -6684.332   -795.63862     102002.7      46.7237      46.7237      46.7237 
  334000    109.30412   -7292.5258   -6723.3273   -822.34889     102002.7      46.7237      46.7237      46.7237 
  335000    111.53377   -7274.0306   -6693.2213   -911.20582     102002.7      46.7237      46.7237      46.7237 
  336000    110.93119   -7286.2071   -6708.5356   -693.93589     102002.7      46.7237      46.7237      46.7237 
  337000     104.4071   -7281.3482   -6737.6508   -795.11383     102002.7      46.7237      46.7237      46.7237 
  338000    114.16036   -7288.1568   -6693.6696   -692.99732     102002.7      46.7237      46.7237      46.7237 
  339000    111.72213   -7251.8706   -6670.0804   -584.09626     102002.7      46.7237      46.7237      46.7237 
  340000    110.99472   -7285.0135   -6707.0112     -721.568     102002.7      46.7237      46.7237      46.7237 
  341000    111.46902   -7262.4771   -6682.0049   -893.32444     102002.7      46.7237      46.7237      46.7237 
  342000    108.00698   -7272.5976    -6710.154   -771.71418     102002.7      46.7237      46.7237      46.7237 
  343000    109.42014   -7258.5679   -6688.7653   -728.84666     102002.7      46.7237      46.7237      46.7237 
  344000    111.10053   -7296.4393   -6717.8861   -968.57276     102002.7      46.7237      46.7237      46.7237 
  345000    105.48268    -7263.341   -6714.0426   -774.97925     102002.7      46.7237      46.7237      46.7237 
  346000    112.95139   -7271.6607   -6683.4692   -824.59942     102002.7      46.7237      46.7237      46.7237 
  347000    110.51525   -7286.2271   -6710.7217   -756.44011     102002.7      46.7237      46.7237      46.7237 
  348000    108.55347   -7278.3953   -6713.1059    -901.9769     102002.7      46.7237      46.7237      46.7237 
  349000    112.51242   -7266.2812   -6680.3756   -868.83026     102002.7      46.7237      46.7237      46.7237 
  350000    108.35318   -7261.8981   -6697.6516   -808.44051     102002.7      46.7237      46.7237      46.7237 
  351000    113.89037   -7301.7415   -6708.6602   -563.16009     102002.7      46.7237      46.7237      46.7237 
  352000    108.63109   -7283.2009   -6717.5072   -772.84279     102002.7      46.7237      46.7237      46.7237 
  353000    112.16284   -7262.5482    -6678.463   -681.61634     102002.7      46.7237      46.7237      46.7237 
  354000    107.33274   -7270.3455   -6711.4129   -787.50296     102002.7      46.7237      46.7237      46.7237 
  355000    106.89672   -7272.0936   -6715.4316   -608.34908     102002.7      46.7237      46.7237      46.7237 
  356000    110.27767    -7284.877   -6710.6088   -915.83539     102002.7      46.7237      46.7237      46.7237 
  357000    108.77419   -7293.0651   -6726.6263   -797.85378     102002.7      46.7237      46.7237      46.7237 
  358000    108.73967   -7284.7823   -6718.5231   -563.21912     102002.7      46.7237      46.7237      46.7237 
  359000    108.57636   -7248.5054   -6683.0967   -505.53243     102002.7      46.7237      46.7237      46.7237 
  360000     111.1804      -7260.9   -6681.9308   -817.10095     102002.7      46.7237      46.7237      46.7237 
  361000    110.12984   -7279.2936   -6705.7952   -796.18026     102002.7      46.7237      46.7237      46.7237 
  362000    109.70432   -7291.7547   -6720.4721   -819.92765     102002.7      46.7237      46.7237      46.7237 
  363000    109.76051   -7260.4313   -6688.8562   -639.51154     102002.7      46.7237      46.7237      46.7237 
  364000    114.06243   -7258.3391   -6664.3618   -912.23288     102002.7      46.7237      46.7237      46.7237 
  365000    110.04418    -7269.713   -6696.6607    -816.4889     102002.7      46.7237      46.7237      46.7237 
  366000    107.81781   -7286.7414   -6725.2828   -410.44652     102002.7      46.7237      46.7237      46.7237 
  367000    110.23237    -7270.551   -6696.5186   -860.72522     102002.7      46.7237      46.7237      46.7237 
  368000    110.16374   -7304.6012   -6730.9263   -700.96676     102002.7      46.7237      46.7237      46.7237 
  369000    107.82726   -7259.2326   -6697.7248   -909.21054     102002.7      46.7237      46.7237      46.7237 
  370000    109.75793   -7281.9418   -6710.3801    -784.7357     102002.7      46.7237      46.7237      46.7237 
  371000    110.41398   -7255.6401   -6680.6621   -308.90619     102002.7      46.7237      46.7237      46.7237 
  372000    110.93336   -7280.5181   -6702.8354   -564.33729     102002.7      46.7237      46.7237      46.7237 
  373000     109.7901   -7299.4543    -6727.725    -697.1721     102002.7      46.7237      46.7237      46.7237 
  374000    109.85995   -7256.1764   -6684.0835     -674.594     102002.7      46.7237      46.7237      46.7237 
  375000    110.10634    -7265.168    -6691.792   -637.95844     102002.7      46.7237      46.7237      46.7237 
  376000    105.35382   -7266.3753   -6717.7479   -827.15591     102002.7      46.7237      46.7237      46.7237 
  377000    109.08553   -7274.1959   -6706.1357   -640.50145     102002.7      46.7237      46.7237      46.7237 
  378000     111.3657   -7284.9586   -6705.0245   -420.33707     102002.7      46.7237      46.7237      46.7237 
  379000    108.64252    -7291.041   -6725.2878   -760.39349     102002.7      46.7237      46.7237      46.7237 
  380000     108.8292   -7282.5748   -6715.8495   -754.19676     102002.7      46.7237      46.7237      46.7237 
  381000    106.54722   -7281.0346   -6726.1926   -705.55697     102002.7      46.7237      46.7237      46.7237 
  382000    109.34991   -7287.0694   -6717.6324   -750.46634     102002.7      46.7237      46.7237      46.7237 
  383000    109.94705    -7269.943   -6697.3965   -747.29253     102002.7      46.7237      46.7237      46.7237 
  384000    111.97658   -7280.7356   -6697.6204    -671.4426     102002.7      46.7237      46.7237      46.7237 
  385000    109.29818    -7270.849   -6701.6814   -687.24488     102002.7      46.7237      46.7237      46.7237 
  386000    109.56794   -7283.4446   -6712.8722   -717.02566     102002.7      46.7237      46.7237      46.7237 
  387000    108.87311   -7268.3253   -6701.3713   -872.07896     102002.7      46.7237      46.7237      46.7237 
  388000    108.24176   -7291.4738   -6727.8075   -658.31495     102002.7      46.7237      46.7237      46.7237 
  389000    109.05293    -7254.397   -6686.5066   -745.92319     102002.7      46.7237      46.7237      46.7237 
  390000    107.54508   -7266.1546   -6706.1162   -886.90884     102002.7      46.7237      46.7237      46.7237 
  391000    113.20019   -7276.3615   -6686.8743   -240.05467     102002.7      46.7237      46.7237      46.7237 
  392000    108.24402   -7278.5362   -6714.8582   -651.96732     102002.7      46.7237      46.7237      46.7237 
  393000    109.77454   -7282.0107   -6710.3625   -464.06651     102002.7      46.7237      46.7237      46.7237 
  394000     113.9896   -7279.0311    -6685.433   -489.81656     102002.7      46.7237      46.7237      46.7237 
  395000    108.12494   -7272.6941   -6709.6362   -642.83048     102002.7      46.7237      46.7237      46.7237 
  396000    113.28804   -7256.8955   -6666.9508   -435.67622     102002.7      46.7237      46.7237      46.7237 
  397000     108.3556   -7280.9298   -6716.6707   -652.28385     102002.7      46.7237      46.7237      46.7237 
  398000    110.98869   -7267.2674   -6689.2966   -412.76234     102002.7      46.7237      46.7237      46.7237 
  399000    110.33357   -7291.0769   -6716.5176   -858.62757     102002.7      46.7237      46.7237      46.7237 
  400000    109.98792    -7283.237   -6710.4776   -512.10746     102002.7      46.7237      46.7237      46.7237 
  401000    108.94016   -7261.1915   -6693.8883   -624.58666     102002.7      46.7237      46.7237      46.7237 
  402000    105.93284   -7270.0842   -6718.4416   -756.49629     102002.7      46.7237      46.7237      46.7237 
  403000    109.13936   -7273.1334   -6704.7929   -563.01501     102002.7      46.7237      46.7237      46.7237 
  404000    109.41855   -7287.8252   -6718.0308   -479.93238     102002.7      46.7237      46.7237      46.7237 
  405000    112.75653   -7255.1335   -6667.9567   -399.73791     102002.7      46.7237      46.7237      46.7237 
  406000    107.84634   -7281.0198   -6719.4127   -544.91623     102002.7      46.7237      46.7237      46.7237 
  407000    111.30184   -7277.4908   -6697.8892   -559.39839     102002.7      46.7237      46.7237      46.7237 
  408000    112.54204   -7275.7176   -6689.6578   -585.39832     102002.7      46.7237      46.7237      46.7237 
  409000    110.05287   -7294.7692   -6721.6716   -735.90837     102002.7      46.7237      46.7237      46.7237 
  410000    109.12013   -7266.3499   -6698.1095   -779.47974     102002.7      46.7237      46.7237      46.7237 
  411000    113.28978   -7269.3477    -6679.394   -451.43891     102002.7      46.7237      46.7237      46.7237 
  412000    109.59405   -7292.8618   -6722.1535   -587.36099     102002.7      46.7237      46.7237      46.7237 
  413000    112.38598    -7269.025   -6683.7778    -528.6593     102002.7      46.7237      46.7237      46.7237 
  414000    110.96623   -7287.2773   -6709.4234   -637.92355     102002.7      46.7237      46.7237      46.7237 
  415000    109.46411   -7263.0792   -6693.0476   -492.20551     102002.7      46.7237      46.7237      46.7237 
  416000    109.65147   -7274.1482   -6703.1409   -763.03057     102002.7      46.7237      46.7237      46.7237 
  417000    110.06537   -7265.3563   -6692.1936    -705.8094     102002.7      46.7237      46.7237      46.7237 
  418000    104.66566   -7287.2291   -6742.1852   -796.72298     102002.7      46.7237      46.7237      46.7237 
  419000    109.63897   -7266.8927   -6695.9505    -757.6994     102002.7      46.7237      46.7237      46.7237 
  420000     108.1179   -7294.2715   -6731.2502   -771.27764     102002.7      46.7237      46.7237      46.7237 
  421000    109.43847   -7281.9061    -6712.008   -934.37406     102002.7      46.7237      46.7237      46.7237 
  422000     115.6064   -7280.0604   -6678.0429   -809.55114     102002.7      46.7237      46.7237      46.7237 
  423000    112.13008   -7289.1897   -6705.2751   -900.15402     102002.7      46.7237      46.7237      46.7237 
  424000    106.92449   -7276.8157   -6720.0091   -612.15651     102002.7      46.7237      46.7237      46.7237 
  425000    113.41023   -7285.6865   -6695.1055    -1124.043     102002.7      46.7237      46.7237      46.7237 
  426000    108.38945   -7279.4503   -6715.0149   -748.49313     102002.7      46.7237      46.7237      46.7237 
  427000    109.18711   -7298.3988   -6729.8096   -920.74497     102002.7      46.7237      46.7237      46.7237 
  428000    109.38656    -7268.663   -6699.0352   -756.80931     102002.7      46.7237      46.7237      46.7237 
  429000    114.23449   -7267.3611   -6672.4879   -703.40143     102002.7      46.7237      46.7237      46.7237 
  430000    108.84793   -7286.2956   -6719.4727   -974.56321     102002.7      46.7237      46.7237      46.7237 
  431000    108.01125   -7277.8205   -6715.3546   -715.44526     102002.7      46.7237      46.7237      46.7237 
  432000    113.82041   -7259.7397   -6667.0227   -798.32142     102002.7      46.7237      46.7237      46.7237 
  433000    108.97067   -7282.7812   -6715.3191   -817.95811     102002.7      46.7237      46.7237      46.7237 
  434000    111.52114   -7281.9034   -6701.1599   -993.34685     102002.7      46.7237      46.7237      46.7237 
  435000    109.91297   -7254.5136   -6682.1445   -963.34646     102002.7      46.7237      46.7237      46.7237 
  436000    111.89367   -7276.8443   -6694.1608   -780.32948     102002.7      46.7237      46.7237      46.7237 
  437000    109.62875   -7282.8011   -6711.9122    -985.0599     102002.7      46.7237      46.7237      46.7237 
  438000    106.97404   -7292.5105   -6735.4458   -752.65581     102002.7      46.7237      46.7237      46.7237 
  439000    108.70908   -7280.6144   -6714.5146   -812.94373     102002.7      46.7237      46.7237      46.7237 
  440000    110.80401     -7260.83   -6683.8209   -852.87923     102002.7      46.7237      46.7237      46.7237 
  441000    108.11657   -7280.0859   -6717.0716   -405.66758     102002.7      46.7237      46.7237      46.7237 
  442000    109.45326   -7274.8175   -6704.8424   -583.57856     102002.7      46.7237      46.7237      46.7237 
  443000    112.02309   -7281.2151   -6697.8577   -735.55754     102002.7      46.7237      46.7237      46.7237 
  444000    110.36873   -7285.9885   -6711.2461   -725.80728     102002.7      46.7237      46.7237      46.7237 
  445000    111.71327   -7253.6459   -6671.9019   -846.02636     102002.7      46.7237      46.7237      46.7237 
  446000    108.68129   -7285.1766   -6719.2215   -592.94099     102002.7      46.7237      46.7237      46.7237 
  447000    111.49674   -7269.8904   -6689.2739   -881.33308     102002.7      46.7237      46.7237      46.7237 
  448000    113.55913    -7280.692   -6689.3357   -655.61138     102002.7      46.7237      46.7237      46.7237 
  449000     107.7764   -7273.6284   -6712.3855   -690.87389     102002.7      46.7237      46.7237      46.7237 
  450000    109.43984   -7267.9978   -6698.0925   -308.99195     102002.7      46.7237      46.7237      46.7237 
  451000    108.88345   -7289.1224   -6722.1145   -958.16384     102002.7      46.7237      46.7237      46.7237 
  452000    111.54102   -7257.5219   -6676.6747   -873.58268     102002.7      46.7237      46.7237      46.7237 
  453000    106.68599   -7256.7992   -6701.2346   -725.40471     102002.7      46.7237      46.7237      46.7237 
  454000    107.87172   -7280.4414   -6718.7021   -613.19516     102002.7      46.7237      46.7237      46.7237 
  455000    109.82761   -7266.8181   -6694.8936   -811.22468     102002.7      46.7237      46.7237      46.7237 
  456000    111.39597   -7275.7837    -6695.692   -391.82857     102002.7      46.7237      46.7237      46.7237 
  457000    109.12569   -7279.1389   -6710.8696   -760.53584     102002.7      46.7237      46.7237      46.7237 
  458000     110.4687   -7270.4835   -6695.2205   -637.86182     102002.7      46.7237      46.7237      46.7237 
  459000    106.99239   -7278.0994   -6720.9392   -506.56425     102002.7      46.7237      46.7237      46.7237 
  460000    106.42816   -7251.9035   -6697.6815   -819.82543     102002.7      46.7237      46.7237      46.7237 
  461000    109.94296   -7258.6399   -6686.1147   -864.35488     102002.7      46.7237      46.7237      46.7237 
  462000    110.39625   -7298.0046   -6723.1189    -854.5464     102002.7      46.7237      46.7237      46.7237 
  463000    111.07462   -7263.1485   -6684.7301   -677.08919     102002.7      46.7237      46.7237      46.7237 
  464000    108.81812   -7285.1426   -6718.4749   -633.67723     102002.7      46.7237      46.7237      46.7237 
  465000    115.04281   -7287.6052   -6688.5226   -606.13819     102002.7      46.7237      46.7237      46.7237 
  466000    106.85928   -7276.5346   -6720.0675   -331.21522     102002.7      46.7237      46.7237      46.7237 
  467000    110.71684   -7276.8481   -6700.2929   -672.22323     102002.7      46.7237      46.7237      46.7237 
  468000    110.47293    -7268.654   -6693.3689    -401.5252     102002.7      46.7237      46.7237      46.7237 
  469000    107.95718   -7282.2858   -6720.1015   -903.98008     102002.7      46.7237      46.7237      46.7237 
  470000    108.21216   -7260.0886   -6696.5765   -830.35748     102002.7      46.7237      46.7237      46.7237 
  471000    106.83293   -7271.7406   -6715.4108   -763.60064     102002.7      46.7237      46.7237      46.7237 
  472000    112.27683   -7268.4331   -6683.7543   -1015.5366     102002.7      46.7237      46.7237      46.7237 
  473000    111.63578   -7297.7421   -6716.4016   -890.45315     102002.7      46.7237      46.7237      46.7237 
  474000    111.20961   -7307.4708   -6728.3495   -742.64805     102002.7      46.7237      46.7237      46.7237 
  475000    109.14642   -7268.1319   -6699.7546   -811.87864     102002.7      46.7237      46.7237      46.7237 
  476000    113.76481   -7268.2905   -6675.8631   -847.65143     102002.7      46.7237      46.7237      46.7237 
  477000    109.42725   -7265.6273   -6695.7876    -980.7121     102002.7      46.7237      46.7237      46.7237 
  478000     106.9201   -7282.9364   -6726.1526   -944.07985     102002.7      46.7237      46.7237      46.7237 
  479000     109.6469    -7271.248   -6700.2644   -664.12615     102002.7      46.7237      46.7237      46.7237 
  480000    109.94194   -7259.6727   -6687.1527   -723.40283     102002.7      46.7237      46.7237      46.7237 
  481000    107.71691   -7271.7839   -6710.8507   -417.45594     102002.7      46.7237      46.7237      46.7237 
  482000    113.17747   -7276.3949    -6687.026   -812.34938     102002.7      46.7237      46.7237      46.7237 
  483000    109.48904     -7288.06   -6717.8985   -1091.3721     102002.7      46.7237      46.7237      46.7237 
  484000    108.37096   -7288.2028   -6723.8637   -871.34633     102002.7      46.7237      46.7237      46.7237 
  485000    109.01752   -7274.8887   -6707.1827    -654.7844     102002.7      46.7237      46.7237      46.7237 
  486000    112.16158   -7265.3173   -6681.2386   -639.01936     102002.7      46.7237      46.7237      46.7237 
  487000    111.23182   -7280.7774   -6701.5405   -1135.0054     102002.7      46.7237      46.7237      46.7237 
  488000    109.18582   -7279.2046   -6710.6221    -710.1394     102002.7      46.7237      46.7237      46.7237 
  489000    106.28391   -7285.6857   -6732.2148    -900.0001     102002.7      46.7237      46.7237      46.7237 
  490000    110.49363   -7278.9293   -6703.5365   -756.08664     102002.7      46.7237      46.7237      46.7237 
  491000    109.89105    -7280.461   -6708.2061       -897.6     102002.7      46.7237      46.7237      46.7237 
  492000    110.61223   -7294.6339   -6718.6234   -354.91188     102002.7      46.7237      46.7237      46.7237 
  493000     108.3397   -7273.6323    -6709.456   -847.03973     102002.7      46.7237      46.7237      46.7237 
  494000    113.29219   -7285.9011   -6695.9349   -559.60842     102002.7      46.7237      46.7237      46.7237 
  495000    111.62313   -7293.4875   -6712.2128   -562.04511     102002.7      46.7237      46.7237      46.7237 
  496000    110.55569   -7259.3521   -6683.6361   -987.78448     102002.7      46.7237      46.7237      46.7237 
  497000    106.35014   -7258.9524   -6705.1366   -463.28722     102002.7      46.7237      46.7237      46.7237 
  498000    111.92541   -7274.8079   -6691.9591   -662.50627     102002.7      46.7237      46.7237      46.7237 
  499000    110.72976   -7256.8281   -6680.2057   -674.30811     102002.7      46.7237      46.7237      46.7237 
  500000    107.00513   -7289.3779   -6732.1514     -808.245     102002.7      46.7237      46.7237      46.7237 
  500504     109.8392   -7288.3629    -6716.378   -633.46915     102002.7      46.7237      46.7237      46.7237 
Loop time of 578.31 on 24 procs for 500000 steps with 1748 atoms

Performance: 74.700 ns/day, 0.321 hours/ns, 864.589 timesteps/s
99.9% CPU use with 24 MPI tasks x no OpenMP threads

MPI task timing breakdown:
Section |  min time  |  avg time  |  max time  |%varavg| %total
---------------------------------------------------------------
Pair    | 184.35     | 277.16     | 381.02     | 339.6 | 47.93
Bond    | 66.54      | 78.215     | 87.688     |  69.3 | 13.52
Neigh   | 1.9112     | 1.9298     | 1.9434     |   0.9 |  0.33
Comm    | 100.94     | 213.71     | 306.51     | 411.0 | 36.95
Output  | 0.30459    | 0.30489    | 0.30894    |   0.2 |  0.05
Modify  | 3.553      | 3.9947     | 4.2356     |   9.3 |  0.69
Other   |            | 2.99       |            |       |  0.52

Nlocal:    72.8333 ave 89 max 40 min
Histogram: 1 0 0 1 3 3 4 3 6 3
Nghost:    1988.54 ave 2139 max 1904 min
Histogram: 12 4 0 0 0 0 0 0 1 7
Neighs:    7638.5 ave 10949 max 4258 min
Histogram: 4 2 2 0 2 3 3 3 2 3

Total # of neighbors = 183324
Ave neighs/atom = 104.876
Ave special neighs/atom = 6.59039
Neighbor list builds = 3504
Dangerous builds = 0
Neighbor list info ...
  update every 1 steps, delay 10 steps, check yes
  max neighbors/atom: 2000, page size: 100000
  master list distance cutoff = 16
  ghost atom cutoff = 16
  binsize = 8, bins = 6 6 6
  3 neighbor lists, perpetual/occasional/extra = 3 0 0
  (1) pair buck6d/coul/gauss/dsf, perpetual, skip from (3)
      attributes: half, newton on
      pair build: skip
      stencil: none
      bin: none
  (2) pair lj/cut, perpetual, skip from (3)
      attributes: half, newton on
      pair build: skip
      stencil: none
      bin: none
  (3) neighbor class addition, perpetual
      attributes: half, newton on
      pair build: half/bin/newton
      stencil: half/bin/3d/newton
      bin: standard
Setting up Verlet run ...
  Unit style    : real
  Current step  : 500504
  Time step     : 1
WARNING: Inconsistent image flags (../domain.cpp:786)
Per MPI rank memory allocation (min/avg/max) = 24.11 | 24.49 | 24.57 Mbytes
Step Time TotEng KinEng PotEng E_mol E_pair Temp Pxx Pyy Pzz Pxy Pxz Pyz Cella Cellb Cellc CellAlpha CellBeta CellGamma Volume Press 
  500504       500000    -6716.378    571.98488   -7288.3629     4296.909   -11585.272     109.8392   -867.20072   -490.11998   -543.08676   -142.44573   -73.245961   -40.077378      46.7237      46.7237      46.7237           90           90           90     102002.7   -633.46915 
  501000       500496   -6714.0389    573.26311    -7287.302    4305.0989   -11592.401    110.08466   -1463.2922   -731.50817   -928.01047   -62.639586    240.20998   -22.560654      46.7237      46.7237      46.7237           90           90           90     102002.7   -1040.9369 
  502000       501496   -6664.7083    595.35568    -7260.064    4309.5456    -11569.61    114.32713   -722.87742   -898.53751    -247.9281    44.624806   -7.8413738   -22.763126      46.7237      46.7237      46.7237           90           90           90     102002.7   -623.11434 
  503000       502496   -6714.0738    567.97288   -7282.0467    4303.1025   -11585.149    109.06877   -1321.2993   -841.20736   -1085.8303    73.788403    154.20593    -139.7077      46.7237      46.7237      46.7237           90           90           90     102002.7    -1082.779 
  504000       503496   -6721.4704    572.84729   -7294.3177     4283.362    -11577.68     110.0048   -909.92956    -1002.573   -813.60193   -11.831633    -75.07009    131.11406      46.7237      46.7237      46.7237           90           90           90     102002.7    -908.7015 
  505000       504496   -6667.1983    586.92348   -7254.1218    4330.1204   -11584.242    112.70788   -513.41887   -376.64197   -618.81725   -63.335535     77.87264    91.777339      46.7237      46.7237      46.7237           90           90           90     102002.7   -502.95936 
  506000       505496   -6686.8744    578.72395   -7265.5983    4309.4937   -11575.092    111.13331   -908.54737   -520.00226   -928.48025    69.451117   -167.27064   -91.359561      46.7237      46.7237      46.7237           90           90           90     102002.7   -785.67663 
  507000       506496   -6727.4651    571.88408   -7299.3492     4295.364   -11594.713    109.81984   -1095.1714   -1344.5575   -161.76145   -79.866681     125.3262    101.49476      46.7237      46.7237      46.7237           90           90           90     102002.7   -867.16347 
  508000       507496   -6704.3512    576.18062   -7280.5319    4304.6664   -11585.198    110.64491   -562.48902   -848.97673   -897.46664     44.56355    116.86114    279.53156      46.7237      46.7237      46.7237           90           90           90     102002.7   -769.64413 
  509000       508496   -6707.7238    566.72245   -7274.4463    4287.1264   -11561.573    108.82864    -868.4375   -809.14772   -776.92281   -32.998743   -62.330667    55.400408      46.7237      46.7237      46.7237           90           90           90     102002.7   -818.16935 
  510000       509496    -6713.562    557.45612   -7271.0182    4331.3793   -11602.397    107.04921   -756.32901   -719.90195   -549.20546    113.64551    136.91397   -140.57985      46.7237      46.7237      46.7237           90           90           90     102002.7   -675.14547 
  511000       510496    -6712.194    564.89818   -7277.0922    4299.1349   -11576.227    108.47832   -483.67326   -705.01952   -637.93917    66.359736    3.9295421   -10.867136      46.7237      46.7237      46.7237           90           90           90     102002.7   -608.87732 
  512000       511496   -6721.5354    557.05518   -7278.5905    4311.1508   -11589.741    106.97222   -1379.3793   -659.72407   -831.40801    200.55489    19.867948    85.971243      46.7237      46.7237      46.7237           90           90           90     102002.7   -956.83714 
  513000       512496   -6707.4811    582.83483   -7290.3159    4286.4275   -11576.743    111.92273   -215.42452   -805.01627   -437.37404    250.51361    192.99225   -58.421192      46.7237      46.7237      46.7237           90           90           90     102002.7   -485.93828 
  514000       513496    -6698.449    577.13611   -7275.5852    4306.9272   -11582.512    110.82839   -517.28075   -566.99358   -852.37636   -105.95384    90.832466   -10.819286      46.7237      46.7237      46.7237           90           90           90     102002.7   -645.55023 
  515000       514496   -6692.7611     587.4312   -7280.1923    4309.7795   -11589.972    112.80538   -597.43627   -453.88663   -716.81445     217.3056   0.34791043    92.587993      46.7237      46.7237      46.7237           90           90           90     102002.7   -589.37912 
  516000       515496   -6704.4395    567.94287   -7272.3824    4303.0003   -11575.383      109.063   -614.74716   -1179.9014   -195.86357   -67.502206    213.73331     119.8563      46.7237      46.7237      46.7237           90           90           90     102002.7   -663.50403 
  517000       516496   -6706.7086    570.08446    -7276.793    4310.4424   -11587.235    109.47425   -1006.5591   -886.24696   -1072.5275   -198.23091     56.08745    200.74906      46.7237      46.7237      46.7237           90           90           90     102002.7   -988.44453 
  518000       517496   -6686.1291    580.49091     -7266.62     4314.735   -11581.355    111.47262   -754.38649   -757.87453   -318.41543     63.87727    93.870784    46.521599      46.7237      46.7237      46.7237           90           90           90     102002.7   -610.22548 
  519000       518496   -6726.6155     561.4401   -7288.0556    4286.4398   -11574.495    107.81426   -795.33866   -639.81219   -545.50849   -316.69018    28.863641    124.57195      46.7237      46.7237      46.7237           90           90           90     102002.7   -660.21978 
  520000       519496   -6700.1429    564.42881   -7264.5717    4321.2725   -11585.844    108.38819   -644.52318   -829.43464   -680.74254   -184.52674   -67.086596     37.18334      46.7237      46.7237      46.7237           90           90           90     102002.7   -718.23345 
  521000       520496   -6704.4113    584.91235   -7289.3236    4289.4452   -11578.769    112.32168   -545.72214   -426.79384   -546.54154    -31.41492   -53.077149   -36.263995      46.7237      46.7237      46.7237           90           90           90     102002.7   -506.35251 
  522000       521496   -6702.2798    576.68122    -7278.961    4308.5115   -11587.473    110.74104    -858.3512   -844.87834   -641.50529    30.835631   -7.1489147    182.62988      46.7237      46.7237      46.7237           90           90           90     102002.7   -781.57828 
  523000       522496   -6696.8244    559.27756    -7256.102     4315.603   -11571.705    107.39899   -595.81159   -747.72395   -744.29679    149.14327   -141.33927   -69.747187      46.7237      46.7237      46.7237           90           90           90     102002.7   -695.94411 
  524000       523496   -6710.6363    562.04978   -7272.6861    4317.1232   -11589.809    107.93134   -993.55302    -865.7344   -679.28593   -37.447413    88.529718      74.6106      46.7237      46.7237      46.7237           90           90           90     102002.7   -846.19112 
  525000       524496   -6717.1129    559.00894   -7276.1218    4315.3469   -11591.469     107.3474     -412.247   -992.54733   -941.89734    172.57251   -137.70212    72.319264      46.7237      46.7237      46.7237           90           90           90     102002.7   -782.23056 
  526000       525496   -6693.9961    575.05554   -7269.0516    4323.8127   -11592.864    110.42886    -647.2424   -651.51259   -1321.4429    135.83233    90.373355   -85.066778      46.7237      46.7237      46.7237           90           90           90     102002.7   -873.39929 
  527000       526496   -6696.4827    583.70266   -7280.1854    4306.4813   -11586.667    112.08938   -976.37879   -412.03376   -893.73841   -80.422593   -173.41283   -341.58851      46.7237      46.7237      46.7237           90           90           90     102002.7   -760.71699 
  528000       527496   -6709.7393    556.87509   -7266.6144    4330.3923   -11597.007    106.93764   -977.63893   -821.83153   -545.97058   -118.26865    138.20739    176.14108      46.7237      46.7237      46.7237           90           90           90     102002.7   -781.81368 
  529000       528496   -6696.6807    574.90263   -7271.5834    4328.0668    -11599.65    110.39949   -887.89331   -907.03118   -726.15631   -197.21696    227.49488    236.87182      46.7237      46.7237      46.7237           90           90           90     102002.7   -840.36027 
  530000       529496   -6706.1753    561.62692   -7267.8022    4317.1357   -11584.938    107.85014    -747.8963   -722.73729   -968.13628    10.750034   -142.51546    9.1894374      46.7237      46.7237      46.7237           90           90           90     102002.7   -812.92329 
  531000       530496   -6716.9453    563.90234   -7280.8477    4319.2438   -11600.091    108.28709   -932.70537   -983.02222   -1015.8692   -197.28063    55.778119   -208.86429      46.7237      46.7237      46.7237           90           90           90     102002.7   -977.19894 
  532000       531496   -6693.5862     579.0758    -7272.662    4302.9692   -11575.631    111.20088   -927.22689   -810.19448   -508.56639    -117.3807    204.67485    98.737668      46.7237      46.7237      46.7237           90           90           90     102002.7   -748.66259 
  533000       532496   -6712.4587    584.16574   -7296.6244    4296.4706   -11593.095    112.17831    -684.8839   -415.94378   -817.71354    88.187839   -83.916991   -42.185269      46.7237      46.7237      46.7237           90           90           90     102002.7   -639.51374 
  534000       533496   -6709.5419    565.14361   -7274.6855    4316.7426   -11591.428    108.52545   -908.98811   -1028.0144   -1301.0093   -23.209791    196.55977    231.32321      46.7237      46.7237      46.7237           90           90           90     102002.7   -1079.3373 
  535000       534496   -6686.1222    570.25738   -7256.3796     4320.704   -11577.084    109.50746   -1095.4491    -747.3612   -706.02387    145.19013    197.28374   -82.970785      46.7237      46.7237      46.7237           90           90           90     102002.7   -849.61138 
  536000       535496   -6705.5326    577.64995   -7283.1826    4318.5751   -11601.758    110.92707   -337.12055     -793.905   -582.42597   -108.29819   -118.19487   -187.99235      46.7237      46.7237      46.7237           90           90           90     102002.7   -571.15051 
  537000       536496   -6697.3504    579.99945   -7277.3498     4303.272   -11580.622    111.37825    -875.6374   -1100.8531   -984.17397    103.44884    73.898946     211.7069      46.7237      46.7237      46.7237           90           90           90     102002.7   -986.88816 
  538000       537496   -6694.9652     568.1974   -7263.1626     4313.017    -11576.18    109.11188   -404.60036   -733.62416   -819.47107    93.646406   -24.441388    97.807658      46.7237      46.7237      46.7237           90           90           90     102002.7    -652.5652 
  539000       538496    -6698.428    566.34934   -7264.7774    4333.3546   -11598.132    108.75699   -909.60538   -841.28481   -957.86984   -170.45657   -42.198241   -337.04386      46.7237      46.7237      46.7237           90           90           90     102002.7   -902.92001 
  540000       539496   -6721.3117    547.71769   -7269.0294    4300.9378   -11569.967    105.17913    -872.1345    -973.8395   -596.69531    118.81016    67.545787    20.967519      46.7237      46.7237      46.7237           90           90           90     102002.7    -814.2231 
  541000       540496   -6682.5427    580.91105   -7263.4537    4344.5942   -11608.048     111.5533    -774.2771   -623.40999   -685.08507    131.18236    103.76506   -111.30383      46.7237      46.7237      46.7237           90           90           90     102002.7   -694.25739 
  542000       541496   -6700.3986    557.18172   -7257.5803    4309.3491   -11566.929    106.99652   -609.14271   -681.03767    -1171.292    45.946141   -273.93743     -114.499      46.7237      46.7237      46.7237           90           90           90     102002.7   -820.49079 
  543000       542496   -6725.4437     559.4851   -7284.9288    4294.3612    -11579.29    107.43884   -1207.8808   -1094.0956   -760.49559   -192.63609    13.852812   -366.46625      46.7237      46.7237      46.7237           90           90           90     102002.7    -1020.824 
  544000       543496   -6692.3408    584.96874   -7277.3096    4303.9652   -11581.275    112.33251   -983.93532   -814.85583   -668.86419    -153.7887   -79.906396   -13.663228      46.7237      46.7237      46.7237           90           90           90     102002.7   -822.55178 
  545000       544496   -6702.7682    573.97211   -7276.7403    4298.3866   -11575.127    110.22081   -429.35129   -679.45189   -412.70106     42.77347   -256.69574    96.959099      46.7237      46.7237      46.7237           90           90           90     102002.7   -507.16808 
  546000       545496   -6671.6339     588.4925   -7260.1264    4312.6165   -11572.743    113.00918   -788.81559   -555.66179   -478.75407   -96.763025    48.160872    136.83787      46.7237      46.7237      46.7237           90           90           90     102002.7   -607.74382 
  547000       546496    -6710.301    580.49672   -7290.7978     4293.506   -11584.304    111.47374   -826.89625   -740.16432    -762.1857    125.09911   -88.214378    99.143289      46.7237      46.7237      46.7237           90           90           90     102002.7   -776.41542 
  548000       547496   -6716.5975    556.69843   -7273.2959     4297.778   -11571.074    106.90371   -582.43345   -849.67852   -686.54816   -58.361246   -16.988389   -216.59449      46.7237      46.7237      46.7237           90           90           90     102002.7   -706.22005 
  549000       548496   -6692.2916     567.5891   -7259.8807    4319.8343   -11579.715    108.99507   -870.29374    -700.7856   -579.47357    229.65389   -66.138714    31.856892      46.7237      46.7237      46.7237           90           90           90     102002.7   -716.85097 
  550000       549496   -6722.6651    564.15825   -7286.8234    4306.8794   -11593.703    108.33624   -820.71248    -915.5208   -904.22066    475.14066    99.183696   -223.68193      46.7237      46.7237      46.7237           90           90           90     102002.7   -880.15131 
  551000       550496   -6707.8324    590.30957    -7298.142    4275.9505   -11574.093    113.35812   -798.02564   -573.51845   -826.43806    106.43095   -208.78261    16.772119      46.7237      46.7237      46.7237           90           90           90     102002.7   -732.66072 
  552000       551496   -6713.2791    573.50357   -7286.7827    4293.6871    -11580.47    110.13083   -856.07995   -848.91613   -266.05919   -129.28659   -188.95448   -41.036144      46.7237      46.7237      46.7237           90           90           90     102002.7   -657.01843 
  553000       552496   -6725.6919    552.75503   -7278.4469    4293.8564   -11572.303    106.14646   -869.95095   -971.73833   -950.44133    276.07208   -57.789745   -10.615324      46.7237      46.7237      46.7237           90           90           90     102002.7    -930.7102 
  554000       553496   -6687.2801    576.88331   -7264.1634    4328.7484   -11592.912    110.77985   -669.86049   -440.07826   -762.64471    198.26563    16.582249   -13.202849      46.7237      46.7237      46.7237           90           90           90     102002.7   -624.19448 
  555000       554496    -6706.337    578.71687   -7285.0539    4309.8316   -11594.885    111.13195   -679.23618    -674.3074   -764.59729    211.42577    122.76488    172.17403      46.7237      46.7237      46.7237           90           90           90     102002.7   -706.04696 
[...]
  936000       935496   -6691.9378    576.53631   -7268.4741    4292.4669   -11560.941    110.71321   -564.54226   -884.95381   -971.71356    125.89388   -85.546773    309.01582      46.7237      46.7237      46.7237           90           90           90     102002.7   -807.06988 
  937000       936496   -6679.3047    581.82367   -7261.1283     4311.505   -11572.633    111.72855   -1005.1432   -296.53628    -332.2905    172.71839    15.367084   -12.883933      46.7237      46.7237      46.7237           90           90           90     102002.7   -544.65666 
  938000       937496   -6710.6903    563.84858   -7274.5389     4305.157   -11579.696    108.27677   -713.75064   -603.10457   -887.80991     259.1571   -81.723235   -97.130602      46.7237      46.7237      46.7237           90           90           90     102002.7   -734.88837 
  939000       938496   -6675.8858    585.92069   -7261.8065    4324.5881   -11586.395    112.51531   -887.05958   -530.39419   -404.12543    14.810435    111.06974   -18.933719      46.7237      46.7237      46.7237           90           90           90     102002.7   -607.19307 
  940000       939496   -6697.0774    571.38755   -7268.4649    4314.0957   -11582.561    109.72449   -530.43339   -669.62831   -695.13818    78.619783   -147.57017   -227.35344      46.7237      46.7237      46.7237           90           90           90     102002.7   -631.73329 
  941000       940496   -6737.4309    565.40427   -7302.8352    4270.8719   -11573.707    108.57551   -630.46965   -382.40412   -1047.1974    25.444573    182.22462   -174.95177      46.7237      46.7237      46.7237           90           90           90     102002.7   -686.69038 
  942000       941496   -6707.9797    573.87571   -7281.8554    4314.4163   -11596.272     110.2023   -477.97176    -706.3325   -428.89796   -9.0706423    49.999179    -233.2951      46.7237      46.7237      46.7237           90           90           90     102002.7   -537.73407 
  943000       942496     -6691.44    577.47089   -7268.9109    4319.6831   -11588.594    110.89268   -876.15417   -1009.4272   -871.66505   -169.55525    44.810166   -95.178146      46.7237      46.7237      46.7237           90           90           90     102002.7   -919.08215 
  944000       943496   -6721.1973      563.013   -7284.2103    4308.8469   -11593.057    108.11631   -681.34359   -979.50645   -663.11077   -243.89067    58.492353    74.054822      46.7237      46.7237      46.7237           90           90           90     102002.7    -774.6536 
  945000       944496   -6703.4175    580.38578   -7283.8033    4320.0876   -11603.891    111.45243   -808.72061   -363.79425   -1165.8872   -143.30617    201.48142    9.1689423      46.7237      46.7237      46.7237           90           90           90     102002.7   -779.46735 
  946000       945496   -6698.1598    577.28159   -7275.4414    4311.6802   -11587.122    110.85633   -1092.1335   -591.24418   -831.13658    59.849837     284.7066    214.33519      46.7237      46.7237      46.7237           90           90           90     102002.7   -838.17143 
  947000       946496   -6721.8392    564.41485   -7286.2541     4306.432   -11592.686    108.38551   -691.63015   -845.36478   -627.75985   -185.56648   -135.15035   -269.91284      46.7237      46.7237      46.7237           90           90           90     102002.7   -721.58493 
  948000       947496   -6695.4233    588.07188   -7283.4952    4303.7927   -11587.288    112.92841   -1049.1008   -388.85801   -564.72755   -197.39187   -3.2548207    114.44787      46.7237      46.7237      46.7237           90           90           90     102002.7   -667.56213 
  949000       948496   -6702.8214    576.16336   -7278.9847    4299.5917   -11578.576     110.6416   -765.46433   -749.94845   -839.92783    39.669113    45.381968   -3.1928998      46.7237      46.7237      46.7237           90           90           90     102002.7   -785.11353 
  950000       949496   -6698.4705    575.02315   -7273.4937    4308.8165    -11582.31    110.42264   -424.49941   -612.79379   -1089.0463    45.378075    -167.7684   -54.438475      46.7237      46.7237      46.7237           90           90           90     102002.7   -708.77985 
  951000       950496   -6725.6287    570.35819   -7295.9869    4280.4717   -11576.459    109.52682   -315.28913    92.514788    -501.0139    110.17589    149.61831     26.31739      46.7237      46.7237      46.7237           90           90           90     102002.7   -241.26275 
  952000       951496   -6698.6253    575.92834   -7274.5536    4299.3432   -11573.897    110.59646   -805.16591   -625.17493   -434.73262    170.71522    92.046084    306.49692      46.7237      46.7237      46.7237           90           90           90     102002.7   -621.69115 
  953000       952496    -6704.193    557.51306   -7261.7061     4302.123   -11563.829    107.06015   -843.97313    -240.0941   -590.35054    53.466631   -26.658354   -97.899289      46.7237      46.7237      46.7237           90           90           90     102002.7   -558.13925 
  954000       953496   -6700.2435    564.12576   -7264.3693    4324.2154   -11588.585       108.33   -295.47037    -78.23637   -762.19681    -95.45253   -95.553678   -143.61156      46.7237      46.7237      46.7237           90           90           90     102002.7   -378.63452 
  955000       954496    -6697.183    574.76096   -7271.9439    4313.0965    -11585.04    110.37229   -834.01288   -527.27775    -281.8197   -10.446399   -212.98574    41.249686      46.7237      46.7237      46.7237           90           90           90     102002.7   -547.70344 
  956000       955496   -6713.9052    561.10111   -7275.0063    4306.9915   -11581.998    107.74917    -445.9719   -464.75047   -174.36678    -59.48281   -124.25812    15.948011      46.7237      46.7237      46.7237           90           90           90     102002.7   -361.69638 
  957000       956496   -6675.4714    609.85534   -7285.3267    4304.6566   -11589.983    117.11152   -760.87008   -623.35474   -815.46908    125.67667    130.50214    351.71902      46.7237      46.7237      46.7237           90           90           90     102002.7    -733.2313 
  958000       957496    -6717.224    558.81295    -7276.037    4319.2651   -11595.302    107.30977   -296.65918   -625.05077   -408.97517    36.246801   -129.69884    64.611572      46.7237      46.7237      46.7237           90           90           90     102002.7   -443.56171 
  959000       958496   -6683.9445    584.14052    -7268.085    4320.2653    -11588.35    112.17346   -1039.6787   -698.50302   -694.21185   -154.91656   -213.76122     119.9438      46.7237      46.7237      46.7237           90           90           90     102002.7   -810.79785 
  960000       959496   -6714.1902    564.40894   -7278.5991    4291.3493   -11569.948    108.38437   -581.35865   -873.54326   -558.24177   -126.63058    51.327825    128.17503      46.7237      46.7237      46.7237           90           90           90     102002.7   -671.04789 
  961000       960496   -6702.2301    576.18608   -7278.4162    4327.4387   -11605.855    110.64596   -524.02746    -887.1041   -831.78418   -91.518053    71.639142    186.68371      46.7237      46.7237      46.7237           90           90           90     102002.7   -747.63858 
  962000       961496   -6689.7247    577.51933   -7267.2441    4308.7004   -11575.944    110.90199   -399.58618    -1417.558   -546.58317   -245.67348    15.322901   -161.41427      46.7237      46.7237      46.7237           90           90           90     102002.7   -787.90912 
  963000       962496   -6718.6975    580.78162   -7299.4791    4274.5546   -11574.034    111.52845   -602.10957   -495.41134   -433.31098   -199.08871    16.545273   -34.551555      46.7237      46.7237      46.7237           90           90           90     102002.7   -510.27729 
  964000       963496   -6708.0659    578.05011    -7286.116    4303.1573   -11589.273    111.00391   -423.44837   -1082.3203   -866.29101    -38.97401   -85.228842     -23.7086      46.7237      46.7237      46.7237           90           90           90     102002.7   -790.68655 
  965000       964496   -6704.1723    592.57006   -7296.7424    4277.7303   -11574.473     113.7922    -853.1818   -545.95801   -283.79147     35.39964    117.14236    199.00366      46.7237      46.7237      46.7237           90           90           90     102002.7   -560.97709 
  966000       965496   -6724.8385    571.24421   -7296.0827    4274.6459   -11570.729    109.69696   -506.65832   -925.45153   -11.956844   -239.26609    132.50531     9.904794      46.7237      46.7237      46.7237           90           90           90     102002.7   -481.35556 
  967000       966496   -6697.3751    587.18209   -7284.5572    4300.9531    -11585.51    112.75754   -1201.0261    -562.7845   -478.23177     27.44281     38.07431    56.870798      46.7237      46.7237      46.7237           90           90           90     102002.7   -747.34744 
  968000       967496   -6680.2422    582.84306   -7263.0853    4308.2376   -11571.323    111.92431   -1097.0948   -551.57594   -223.80308   -454.08551   -143.93163    24.522077      46.7237      46.7237      46.7237           90           90           90     102002.7   -624.15793 
  969000       968496   -6708.8133    566.91436   -7275.7276    4306.6811   -11582.409    108.86549   -907.67129   -1008.3756   -1047.2138   -144.62822    19.577623    158.61865      46.7237      46.7237      46.7237           90           90           90     102002.7   -987.75358 
  970000       969496   -6718.5826    560.02174   -7278.6044    4303.4671   -11582.072    107.54189   -469.72797   -429.92469   -876.46033   0.21117709   -60.006409   -2.5075959      46.7237      46.7237      46.7237           90           90           90     102002.7   -592.03766 
  971000       970496   -6706.8496    578.28975   -7285.1394    4303.0788   -11588.218    111.04993    -1137.103   -1057.7945   -780.59799    117.04656    61.418691    97.229902      46.7237      46.7237      46.7237           90           90           90     102002.7   -991.83183 
  972000       971496   -6720.2656    556.67349   -7276.9391    4301.2363   -11578.175    106.89892   -591.87002   -512.89962   -986.15417   -63.121915    117.89965    117.90236      46.7237      46.7237      46.7237           90           90           90     102002.7    -696.9746 
  973000       972496   -6687.5153    583.35831   -7270.8736    4300.3447   -11571.218    112.02325   -634.38147   -584.92258   -635.75949   -195.58461     69.69934    201.34191      46.7237      46.7237      46.7237           90           90           90     102002.7   -618.35452 
  974000       973496   -6714.8459    573.43762   -7288.2835    4293.6463    -11581.93    110.11817     -202.549   -816.43783   -152.51934   -191.97111    211.63641    155.53395      46.7237      46.7237      46.7237           90           90           90     102002.7   -390.50205 
  975000       974496   -6691.1072    588.77914   -7279.8863    4293.4285   -11573.315    113.06422    -612.8283   -525.48243   -566.57342    232.05043    186.71469   -138.49881      46.7237      46.7237      46.7237           90           90           90     102002.7   -568.29472 
  976000       975496   -6738.6223    558.31509   -7296.9374    4280.1442   -11577.082    107.21416   -531.96548   -907.76529   -974.26538    164.94865    91.032242    81.841496      46.7237      46.7237      46.7237           90           90           90     102002.7   -804.66538 
  977000       976496   -6710.6313    574.46757   -7285.0988    4296.4292   -11581.528    110.31595   -756.15693   -733.85038   -506.64606   -321.15665    122.59685   -32.894765      46.7237      46.7237      46.7237           90           90           90     102002.7   -665.55112 
  978000       977496   -6668.2228    599.02959   -7267.2524    4320.5301   -11587.782    115.03264   -1124.0727   -754.08703   -745.40803   -170.78858   -167.64685     147.6481      46.7237      46.7237      46.7237           90           90           90     102002.7    -874.5226 
  979000       978496   -6708.3479    566.83151   -7275.1794    4309.6678   -11584.847    108.84958   -945.57586   -690.47633   -653.09209   -168.40234   -76.701017    -72.40192      46.7237      46.7237      46.7237           90           90           90     102002.7   -763.04809 
  980000       979496   -6682.2884    588.88137   -7271.1698    4327.3179   -11598.488    113.08386   -1000.8921    -984.8662   -1056.6072   -66.534947    151.11407   -236.53128      46.7237      46.7237      46.7237           90           90           90     102002.7   -1014.1218 
  981000       980496   -6710.5604    556.42517   -7266.9855    4318.8001   -11585.786    106.85124   -1027.5919   -1125.8067   -962.46657   -28.507556   -74.003571    216.31239      46.7237      46.7237      46.7237           90           90           90     102002.7   -1038.6217 
  982000       981496   -6666.6841    599.14133   -7265.8254    4322.6596   -11588.485    115.05409   -536.12547   -465.86164   -1177.8706   -39.507425    1.4981036    94.385018      46.7237      46.7237      46.7237           90           90           90     102002.7   -726.61925 
  983000       982496   -6700.1943    578.64274   -7278.8371    4288.9967   -11567.834    111.11771   -894.66563   -624.55125   -787.21149    169.72111     142.5864    30.898588      46.7237      46.7237      46.7237           90           90           90     102002.7   -768.80946 
  984000       983496   -6710.2811    569.81233   -7280.0935     4303.272   -11583.366      109.422   -690.61079   -744.40525   -722.50991   -195.24851    195.06522    43.574516      46.7237      46.7237      46.7237           90           90           90     102002.7   -719.17532 
  985000       984496   -6682.5446    568.31549   -7250.8601     4314.679   -11565.539    109.13456   -375.04349    -905.1403   -677.11823    134.95077   -152.75569    81.279068      46.7237      46.7237      46.7237           90           90           90     102002.7   -652.43401 
  986000       985496   -6719.3575    557.12104   -7276.4786    4320.4085   -11596.887    106.98487   -747.90347    -1061.756   -902.23256   -218.74554   -135.95412    12.693092      46.7237      46.7237      46.7237           90           90           90     102002.7   -903.96401 
  987000       986496    -6694.298    593.62446   -7287.9225    4292.1637   -11580.086    113.99468   -620.40873   -647.19436   -618.07145   -152.23332   -31.948433   -205.14508      46.7237      46.7237      46.7237           90           90           90     102002.7   -628.55818 
  988000       987496   -6691.9152    586.25357   -7278.1687    4302.6495   -11580.818    112.57924   -572.49972    -819.0712   -960.67131    -90.08809    366.66267   -20.164094      46.7237      46.7237      46.7237           90           90           90     102002.7   -784.08074 
  989000       988496   -6720.6438    566.28673   -7286.9305    4305.2908   -11592.221    108.74497   -478.06883   -456.64677   -582.62753    70.623273    35.127864   -39.709844      46.7237      46.7237      46.7237           90           90           90     102002.7   -505.78104 
  990000       989496   -6691.6011    580.43113   -7272.0322    4306.6525   -11578.685    111.46114   -845.08171    -589.3206   -930.79939    -33.65564   -107.09035   -74.752482      46.7237      46.7237      46.7237           90           90           90     102002.7   -788.40057 
  991000       990496   -6698.2527    576.43032    -7274.683    4306.3001   -11580.983    110.69286   -472.93136     -474.307   -583.48362    24.227475   -127.95549    126.44291      46.7237      46.7237      46.7237           90           90           90     102002.7   -510.24066 
  992000       991496   -6719.3401    570.17777   -7289.5179    4291.4355   -11580.953    109.49217   -1045.4519   -360.48199   -449.51721   -45.022788   -96.127753   -63.415364      46.7237      46.7237      46.7237           90           90           90     102002.7    -618.4837 
  993000       992496   -6702.8587    576.00708   -7278.8658    4318.4127   -11597.278    110.61158    -735.2843   -1079.3381   -625.41231    74.204298   -50.630745   -156.97463      46.7237      46.7237      46.7237           90           90           90     102002.7    -813.3449 
  994000       993496   -6710.8075    568.91478   -7279.7223    4298.2949   -11578.017    109.24964   -541.95818   -983.09065   -1045.1612    33.940249    38.995531   -157.44015      46.7237      46.7237      46.7237           90           90           90     102002.7   -856.73667 
  995000       994496   -6706.2924    569.54201   -7275.8344    4303.0854    -11578.92    109.37009   -519.63405   -465.56602   -556.64194   -10.433559    150.86536   -73.746735      46.7237      46.7237      46.7237           90           90           90     102002.7   -513.94734 
  996000       995496   -6709.9988    577.80036   -7287.7991     4295.659   -11583.458    110.95595   -678.08897   -664.31011   -622.27425   -12.069099    23.214253   -371.83333      46.7237      46.7237      46.7237           90           90           90     102002.7   -654.89111 
  997000       996496   -6716.4343    551.09248   -7267.5268    4315.9723   -11583.499    105.82719   -1060.4199   -827.26042   -939.86369   -51.676161    27.847713   -1.4960873      46.7237      46.7237      46.7237           90           90           90     102002.7   -942.51466 
  998000       997496   -6705.2891    567.70208   -7272.9911     4325.306   -11598.297    109.01676   -700.18545   -603.09923   -1020.1422   -7.3053352    7.0199475   -79.612335      46.7237      46.7237      46.7237           90           90           90     102002.7   -774.47564 
  999000       998496   -6704.6822    566.29031   -7270.9725    4296.4892   -11567.462    108.74566   -1151.9476   -244.27275   -584.96581    83.819234      149.033   -260.97327      46.7237      46.7237      46.7237           90           90           90     102002.7   -660.39538 
 1000000       999496   -6716.9761    573.90836   -7290.8844    4311.7931   -11602.678    110.20856   -657.70011   -1057.6748   -1094.9398    2.8810897    166.30624    33.121517      46.7237      46.7237      46.7237           90           90           90     102002.7   -936.77158 
 1000504      1000000   -6725.0672    555.84497   -7280.9122     4312.142   -11593.054    106.73982   -1293.2066   -1064.4124   -842.06662   -596.51197     -14.4364   -140.86512      46.7237      46.7237      46.7237           90           90           90     102002.7   -1066.5619 
Loop time of 653.483 on 24 procs for 500000 steps with 1748 atoms

Performance: 66.107 ns/day, 0.363 hours/ns, 765.130 timesteps/s
99.9% CPU use with 24 MPI tasks x no OpenMP threads

MPI task timing breakdown:
Section |  min time  |  avg time  |  max time  |%varavg| %total
---------------------------------------------------------------
Pair    | 201.8      | 306.38     | 436.5      | 411.8 | 46.88
Bond    | 65.248     | 82.39      | 97.543     | 100.0 | 12.61
Neigh   | 1.9696     | 1.991      | 2.008      |   1.0 |  0.30
Comm    | 103.94     | 247.14     | 368.85     | 506.9 | 37.82
Output  | 0.36739    | 0.39451    | 0.39582    |   0.9 |  0.06
Modify  | 11.692     | 12.199     | 12.491     |   6.4 |  1.87
Other   |            | 2.987      |            |       |  0.46

Nlocal:    72.8333 ave 98 max 49 min
Histogram: 3 1 1 3 2 5 6 1 0 2
Nghost:    1995.96 ave 2156 max 1905 min
Histogram: 10 6 0 0 0 0 0 0 2 6
Neighs:    7633.96 ave 11832 max 3669 min
Histogram: 2 2 2 4 3 3 2 1 3 2

Total # of neighbors = 183215
Ave neighs/atom = 104.814
Ave special neighs/atom = 6.59039
Neighbor list builds = 3545
Dangerous builds = 0
Total wall time: 0:20:33
