LAMMPS (30 Mar 2018)
Reading data file ...
  orthogonal box = (0 0 0) to (46.7237 46.7237 46.7237)
  2 by 2 by 4 MPI processor grid
  reading atoms ...
  1729 atoms
  scanning bonds ...
  5 = max bonds/atom
  scanning angles ...
  10 = max angles/atom
  scanning dihedrals ...
  32 = max dihedrals/atom
  scanning impropers ...
  3 = max impropers/atom
  reading bonds ...
  2064 bonds
  reading angles ...
  3696 angles
  reading dihedrals ...
  6240 dihedrals
  reading impropers ...
  1008 impropers
Finding 1-2 1-3 1-4 neighbors ...
  special bond factors lj:   0          0          0         
  special bond factors coul: 0          0          0         
  5 = max # of 1-2 neighbors
  8 = max # of 1-3 neighbors
  20 = max # of 1-4 neighbors
  19 = max # of special neighbors
Finding 1-2 1-3 1-4 neighbors ...
  special bond factors lj:   0          0          1         
  special bond factors coul: 1          1          1         
  5 = max # of 1-2 neighbors
  8 = max # of 1-3 neighbors
  19 = max # of special neighbors
WARNING: Using 'neigh_modify every 1 delay 0 check yes' setting during minimization (../min.cpp:168)
Neighbor list info ...
  update every 1 steps, delay 0 steps, check yes
  max neighbors/atom: 2000, page size: 100000
  master list distance cutoff = 16
  ghost atom cutoff = 16
  binsize = 8, bins = 6 6 6
  3 neighbor lists, perpetual/occasional/extra = 3 0 0
  (1) pair buck6d/coul/gauss/dsf, perpetual, skip from (3)
      attributes: half, newton on
      pair build: skip
      stencil: none
      bin: none
  (2) pair lj/cut, perpetual, skip from (3)
      attributes: half, newton on
      pair build: skip
      stencil: none
      bin: none
  (3) neighbor class addition, perpetual
      attributes: half, newton on
      pair build: half/bin/newton
      stencil: half/bin/3d/newton
      bin: standard
Setting up cg style minimization ...
  Unit style    : real
  Current step  : 0
WARNING: Inconsistent image flags (../domain.cpp:786)
Per MPI rank memory allocation (min/avg/max) = 22.89 | 23.35 | 23.79 Mbytes
Step Temp E_pair E_mol TotEng Press 
       0            0    -11515.73    6482.8914   -5032.8388    6290.1091 
     498            0   -11542.256    3748.4814   -7793.7748   -496.34708 
Loop time of 2.7701 on 16 procs for 498 steps with 1729 atoms

99.8% CPU use with 16 MPI tasks x no OpenMP threads

Minimization stats:
  Stopping criterion = max force evaluations
  Energy initial, next-to-last, final = 
        -5032.83884637     -7793.66484147     -7793.77483445
  Force two-norm initial, final = 2577 14.9062
  Force max component initial, final = 151.958 2.35994
  Final line search alpha, max atom move = 0.00414508 0.00978212
  Iterations, force evaluations = 498 1001

MPI task timing breakdown:
Section |  min time  |  avg time  |  max time  |%varavg| %total
---------------------------------------------------------------
Pair    | 1.1892     | 1.5748     | 1.9133     |  18.6 | 56.85
Bond    | 0.32737    | 0.36186    | 0.39638    |   3.2 | 13.06
Neigh   | 0.017754   | 0.017809   | 0.017942   |   0.0 |  0.64
Comm    | 0.44558    | 0.77603    | 1.1541     |  25.2 | 28.01
Output  | 0          | 0          | 0          |   0.0 |  0.00
Modify  | 0          | 0          | 0          |   0.0 |  0.00
Other   |            | 0.03963    |            |       |  1.43

Nlocal:    108.062 ave 123 max 93 min
Histogram: 1 0 3 1 3 2 3 1 1 1
Nghost:    2183.19 ave 2198 max 2168 min
Histogram: 1 1 0 3 2 2 3 2 1 1
Neighs:    11440.5 ave 15521 max 7653 min
Histogram: 2 2 2 3 0 1 0 2 0 4

Total # of neighbors = 183048
Ave neighs/atom = 105.869
Ave special neighs/atom = 6.66281
Neighbor list builds = 15
Dangerous builds = 0
Neighbor list info ...
  update every 1 steps, delay 10 steps, check yes
  max neighbors/atom: 2000, page size: 100000
  master list distance cutoff = 16
  ghost atom cutoff = 16
  binsize = 8, bins = 6 6 6
  3 neighbor lists, perpetual/occasional/extra = 3 0 0
  (1) pair buck6d/coul/gauss/dsf, perpetual, skip from (3)
      attributes: half, newton on
      pair build: skip
      stencil: none
      bin: none
  (2) pair lj/cut, perpetual, skip from (3)
      attributes: half, newton on
      pair build: skip
      stencil: none
      bin: none
  (3) neighbor class addition, perpetual
      attributes: half, newton on
      pair build: half/bin/newton
      stencil: half/bin/3d/newton
      bin: standard
Setting up Verlet run ...
  Unit style    : real
  Current step  : 498
  Time step     : 1
WARNING: Inconsistent image flags (../domain.cpp:786)
Per MPI rank memory allocation (min/avg/max) = 22.54 | 22.64 | 22.75 Mbytes
Step Temp PotEng TotEng Press Volume Lx Ly Lz 
     498           91   -7793.7748   -7325.0484   -286.28842     102002.7      46.7237      46.7237      46.7237 
    1000    81.571478   -7379.5599   -6959.3983    -690.2147     102002.7      46.7237      46.7237      46.7237 
    2000    95.540179   -7334.3996   -6842.2874   -589.93075     102002.7      46.7237      46.7237      46.7237 
    3000     90.96692   -7333.1106   -6864.5545   -766.24935     102002.7      46.7237      46.7237      46.7237 
    4000    88.492646   -7323.0508   -6867.2393   -522.92157     102002.7      46.7237      46.7237      46.7237 
    5000    92.666959   -7321.3134   -6844.0008   -666.01534     102002.7      46.7237      46.7237      46.7237 
    6000    88.920862   -7342.5976   -6884.5805   -248.56317     102002.7      46.7237      46.7237      46.7237 
    7000    94.036966   -7329.7258   -6845.3565   -597.56318     102002.7      46.7237      46.7237      46.7237 
    8000    88.758108   -7329.2813   -6872.1026   -769.02211     102002.7      46.7237      46.7237      46.7237 
    9000    89.392275    -7318.892   -6858.4467   -475.63439     102002.7      46.7237      46.7237      46.7237 
   10000     93.09925     -7339.99   -6860.4507   -424.10988     102002.7      46.7237      46.7237      46.7237 
   11000    90.858454   -7317.6726   -6849.6753   -626.50909     102002.7      46.7237      46.7237      46.7237 
   12000     90.35784   -7328.8251   -6863.4063    -683.1055     102002.7      46.7237      46.7237      46.7237 
   13000    94.662641   -7318.1569   -6830.5648   -770.02716     102002.7      46.7237      46.7237      46.7237 
   14000     90.08539   -7323.9666   -6859.9512   -711.85031     102002.7      46.7237      46.7237      46.7237 
   15000    89.804556   -7309.1584   -6846.5896   -567.09605     102002.7      46.7237      46.7237      46.7237 
   16000    89.231005    -7332.336   -6872.7214   -800.13349     102002.7      46.7237      46.7237      46.7237 
   17000    89.490057   -7352.5778   -6891.6289   -527.89406     102002.7      46.7237      46.7237      46.7237 
   18000    92.497451   -7332.6327   -6856.1931   -786.95515     102002.7      46.7237      46.7237      46.7237 
   19000    87.726768   -7327.9477   -6876.0812   -934.84601     102002.7      46.7237      46.7237      46.7237 
   20000    90.124348     -7316.83    -6852.614   -759.41847     102002.7      46.7237      46.7237      46.7237 
   21000    93.948039   -7334.3691   -6850.4578   -538.23222     102002.7      46.7237      46.7237      46.7237 
   22000    89.405915    -7323.197   -6862.6814   -730.41327     102002.7      46.7237      46.7237      46.7237 
   23000    92.001777   -7313.1591   -6839.2727    -650.5889     102002.7      46.7237      46.7237      46.7237 
   24000    88.971562   -7323.9488   -6865.6705   -862.51545     102002.7      46.7237      46.7237      46.7237 
   25000    91.557215   -7324.3929   -6852.7964   -661.19527     102002.7      46.7237      46.7237      46.7237 
   26000     95.41129   -7321.3245   -6829.8763   -847.20422     102002.7      46.7237      46.7237      46.7237 
   27000    93.103094    -7329.333   -6849.7739   -878.83629     102002.7      46.7237      46.7237      46.7237 
   28000    93.642976   -7311.6606   -6829.3207   -619.38537     102002.7      46.7237      46.7237      46.7237 
   29000    93.670312   -7348.5757   -6866.0949   -733.29207     102002.7      46.7237      46.7237      46.7237 
   30000    91.635879   -7317.5672   -6845.5655   -589.23713     102002.7      46.7237      46.7237      46.7237 
   31000    92.990741   -7318.4925   -6839.5121   -644.62373     102002.7      46.7237      46.7237      46.7237 
   32000    90.562672    -7330.035   -6863.5612   -866.17821     102002.7      46.7237      46.7237      46.7237 
   33000    92.907377   -7315.8168   -6837.2658   -842.89343     102002.7      46.7237      46.7237      46.7237 
   34000    90.817121   -7311.5631   -6843.7787   -929.75209     102002.7      46.7237      46.7237      46.7237 
   35000    91.213836   -7335.0557   -6865.2279   -679.85942     102002.7      46.7237      46.7237      46.7237 
   36000    93.352795   -7330.6443    -6849.799    -605.1658     102002.7      46.7237      46.7237      46.7237 
   37000    92.253788   -7328.1627   -6852.9782   -746.00736     102002.7      46.7237      46.7237      46.7237 
   38000    89.680502   -7338.3708   -6876.4409   -898.79471     102002.7      46.7237      46.7237      46.7237 
   39000    89.237168   -7319.7267   -6860.0804   -546.96839     102002.7      46.7237      46.7237      46.7237 
   40000     87.47693   -7328.2231   -6877.6435   -884.21757     102002.7      46.7237      46.7237      46.7237 
   41000    89.166161   -7325.7205   -6866.4399   -694.38695     102002.7      46.7237      46.7237      46.7237 
   42000    90.227488   -7303.7459   -6838.9986   -694.94751     102002.7      46.7237      46.7237      46.7237 
   43000    89.767486   -7320.8257   -6858.4478   -759.73105     102002.7      46.7237      46.7237      46.7237 
   44000    89.842715    -7334.334   -6871.5686   -793.69838     102002.7      46.7237      46.7237      46.7237 
   45000    90.310697   -7319.1197   -6853.9438   -782.85606     102002.7      46.7237      46.7237      46.7237 
   46000    92.177197   -7310.9239   -6836.1339   -744.40572     102002.7      46.7237      46.7237      46.7237 
   47000     88.44644   -7317.8979   -6862.3245    -502.8341     102002.7      46.7237      46.7237      46.7237 
   48000    90.207198   -7313.9289   -6849.2861   -729.47763     102002.7      46.7237      46.7237      46.7237 
   49000     90.54259   -7334.6541   -6868.2837   -487.43316     102002.7      46.7237      46.7237      46.7237 
   50000    90.206356   -7304.5713   -6839.9328   -567.73601     102002.7      46.7237      46.7237      46.7237 
   51000    92.940407   -7309.4299   -6830.7088   -647.12928     102002.7      46.7237      46.7237      46.7237 
   52000    90.780516   -7325.1847   -6857.5888   -698.65602     102002.7      46.7237      46.7237      46.7237 
   53000    92.930607   -7317.8692   -6839.1985   -726.69265     102002.7      46.7237      46.7237      46.7237 
   54000    90.159249     -7328.12   -6863.7241   -731.12096     102002.7      46.7237      46.7237      46.7237 
   55000    93.440267   -7318.9534   -6837.6575   -729.99169     102002.7      46.7237      46.7237      46.7237 
   56000    92.119256   -7338.1523   -6863.6607    -617.2872     102002.7      46.7237      46.7237      46.7237 
   57000     90.48528   -7335.1781   -6869.1029   -709.77138     102002.7      46.7237      46.7237      46.7237 
   58000    92.949455    -7318.306   -6839.5383   -642.30032     102002.7      46.7237      46.7237      46.7237 
   59000    92.795248   -7336.1792   -6858.2057   -504.33075     102002.7      46.7237      46.7237      46.7237 
   60000    88.423273   -7324.2887   -6868.8346   -793.15616     102002.7      46.7237      46.7237      46.7237 
   61000    90.669573   -7316.6371   -6849.6127   -585.82647     102002.7      46.7237      46.7237      46.7237 
   62000    95.243066   -7324.9711   -6834.3894    -746.9066     102002.7      46.7237      46.7237      46.7237 
   63000    87.821239   -7323.2378   -6870.8847    -505.9866     102002.7      46.7237      46.7237      46.7237 
   64000    93.738947    -7322.619   -6839.7847   -606.08328     102002.7      46.7237      46.7237      46.7237 
   65000    89.730582   -7322.7465   -6860.5586   -831.83793     102002.7      46.7237      46.7237      46.7237 
   66000    93.531911   -7309.3748   -6827.6069   -413.38875     102002.7      46.7237      46.7237      46.7237 
   67000    90.894343   -7320.0458   -6851.8636   -565.45906     102002.7      46.7237      46.7237      46.7237 
   68000     88.55988   -7321.1616   -6865.0038   -449.47873     102002.7      46.7237      46.7237      46.7237 
   69000    90.864966   -7327.9694   -6859.9385    -486.5726     102002.7      46.7237      46.7237      46.7237 
   70000     93.52393   -7331.8603   -6850.1335   -536.74643     102002.7      46.7237      46.7237      46.7237 
   71000    90.598592   -7334.8996   -6868.2408   -500.30411     102002.7      46.7237      46.7237      46.7237 
   72000    91.051431    -7330.181   -6861.1897   -609.24364     102002.7      46.7237      46.7237      46.7237 
   73000     92.53173   -7310.2531    -6833.637   -421.06622     102002.7      46.7237      46.7237      46.7237 
   74000    91.520109   -7318.9222   -6847.5168   -799.41094     102002.7      46.7237      46.7237      46.7237 
   75000    92.382061   -7329.8581   -6854.0129   -356.56461     102002.7      46.7237      46.7237      46.7237 
   76000    92.021885   -7316.9362   -6842.9462   -627.49642     102002.7      46.7237      46.7237      46.7237 
   77000    90.643547   -7333.6226   -6866.7322   -867.82028     102002.7      46.7237      46.7237      46.7237 
   78000    89.860121   -7324.1795   -6861.3244    -819.2204     102002.7      46.7237      46.7237      46.7237 
   79000    92.036435   -7324.0601   -6849.9952   -746.89255     102002.7      46.7237      46.7237      46.7237 
   80000    89.363434   -7327.1264   -6866.8297   -798.26369     102002.7      46.7237      46.7237      46.7237 
   81000    88.586332   -7322.5479   -6866.2539   -863.63224     102002.7      46.7237      46.7237      46.7237 
   82000     92.25266     -7326.82   -6851.6414    -699.4529     102002.7      46.7237      46.7237      46.7237 
   83000    88.624997   -7320.4764   -6863.9832   -752.16723     102002.7      46.7237      46.7237      46.7237 
   84000    90.853102   -7315.8498     -6847.88     -673.201     102002.7      46.7237      46.7237      46.7237 
   85000    91.382528   -7337.1388    -6866.442   -766.39827     102002.7      46.7237      46.7237      46.7237 
   86000    92.940109    -7308.679   -6829.9594   -552.31498     102002.7      46.7237      46.7237      46.7237 
   87000    92.825826   -7339.1144   -6860.9835   -651.60595     102002.7      46.7237      46.7237      46.7237 
   88000    92.953568   -7315.8858   -6837.0968   -579.73179     102002.7      46.7237      46.7237      46.7237 
   89000    90.443782   -7306.4529   -6840.5915   -928.62354     102002.7      46.7237      46.7237      46.7237 
   90000    96.162022   -7335.1426   -6839.8275   -760.23413     102002.7      46.7237      46.7237      46.7237 
   91000    88.938335    -7340.251   -6882.1439   -619.08414     102002.7      46.7237      46.7237      46.7237 
   92000    87.718384   -7303.4184   -6851.5951     -546.164     102002.7      46.7237      46.7237      46.7237 
   93000    90.339468   -7327.2653   -6861.9411   -456.28769     102002.7      46.7237      46.7237      46.7237 
   94000     88.93028   -7302.4755   -6844.4098   -363.85346     102002.7      46.7237      46.7237      46.7237 
   95000    88.230404   -7330.6115   -6876.1509   -777.40743     102002.7      46.7237      46.7237      46.7237 
   96000    91.598836   -7331.2849    -6859.474   -769.91254     102002.7      46.7237      46.7237      46.7237 
   97000    88.720123   -7323.4302   -6866.4471   -628.41539     102002.7      46.7237      46.7237      46.7237 
   98000    90.691566   -7312.2747    -6845.137   -868.29319     102002.7      46.7237      46.7237      46.7237 
   99000    90.265785   -7320.9646     -6856.02   -721.53965     102002.7      46.7237      46.7237      46.7237 
  100000    90.891219   -7331.3927   -6863.2266   -829.39113     102002.7      46.7237      46.7237      46.7237 
  101000    88.524354   -7331.2936   -6875.3188   -773.85366     102002.7      46.7237      46.7237      46.7237 
  102000    88.802952   -7327.2049   -6869.7951   -635.53747     102002.7      46.7237      46.7237      46.7237 
  103000     91.63603   -7322.2857   -6850.2831   -563.58474     102002.7      46.7237      46.7237      46.7237 
  104000    86.215494   -7334.0615   -6889.9793   -588.68338     102002.7      46.7237      46.7237      46.7237 
  105000    90.200029   -7310.9214   -6846.3155   -960.68397     102002.7      46.7237      46.7237      46.7237 
  106000    90.367667   -7315.5053   -6850.0359   -690.55198     102002.7      46.7237      46.7237      46.7237 
  107000     90.76863   -7333.1436    -6865.609   -635.87363     102002.7      46.7237      46.7237      46.7237 
  108000    90.632776   -7318.4944   -6851.6595   -813.67224     102002.7      46.7237      46.7237      46.7237 
  109000    90.561705   -7321.9681   -6855.4993   -429.78889     102002.7      46.7237      46.7237      46.7237 
  110000     91.80438   -7325.0338   -6852.1641    -931.2152     102002.7      46.7237      46.7237      46.7237 
  111000    90.303706   -7329.5641   -6864.4242   -649.31963     102002.7      46.7237      46.7237      46.7237 
  112000    93.598592   -7316.2521   -6834.1407   -711.75797     102002.7      46.7237      46.7237      46.7237 
  113000    90.953265   -7314.4559   -6845.9702   -854.30083     102002.7      46.7237      46.7237      46.7237 
  114000    89.381811   -7325.6659   -6865.2745   -599.86616     102002.7      46.7237      46.7237      46.7237 
  115000    91.924588    -7322.544   -6849.0552   -828.81945     102002.7      46.7237      46.7237      46.7237 
  116000    93.300478   -7325.7734   -6845.1976   -522.85278     102002.7      46.7237      46.7237      46.7237 
  117000    88.209782   -7343.5633   -6889.2088   -848.90098     102002.7      46.7237      46.7237      46.7237 
  118000    93.352213   -7321.2802   -6840.4379   -466.26679     102002.7      46.7237      46.7237      46.7237 
  119000    91.733916   -7322.3723   -6849.8655   -642.05349     102002.7      46.7237      46.7237      46.7237 
  120000    91.805548   -7334.7698   -6861.8941   -702.33011     102002.7      46.7237      46.7237      46.7237 
  121000    92.262984   -7316.6571   -6841.4252   -630.52257     102002.7      46.7237      46.7237      46.7237 
  122000    89.096114   -7314.9469   -6856.0271   -732.98214     102002.7      46.7237      46.7237      46.7237 
  123000    91.973585    -7327.495   -6853.7538   -720.17997     102002.7      46.7237      46.7237      46.7237 
  124000    91.163728   -7322.0531   -6852.4834   -708.04486     102002.7      46.7237      46.7237      46.7237 
  125000    91.127975   -7330.4272   -6861.0416   -441.77192     102002.7      46.7237      46.7237      46.7237 
  126000    89.571476    -7340.123   -6878.7547   -614.42494     102002.7      46.7237      46.7237      46.7237 
  127000    92.460317   -7339.9193    -6863.671    -904.9825     102002.7      46.7237      46.7237      46.7237 
  128000    91.812146   -7312.1868   -6839.2771   -747.42391     102002.7      46.7237      46.7237      46.7237 
  129000    87.879796   -7335.5427   -6882.8879   -839.52893     102002.7      46.7237      46.7237      46.7237 
  130000    91.803095   -7316.2428   -6843.3798   -645.10456     102002.7      46.7237      46.7237      46.7237 
  131000    90.741262   -7335.3214   -6867.9277   -624.45951     102002.7      46.7237      46.7237      46.7237 
  132000    91.638737   -7329.5811   -6857.5646   -669.71224     102002.7      46.7237      46.7237      46.7237 
  133000    91.425172   -7316.2794    -6845.363   -431.19799     102002.7      46.7237      46.7237      46.7237 
  134000    89.205632   -7322.8845   -6863.4006   -552.03924     102002.7      46.7237      46.7237      46.7237 
  135000    91.378319   -7319.0691    -6848.394   -590.07722     102002.7      46.7237      46.7237      46.7237 
  136000    89.272364   -7335.8044   -6875.9767   -567.91439     102002.7      46.7237      46.7237      46.7237 
  137000     90.89485   -7311.5714   -6843.3866   -685.38677     102002.7      46.7237      46.7237      46.7237 
  138000    89.070607   -7316.7497   -6857.9613   -772.21457     102002.7      46.7237      46.7237      46.7237 
  139000    92.624213   -7321.2022   -6844.1097   -684.64966     102002.7      46.7237      46.7237      46.7237 
  140000    92.145291   -7343.4095   -6868.7839    -716.1582     102002.7      46.7237      46.7237      46.7237 
  141000    88.907794   -7319.4617   -6861.5119    -662.9548     102002.7      46.7237      46.7237      46.7237 
  142000    91.383643   -7326.9902   -6856.2877   -623.03465     102002.7      46.7237      46.7237      46.7237 
  143000    88.569175    -7326.086   -6869.8804   -672.09244     102002.7      46.7237      46.7237      46.7237 
  144000    89.669523   -7316.8752   -6855.0019   -584.34818     102002.7      46.7237      46.7237      46.7237 
  145000    88.812949    -7329.771   -6872.3097   -787.86673     102002.7      46.7237      46.7237      46.7237 
  146000    90.167489   -7325.4336   -6860.9953   -631.10931     102002.7      46.7237      46.7237      46.7237 
  147000    90.721947   -7328.1772    -6860.883   -982.00311     102002.7      46.7237      46.7237      46.7237 
  148000    90.801027   -7352.1318   -6884.4303   -622.40226     102002.7      46.7237      46.7237      46.7237 
  149000    92.689203    -7319.736   -6842.3088   -709.25658     102002.7      46.7237      46.7237      46.7237 
  150000    89.387365   -7321.8398   -6861.4198   -809.14656     102002.7      46.7237      46.7237      46.7237 
  151000    91.624332   -7302.1944   -6830.2522   -511.55849     102002.7      46.7237      46.7237      46.7237 
  152000    91.873974   -7315.3008   -6842.0726   -845.26069     102002.7      46.7237      46.7237      46.7237 
  153000    86.379475   -7331.1602   -6886.2333   -390.19127     102002.7      46.7237      46.7237      46.7237 
  154000    91.218888    -7324.408   -6854.5542   -605.10418     102002.7      46.7237      46.7237      46.7237 
  155000    92.422169   -7321.8338    -6845.782   -795.44856     102002.7      46.7237      46.7237      46.7237 
  156000    90.584227   -7336.9302   -6870.3453   -834.86892     102002.7      46.7237      46.7237      46.7237 
  157000    89.049684   -7311.2663   -6852.5857   -822.96544     102002.7      46.7237      46.7237      46.7237 
  158000    90.992408   -7328.2619   -6859.5746    -774.6584     102002.7      46.7237      46.7237      46.7237 
  159000    92.299073   -7329.4391   -6854.0213   -872.64733     102002.7      46.7237      46.7237      46.7237 
  160000    91.472119   -7326.0858   -6854.9276   -530.23269     102002.7      46.7237      46.7237      46.7237 
  161000    91.968939   -7331.5169   -6857.7996    -758.0946     102002.7      46.7237      46.7237      46.7237 
  162000    91.625179    -7308.419   -6836.4723   -606.82736     102002.7      46.7237      46.7237      46.7237 
  163000    91.932085   -7326.4078   -6852.8804   -514.70644     102002.7      46.7237      46.7237      46.7237 
  164000    87.739239    -7322.042   -6870.1113   -676.42726     102002.7      46.7237      46.7237      46.7237 
  165000    90.827047    -7323.808   -6855.9725   -415.58521     102002.7      46.7237      46.7237      46.7237 
  166000    88.001736   -7317.4961   -6864.2133   -789.20151     102002.7      46.7237      46.7237      46.7237 
  167000     89.22517   -7327.4802   -6867.8957   -805.64641     102002.7      46.7237      46.7237      46.7237 
  168000    92.050686   -7313.0933   -6838.9549   -781.55161     102002.7      46.7237      46.7237      46.7237 
  169000    92.538626   -7325.1396    -6848.488   -827.12163     102002.7      46.7237      46.7237      46.7237 
  170000    94.250257   -7341.0832   -6855.6152   -497.67956     102002.7      46.7237      46.7237      46.7237 
  171000     84.69916   -7316.4606   -6880.1888   -880.74804     102002.7      46.7237      46.7237      46.7237 
  172000    90.956667   -7330.0569   -6861.5536   -839.80837     102002.7      46.7237      46.7237      46.7237 
  173000    90.854918   -7312.3845   -6844.4054   -733.80727     102002.7      46.7237      46.7237      46.7237 
  174000    92.387955   -7307.5608   -6831.6853   -822.96704     102002.7      46.7237      46.7237      46.7237 
  175000     93.54411   -7322.0756   -6840.2448   -842.87906     102002.7      46.7237      46.7237      46.7237 
  176000    91.115082   -7321.5089   -6852.1897   -828.43818     102002.7      46.7237      46.7237      46.7237 
  177000    89.468762   -7323.5013    -6862.662   -580.28802     102002.7      46.7237      46.7237      46.7237 
  178000    91.869901   -7326.2224   -6853.0153   -447.46234     102002.7      46.7237      46.7237      46.7237 
  179000    90.767579   -7327.7273   -6860.1981   -750.19731     102002.7      46.7237      46.7237      46.7237 
  180000    94.192028   -7326.8003   -6841.6323   -450.38003     102002.7      46.7237      46.7237      46.7237 
  181000    90.121683     -7330.33   -6866.1277   -803.63054     102002.7      46.7237      46.7237      46.7237 
  182000    89.758732   -7320.5699    -6858.237   -542.77968     102002.7      46.7237      46.7237      46.7237 
  183000    88.436672   -7308.1144   -6852.5913   -648.73182     102002.7      46.7237      46.7237      46.7237 
  184000    89.924412   -7326.4007   -6863.2145    -774.2059     102002.7      46.7237      46.7237      46.7237 
  185000    91.283892   -7325.5947    -6855.406   -575.82831     102002.7      46.7237      46.7237      46.7237 
  186000    85.311599   -7321.0324    -6881.606   -661.09612     102002.7      46.7237      46.7237      46.7237 
  187000    90.234002   -7318.9833   -6854.2024   -617.58029     102002.7      46.7237      46.7237      46.7237 
  188000    90.772454   -7323.7827   -6856.2283   -868.00638     102002.7      46.7237      46.7237      46.7237 
  189000    89.048819   -7312.8251   -6854.1489   -636.83111     102002.7      46.7237      46.7237      46.7237 
  190000     91.94131   -7323.2081   -6849.6331   -758.88311     102002.7      46.7237      46.7237      46.7237 
  191000    87.430595   -7306.7607   -6856.4198   -548.33393     102002.7      46.7237      46.7237      46.7237 
  192000    92.315193    -7315.284   -6839.7832   -560.56224     102002.7      46.7237      46.7237      46.7237 
  193000    89.801505   -7325.2709   -6862.7178   -655.33613     102002.7      46.7237      46.7237      46.7237 
  194000    90.497683   -7317.0678   -6850.9288   -561.21218     102002.7      46.7237      46.7237      46.7237 
  195000    93.980803   -7318.0455   -6833.9654   -561.43368     102002.7      46.7237      46.7237      46.7237 
  196000    90.946452   -7307.4651   -6839.0145   -582.62013     102002.7      46.7237      46.7237      46.7237 
  197000     89.05661   -7323.9941   -6865.2778   -862.95684     102002.7      46.7237      46.7237      46.7237 
  198000    89.380888    -7316.773   -6856.3864   -807.17697     102002.7      46.7237      46.7237      46.7237 
  199000    91.109065   -7332.2686   -6862.9804   -714.84261     102002.7      46.7237      46.7237      46.7237 
  200000    86.452052   -7301.0219   -6855.7212   -1029.4323     102002.7      46.7237      46.7237      46.7237 
  201000     91.39026   -7317.5563   -6846.8197   -991.15282     102002.7      46.7237      46.7237      46.7237 
  202000    90.649869   -7320.6009    -6853.678   -722.14067     102002.7      46.7237      46.7237      46.7237 
  203000     91.51444   -7314.0787   -6842.7025   -869.56898     102002.7      46.7237      46.7237      46.7237 
  204000    90.934246   -7332.3103   -6863.9226   -793.84784     102002.7      46.7237      46.7237      46.7237 
  205000     91.09613   -7321.5598   -6852.3382   -668.98493     102002.7      46.7237      46.7237      46.7237 
  206000    91.466954   -7316.7471   -6845.6155   -667.01061     102002.7      46.7237      46.7237      46.7237 
  207000      89.9988   -7331.8741   -6868.3047   -739.65878     102002.7      46.7237      46.7237      46.7237 
  208000     91.86708   -7321.2398   -6848.0472   -585.09381     102002.7      46.7237      46.7237      46.7237 
  209000    90.352921   -7324.8024    -6859.409   -678.57302     102002.7      46.7237      46.7237      46.7237 
  210000    91.448158   -7311.5775   -6840.5427   -863.19812     102002.7      46.7237      46.7237      46.7237 
  211000    90.181206   -7331.2536   -6866.7447   -754.73183     102002.7      46.7237      46.7237      46.7237 
  212000    94.816938   -7328.3289    -6839.942    -639.0224     102002.7      46.7237      46.7237      46.7237 
  213000    93.820826   -7311.8304   -6828.5744   -670.01949     102002.7      46.7237      46.7237      46.7237 
  214000    91.293253   -7338.2476   -6868.0107   -737.08377     102002.7      46.7237      46.7237      46.7237 
  215000    95.227069   -7310.9171   -6820.4178   -812.98641     102002.7      46.7237      46.7237      46.7237 
  216000    89.412848   -7327.0584   -6866.5071   -746.23729     102002.7      46.7237      46.7237      46.7237 
  217000    91.359372   -7311.1808   -6840.6033   -449.80413     102002.7      46.7237      46.7237      46.7237 
  218000    90.742015    -7328.765   -6861.3674   -372.37608     102002.7      46.7237      46.7237      46.7237 
  219000    91.224542   -7316.6563   -6846.7733   -655.71281     102002.7      46.7237      46.7237      46.7237 
  220000    87.293993   -7320.9946   -6871.3573   -280.83711     102002.7      46.7237      46.7237      46.7237 
  221000    87.905895   -7317.3752   -6864.5861   -243.59916     102002.7      46.7237      46.7237      46.7237 
  222000    91.251517   -7319.0013   -6848.9794   -501.22054     102002.7      46.7237      46.7237      46.7237 
  223000    92.677411   -7333.9442   -6856.5777   -413.96336     102002.7      46.7237      46.7237      46.7237 
  224000    89.170723   -7323.5056   -6864.2015   -718.39404     102002.7      46.7237      46.7237      46.7237 
  225000    92.026072   -7319.1437   -6845.1321   -552.51547     102002.7      46.7237      46.7237      46.7237 
  226000    92.505824   -7333.8547    -6857.372   -722.23288     102002.7      46.7237      46.7237      46.7237 
  227000    91.519942   -7337.9975    -6866.593   -763.36603     102002.7      46.7237      46.7237      46.7237 
  228000    90.620536   -7306.8998    -6840.128   -736.92405     102002.7      46.7237      46.7237      46.7237 
  229000    90.773809   -7326.6401   -6859.0787   -670.64133     102002.7      46.7237      46.7237      46.7237 
  230000    92.882352   -7310.7054   -6832.2833   -759.00403     102002.7      46.7237      46.7237      46.7237 
  231000    93.780284   -7339.2838   -6856.2366   -816.39063     102002.7      46.7237      46.7237      46.7237 
  232000    90.127113   -7295.5967   -6831.3664   -874.49574     102002.7      46.7237      46.7237      46.7237 
  233000    92.547089   -7333.6118   -6856.9166    -752.1242     102002.7      46.7237      46.7237      46.7237 
  234000    88.794365    -7337.793   -6880.4274   -735.89865     102002.7      46.7237      46.7237      46.7237 
  235000    91.477619    -7317.564   -6846.3774   -722.64653     102002.7      46.7237      46.7237      46.7237 
  236000    87.577204   -7313.3991    -6862.303   -688.94263     102002.7      46.7237      46.7237      46.7237 
  237000    90.431815   -7317.7048    -6851.905   -285.60195     102002.7      46.7237      46.7237      46.7237 
  238000    91.309707    -7318.515   -6848.1933   -613.16769     102002.7      46.7237      46.7237      46.7237 
  239000    89.639708    -7330.782   -6869.0622   -633.27969     102002.7      46.7237      46.7237      46.7237 
  240000    89.970491   -7333.0686    -6869.645   -585.89669     102002.7      46.7237      46.7237      46.7237 
  241000    90.010078   -7325.0507   -6861.4232   -771.12168     102002.7      46.7237      46.7237      46.7237 
  242000    90.277052    -7321.492   -6856.4893   -489.82031     102002.7      46.7237      46.7237      46.7237 
  243000    91.210344   -7332.5046   -6862.6947   -727.91309     102002.7      46.7237      46.7237      46.7237 
  244000    90.561706   -7305.3133   -6838.8445   -704.72767     102002.7      46.7237      46.7237      46.7237 
  245000    93.051533    -7332.585   -6853.2915   -426.15329     102002.7      46.7237      46.7237      46.7237 
  246000    89.178293   -7330.8795   -6871.5364   -777.72394     102002.7      46.7237      46.7237      46.7237 
  247000    90.518308   -7323.4311   -6857.1858   -612.60446     102002.7      46.7237      46.7237      46.7237 
  248000    91.144889   -7320.9783   -6851.5056    -710.1359     102002.7      46.7237      46.7237      46.7237 
  249000    89.323732   -7328.8087   -6868.7165   -779.03932     102002.7      46.7237      46.7237      46.7237 
  250000    92.545778   -7322.4492   -6845.7607   -683.92792     102002.7      46.7237      46.7237      46.7237 
  251000     94.73242   -7337.1335    -6849.182   -588.83863     102002.7      46.7237      46.7237      46.7237 
  252000    91.104623   -7327.6553     -6858.39   -587.43179     102002.7      46.7237      46.7237      46.7237 
  253000    92.149413   -7307.2007   -6832.5539   -447.55305     102002.7      46.7237      46.7237      46.7237 
  254000    92.785496   -7328.2031   -6850.2799   -575.70207     102002.7      46.7237      46.7237      46.7237 
  255000    89.236887   -7334.7345   -6875.0896   -518.99867     102002.7      46.7237      46.7237      46.7237 
  256000    91.126384   -7324.4784    -6855.101    -640.8634     102002.7      46.7237      46.7237      46.7237 
  257000    89.686229   -7328.7521   -6866.7927   -717.85694     102002.7      46.7237      46.7237      46.7237 
  258000    89.714927   -7319.3864   -6857.2792   -682.57238     102002.7      46.7237      46.7237      46.7237 
  259000    88.726756    -7306.099   -6849.0817   -1011.1844     102002.7      46.7237      46.7237      46.7237 
  260000    92.205973   -7347.4697   -6872.5315   -844.41249     102002.7      46.7237      46.7237      46.7237 
  261000    89.594444   -7312.8533   -6851.3667   -718.40583     102002.7      46.7237      46.7237      46.7237 
  262000    93.400109   -7308.2659   -6827.1769   -733.43079     102002.7      46.7237      46.7237      46.7237 
  263000       89.232   -7314.2802   -6854.6605   -752.94098     102002.7      46.7237      46.7237      46.7237 
  264000    91.389846    -7328.095   -6857.3606   -450.52378     102002.7      46.7237      46.7237      46.7237 
  265000    89.218544   -7325.3412   -6865.7907   -877.39113     102002.7      46.7237      46.7237      46.7237 
  266000    90.438071    -7326.338    -6860.506   -768.12536     102002.7      46.7237      46.7237      46.7237 
  267000    92.156478    -7340.966   -6866.2827   -689.02891     102002.7      46.7237      46.7237      46.7237 
  268000    94.761359   -7317.8493   -6829.7487   -586.62125     102002.7      46.7237      46.7237      46.7237 
  269000    89.807353    -7328.159   -6865.5758   -729.01637     102002.7      46.7237      46.7237      46.7237 
  270000     88.11679   -7333.4332   -6879.5578   -608.65038     102002.7      46.7237      46.7237      46.7237 
  271000    90.844098   -7319.1673   -6851.2439   -1080.3277     102002.7      46.7237      46.7237      46.7237 
  272000    90.100962    -7328.057   -6863.9614   -378.06896     102002.7      46.7237      46.7237      46.7237 
  273000    91.569466   -7329.8664   -6858.2067   -739.56783     102002.7      46.7237      46.7237      46.7237 
  274000    89.979149   -7307.1484   -6843.6802   -665.82829     102002.7      46.7237      46.7237      46.7237 
  275000    89.866049   -7320.7695   -6857.8839   -789.73633     102002.7      46.7237      46.7237      46.7237 
  276000    90.959388   -7317.3985   -6848.8813   -742.97226     102002.7      46.7237      46.7237      46.7237 
  277000    88.455882   -7327.1736   -6871.5515   -600.60696     102002.7      46.7237      46.7237      46.7237 
  278000    92.272453   -7327.1309   -6851.8503   -949.00961     102002.7      46.7237      46.7237      46.7237 
  279000     94.02897   -7319.6843   -6835.3561   -671.76075     102002.7      46.7237      46.7237      46.7237 
  280000    86.813625    -7317.444   -6870.2809   -790.52548     102002.7      46.7237      46.7237      46.7237 
  281000    90.555454   -7332.3755   -6865.9388   -622.13793     102002.7      46.7237      46.7237      46.7237 
  282000    91.123648   -7329.7688   -6860.4054   -788.58498     102002.7      46.7237      46.7237      46.7237 
  283000    88.197387   -7316.9915   -6862.7009   -818.81231     102002.7      46.7237      46.7237      46.7237 
  284000    90.497689   -7310.6584   -6844.5194   -616.27271     102002.7      46.7237      46.7237      46.7237 
  285000    90.256538   -7324.4605   -6859.5635   -785.78203     102002.7      46.7237      46.7237      46.7237 
  286000    91.742107   -7308.3259   -6835.7771   -689.53437     102002.7      46.7237      46.7237      46.7237 
  287000    92.763662   -7325.7916   -6847.9808   -789.13305     102002.7      46.7237      46.7237      46.7237 
  288000     94.32304   -7344.6602   -6858.8174   -664.46952     102002.7      46.7237      46.7237      46.7237 
  289000    91.582365   -7325.8396   -6854.1135   -797.47499     102002.7      46.7237      46.7237      46.7237 
  290000    89.111553   -7313.7004   -6854.7011   -863.59516     102002.7      46.7237      46.7237      46.7237 
  291000    94.534497   -7323.4033   -6836.4712   -873.63219     102002.7      46.7237      46.7237      46.7237 
  292000    90.032895   -7324.7786   -6861.0335   -840.91391     102002.7      46.7237      46.7237      46.7237 
  293000    90.481673   -7322.8595   -6856.8029   -774.75408     102002.7      46.7237      46.7237      46.7237 
  294000    88.829397   -7322.9342   -6865.3883   -1010.9133     102002.7      46.7237      46.7237      46.7237 
  295000    93.072207   -7334.3674   -6854.9674   -855.68503     102002.7      46.7237      46.7237      46.7237 
  296000    91.021633   -7318.4099    -6849.572   -569.88781     102002.7      46.7237      46.7237      46.7237 
  297000    92.170525   -7332.4491   -6857.6934   -571.45759     102002.7      46.7237      46.7237      46.7237 
  298000    90.630989   -7327.1368   -6860.3111   -813.22069     102002.7      46.7237      46.7237      46.7237 
  299000    90.358783   -7327.3384   -6861.9148   -736.12848     102002.7      46.7237      46.7237      46.7237 
  300000    89.833075   -7315.0591   -6852.3433    -640.8037     102002.7      46.7237      46.7237      46.7237 
  301000    88.593682   -7344.7996   -6888.4677   -638.30839     102002.7      46.7237      46.7237      46.7237 
  302000    93.233691    -7325.804   -6845.5722   -589.96355     102002.7      46.7237      46.7237      46.7237 
  303000    90.953125   -7323.9762   -6855.4912   -812.40165     102002.7      46.7237      46.7237      46.7237 
  304000    90.151631    -7327.697   -6863.3404   -601.83133     102002.7      46.7237      46.7237      46.7237 
  305000    93.022296   -7316.2146   -6837.0716   -455.42363     102002.7      46.7237      46.7237      46.7237 
  306000    90.327844   -7326.4553   -6861.1911   -678.78059     102002.7      46.7237      46.7237      46.7237 
  307000    91.952826    -7337.712   -6864.0777   -483.25262     102002.7      46.7237      46.7237      46.7237 
  308000    92.476986   -7322.3934   -6846.0593   -585.33244     102002.7      46.7237      46.7237      46.7237 
  309000    89.748389   -7327.7854   -6865.5059   -554.87522     102002.7      46.7237      46.7237      46.7237 
  310000    89.782994   -7337.3504   -6874.8926    -447.2612     102002.7      46.7237      46.7237      46.7237 
  311000     89.55476   -7309.3222   -6848.0399   -694.39517     102002.7      46.7237      46.7237      46.7237 
  312000    89.152572   -7336.2338   -6877.0231   -326.14379     102002.7      46.7237      46.7237      46.7237 
  313000    90.521134   -7322.4711   -6856.2112    -661.5836     102002.7      46.7237      46.7237      46.7237 
  314000      89.5707   -7324.1999   -6862.8356   -442.38237     102002.7      46.7237      46.7237      46.7237 
  315000     95.52473   -7326.9629   -6834.9303   -497.27423     102002.7      46.7237      46.7237      46.7237 
  316000    89.834486   -7323.2285   -6860.5055   -797.10841     102002.7      46.7237      46.7237      46.7237 
  317000    90.503845   -7317.9015   -6851.7307   -613.95677     102002.7      46.7237      46.7237      46.7237 
  318000    91.505538   -7325.7103   -6854.3799   -697.87422     102002.7      46.7237      46.7237      46.7237 
  319000    92.210804   -7332.6576   -6857.6945    -681.2262     102002.7      46.7237      46.7237      46.7237 
  320000    92.086995   -7329.7106   -6855.3853   -548.17804     102002.7      46.7237      46.7237      46.7237 
  321000    91.383253   -7322.0394   -6851.3389   -904.62053     102002.7      46.7237      46.7237      46.7237 
  322000    87.063459   -7336.8863   -6888.4364   -682.90896     102002.7      46.7237      46.7237      46.7237 
  323000    88.739936   -7307.5559   -6850.4708   -727.45923     102002.7      46.7237      46.7237      46.7237 
  324000    91.505308    -7332.649   -6861.3199   -638.84488     102002.7      46.7237      46.7237      46.7237 
  325000    93.331882    -7310.023   -6829.2855   -333.49097     102002.7      46.7237      46.7237      46.7237 
  326000    91.772289   -7327.5161   -6854.8118   -642.49387     102002.7      46.7237      46.7237      46.7237 
  327000    89.509802   -7319.1145   -6858.0638    -647.8611     102002.7      46.7237      46.7237      46.7237 
  328000    92.946695   -7323.8898   -6845.1362   -728.07197     102002.7      46.7237      46.7237      46.7237 
  329000    87.649984   -7325.5369   -6874.0659    -811.2749     102002.7      46.7237      46.7237      46.7237 
  330000    90.118036    -7330.108   -6865.9245   -557.25282     102002.7      46.7237      46.7237      46.7237 
  331000    92.287179   -7313.1349   -6837.7784   -820.30647     102002.7      46.7237      46.7237      46.7237 
  332000    92.243183   -7340.9154   -6865.7855   -749.44428     102002.7      46.7237      46.7237      46.7237 
  333000     91.85463   -7330.9111   -6857.7827    -550.7197     102002.7      46.7237      46.7237      46.7237 
  334000    87.130086   -7327.1411    -6878.348   -989.81412     102002.7      46.7237      46.7237      46.7237 
  335000    90.158219   -7313.3667   -6848.9762   -787.71189     102002.7      46.7237      46.7237      46.7237 
  336000    92.320629   -7324.4905   -6848.9617   -954.75357     102002.7      46.7237      46.7237      46.7237 
  337000    90.115068   -7331.4557   -6867.2875   -819.82458     102002.7      46.7237      46.7237      46.7237 
  338000    92.388938   -7319.9321   -6844.0515   -769.83807     102002.7      46.7237      46.7237      46.7237 
  339000     92.55091   -7339.1778   -6862.4629   -909.92573     102002.7      46.7237      46.7237      46.7237 
  340000    93.036442   -7325.7555   -6846.5397   -695.56515     102002.7      46.7237      46.7237      46.7237 
  341000    93.215137   -7323.8476   -6843.7113    -811.6805     102002.7      46.7237      46.7237      46.7237 
  342000    92.317279   -7321.6349   -6846.1234   -774.26124     102002.7      46.7237      46.7237      46.7237 
  343000    89.166414   -7301.2568   -6841.9749   -724.67063     102002.7      46.7237      46.7237      46.7237 
  344000     89.63393   -7324.9137   -6863.2237   -811.27352     102002.7      46.7237      46.7237      46.7237 
  345000    87.483526   -7316.0394   -6865.4258   -736.93533     102002.7      46.7237      46.7237      46.7237 
  346000    91.448961   -7326.2172   -6855.1782   -780.10241     102002.7      46.7237      46.7237      46.7237 
  347000    91.008823   -7323.8588    -6855.087    -470.3018     102002.7      46.7237      46.7237      46.7237 
  348000    90.580472   -7323.5793   -6857.0138   -825.24298     102002.7      46.7237      46.7237      46.7237 
  349000    88.023666    -7336.125   -6882.7292   -649.16967     102002.7      46.7237      46.7237      46.7237 
  350000    89.126261   -7320.0593   -6860.9843   -745.39457     102002.7      46.7237      46.7237      46.7237 
  351000    92.019113   -7324.0715   -6850.0958   -673.56896     102002.7      46.7237      46.7237      46.7237 
  352000    90.525666   -7327.8598   -6861.5766   -826.87691     102002.7      46.7237      46.7237      46.7237 
  353000     95.19692   -7316.4492   -6826.1052   -675.36825     102002.7      46.7237      46.7237      46.7237 
  354000    90.393073   -7328.5188   -6862.9186   -540.59322     102002.7      46.7237      46.7237      46.7237 
  355000    91.668944   -7321.1736   -6849.0016   -337.67896     102002.7      46.7237      46.7237      46.7237 
  356000    89.855642   -7338.1771   -6875.3451   -592.38343     102002.7      46.7237      46.7237      46.7237 
  357000    90.729518   -7316.7562    -6849.423   -699.39933     102002.7      46.7237      46.7237      46.7237 
  358000     88.34332   -7323.8691   -6868.8268   -638.04273     102002.7      46.7237      46.7237      46.7237 
  359000     92.18998   -7323.5194   -6848.6636   -722.47696     102002.7      46.7237      46.7237      46.7237 
  360000    93.412075   -7319.4459   -6838.2953   -387.94606     102002.7      46.7237      46.7237      46.7237 
  361000    91.519975   -7332.2403   -6860.8355   -447.28623     102002.7      46.7237      46.7237      46.7237 
  362000    91.370894   -7310.8456   -6840.2088   -441.60583     102002.7      46.7237      46.7237      46.7237 
  363000    91.015318   -7329.0863    -6860.281   -451.16462     102002.7      46.7237      46.7237      46.7237 
  364000    91.795477   -7304.8981   -6832.0744   -704.27512     102002.7      46.7237      46.7237      46.7237 
  365000    93.543769   -7332.2914   -6850.4624   -416.73414     102002.7      46.7237      46.7237      46.7237 
  366000    90.076078    -7343.874   -6879.9065   -757.56143     102002.7      46.7237      46.7237      46.7237 
  367000    91.202011   -7321.8197   -6852.0528   -474.87621     102002.7      46.7237      46.7237      46.7237 
  368000    92.657538   -7325.3953   -6848.1312   -622.77889     102002.7      46.7237      46.7237      46.7237 
  369000    92.226537   -7324.9443   -6849.9002   -758.27862     102002.7      46.7237      46.7237      46.7237 
  370000    93.557748   -7309.6422   -6827.7412   -590.39044     102002.7      46.7237      46.7237      46.7237 
  371000    87.088031   -7322.1437   -6873.5672   -753.81366     102002.7      46.7237      46.7237      46.7237 
  372000    91.024407   -7327.7728   -6858.9207   -627.68389     102002.7      46.7237      46.7237      46.7237 
  373000    92.784334   -7323.7909   -6845.8736   -440.44267     102002.7      46.7237      46.7237      46.7237 
  374000    90.948392   -7333.5705   -6865.1099   -641.53634     102002.7      46.7237      46.7237      46.7237 
  375000    89.683833   -7329.1412   -6867.1941   -579.23829     102002.7      46.7237      46.7237      46.7237 
  376000    92.692803   -7322.0536   -6844.6078    -499.2504     102002.7      46.7237      46.7237      46.7237 
  377000    91.302827   -7310.7298   -6840.4436   -687.85193     102002.7      46.7237      46.7237      46.7237 
  378000    89.781635   -7324.9649   -6862.5141   -260.06391     102002.7      46.7237      46.7237      46.7237 
  379000    90.209705   -7320.8475   -6856.1918   -735.91752     102002.7      46.7237      46.7237      46.7237 
  380000    89.872719   -7339.5157   -6876.5957   -363.19713     102002.7      46.7237      46.7237      46.7237 
  381000    91.569199   -7322.8791   -6851.2209   -493.60104     102002.7      46.7237      46.7237      46.7237 
  382000    90.001043   -7328.4412   -6864.8602   -574.06831     102002.7      46.7237      46.7237      46.7237 
  383000    90.496824   -7320.2577   -6854.1231   -701.47168     102002.7      46.7237      46.7237      46.7237 
  384000    92.327192   -7327.9593   -6852.3967   -711.21051     102002.7      46.7237      46.7237      46.7237 
  385000    89.360821   -7334.7679   -6874.4846   -574.00815     102002.7      46.7237      46.7237      46.7237 
  386000    91.502258   -7318.4818   -6847.1683   -780.80796     102002.7      46.7237      46.7237      46.7237 
  387000    87.858877   -7320.3836   -6867.8366   -476.80138     102002.7      46.7237      46.7237      46.7237 
  388000    91.227592   -7311.4167    -6841.518   -717.22169     102002.7      46.7237      46.7237      46.7237 
  389000     90.96336   -7329.7314   -6861.1937    -569.1699     102002.7      46.7237      46.7237      46.7237 
  390000    94.051147   -7293.1181   -6808.6757   -871.70107     102002.7      46.7237      46.7237      46.7237 
  391000     92.15367   -7332.0801   -6857.4114    -793.0367     102002.7      46.7237      46.7237      46.7237 
  392000    91.297214   -7322.2758   -6852.0185   -529.69874     102002.7      46.7237      46.7237      46.7237 
  393000    90.638032   -7341.8943   -6875.0323   -783.95998     102002.7      46.7237      46.7237      46.7237 
  394000    92.634418    -7323.201   -6846.0559   -268.13983     102002.7      46.7237      46.7237      46.7237 
  395000    90.625774   -7324.0348    -6857.236   -744.78334     102002.7      46.7237      46.7237      46.7237 
  396000    92.584819   -7314.5985    -6837.709   -833.63317     102002.7      46.7237      46.7237      46.7237 
  397000    88.263126   -7313.6919   -6859.0627   -468.00282     102002.7      46.7237      46.7237      46.7237 
  398000    92.470761   -7329.8268   -6853.5247   -825.29878     102002.7      46.7237      46.7237      46.7237 
  399000    90.852526   -7333.9477   -6865.9809   -602.11338     102002.7      46.7237      46.7237      46.7237 
  400000    88.392143   -7324.9662   -6869.6724   -606.88225     102002.7      46.7237      46.7237      46.7237 
  401000    91.332495   -7326.7807   -6856.3416   -838.51361     102002.7      46.7237      46.7237      46.7237 
  402000    89.858069   -7332.8249   -6869.9804   -736.69351     102002.7      46.7237      46.7237      46.7237 
  403000    91.944686   -7325.5497   -6851.9574   -754.97191     102002.7      46.7237      46.7237      46.7237 
  404000    89.524476   -7336.6298   -6875.5036   -607.05044     102002.7      46.7237      46.7237      46.7237 
  405000    90.076555   -7312.2881   -6848.3182   -516.48553     102002.7      46.7237      46.7237      46.7237 
  406000        89.77     -7333.43   -6871.0391   -610.47021     102002.7      46.7237      46.7237      46.7237 
  407000    90.718758   -7306.6091   -6839.3313   -773.71205     102002.7      46.7237      46.7237      46.7237 
  408000    90.271201   -7324.5848   -6859.6123   -671.80663     102002.7      46.7237      46.7237      46.7237 
  409000    91.702297   -7323.6563   -6851.3125   -897.36678     102002.7      46.7237      46.7237      46.7237 
  410000    90.535339   -7344.2537   -6877.9206   -613.51821     102002.7      46.7237      46.7237      46.7237 
  411000    89.358337   -7312.5734   -6852.3029   -802.77158     102002.7      46.7237      46.7237      46.7237 
  412000     87.06701   -7311.1789   -6862.7107   -706.99871     102002.7      46.7237      46.7237      46.7237 
  413000     94.87561   -7314.5981    -6825.909   -950.60275     102002.7      46.7237      46.7237      46.7237 
  414000    89.305299   -7327.8777   -6867.8805   -799.70704     102002.7      46.7237      46.7237      46.7237 
  415000    90.288529   -7335.1191   -6870.0573   -626.21433     102002.7      46.7237      46.7237      46.7237 
  416000     91.99462   -7353.3766    -6879.527   -686.87295     102002.7      46.7237      46.7237      46.7237 
  417000    91.429926   -7320.1746   -6849.2337   -682.71997     102002.7      46.7237      46.7237      46.7237 
  418000     88.35662   -7317.3495   -6862.2387   -461.35628     102002.7      46.7237      46.7237      46.7237 
  419000    91.164468   -7318.2975   -6848.7239   -665.70757     102002.7      46.7237      46.7237      46.7237 
  420000    90.751931   -7321.0058   -6853.5571   -699.72287     102002.7      46.7237      46.7237      46.7237 
  421000    88.264215   -7337.2941   -6882.6593   -668.54352     102002.7      46.7237      46.7237      46.7237 
  422000    93.630166    -7326.157    -6843.883   -498.24262     102002.7      46.7237      46.7237      46.7237 
  423000    90.191539   -7328.2579   -6863.6957   -495.35627     102002.7      46.7237      46.7237      46.7237 
  424000    91.162165   -7317.1435   -6847.5818   -870.14986     102002.7      46.7237      46.7237      46.7237 
  425000    90.825369   -7319.5307   -6851.7038   -643.95187     102002.7      46.7237      46.7237      46.7237 
  426000     89.48231   -7324.7971   -6863.8881    -754.4392     102002.7      46.7237      46.7237      46.7237 
  427000    93.169058    -7321.743   -6841.8441   -738.90325     102002.7      46.7237      46.7237      46.7237 
  428000    89.953726   -7332.7338   -6869.3965   -493.52074     102002.7      46.7237      46.7237      46.7237 
  429000    93.346902   -7332.8433   -6852.0284   -901.33263     102002.7      46.7237      46.7237      46.7237 
  430000    91.051548   -7314.2843   -6845.2923   -584.56902     102002.7      46.7237      46.7237      46.7237 
  431000    90.624763   -7332.2677   -6865.4741   -945.40922     102002.7      46.7237      46.7237      46.7237 
  432000     90.97602   -7328.0377   -6859.4348   -579.15102     102002.7      46.7237      46.7237      46.7237 
  433000    92.327191   -7313.5649   -6838.0023   -517.66471     102002.7      46.7237      46.7237      46.7237 
  434000    89.084043   -7328.6677     -6869.81   -799.94314     102002.7      46.7237      46.7237      46.7237 
  435000    90.896561   -7330.2169   -6862.0233   -713.36671     102002.7      46.7237      46.7237      46.7237 
  436000    87.123676    -7318.713   -6869.9529   -627.30148     102002.7      46.7237      46.7237      46.7237 
  437000    91.217088   -7317.4746     -6847.63   -794.45013     102002.7      46.7237      46.7237      46.7237 
  438000    87.884759   -7326.2162   -6873.5358   -526.99914     102002.7      46.7237      46.7237      46.7237 
  439000    93.569554   -7337.4908    -6855.529   -457.61811     102002.7      46.7237      46.7237      46.7237 
  440000    92.922595   -7320.2603   -6841.6309   -473.40986     102002.7      46.7237      46.7237      46.7237 
  441000    89.837854   -7313.2414    -6850.501   -448.58825     102002.7      46.7237      46.7237      46.7237 
  442000    91.502113   -7333.7321   -6862.4194    -691.4468     102002.7      46.7237      46.7237      46.7237 
  443000    89.186646   -7323.0639   -6863.6778   -714.91352     102002.7      46.7237      46.7237      46.7237 
  444000    94.188273   -7319.8127    -6834.664   -724.47133     102002.7      46.7237      46.7237      46.7237 
  445000    90.749422   -7334.8177    -6867.382   -782.13461     102002.7      46.7237      46.7237      46.7237 
  446000    91.514507   -7343.2979   -6871.9213   -663.01921     102002.7      46.7237      46.7237      46.7237 
  447000    93.519326   -7333.2482   -6851.5451   -703.61094     102002.7      46.7237      46.7237      46.7237 
  448000    89.061368   -7333.8212   -6875.0803   -633.52851     102002.7      46.7237      46.7237      46.7237 
  449000    91.057159   -7329.2308     -6860.21   -713.40514     102002.7      46.7237      46.7237      46.7237 
  450000    92.445309   -7304.2811   -6828.1101   -791.94056     102002.7      46.7237      46.7237      46.7237 
  451000    88.069244   -7324.1097   -6870.4792   -620.63148     102002.7      46.7237      46.7237      46.7237 
  452000    88.454435   -7307.5249   -6851.9103   -728.66218     102002.7      46.7237      46.7237      46.7237 
  453000     90.46663   -7313.4585   -6847.4793   -392.21199     102002.7      46.7237      46.7237      46.7237 
  454000    93.898908   -7324.7451   -6841.0868   -763.06413     102002.7      46.7237      46.7237      46.7237 
  455000    89.070293   -7341.2473   -6882.4605   -593.01006     102002.7      46.7237      46.7237      46.7237 
  456000    90.306233   -7321.9719   -6856.8189   -959.44007     102002.7      46.7237      46.7237      46.7237 
  457000    90.976096   -7324.0248   -6855.4215   -700.80636     102002.7      46.7237      46.7237      46.7237 
  458000    89.581619   -7335.3552   -6873.9346   -713.40587     102002.7      46.7237      46.7237      46.7237 
  459000    93.862137   -7308.6482   -6825.1794   -625.32541     102002.7      46.7237      46.7237      46.7237 
  460000    92.167643   -7321.3428    -6846.602   -745.96002     102002.7      46.7237      46.7237      46.7237 
  461000    91.593888   -7341.8671   -6870.0817   -495.26383     102002.7      46.7237      46.7237      46.7237 
  462000    92.244742   -7307.5903   -6832.4524   -755.89525     102002.7      46.7237      46.7237      46.7237 
  463000    91.560278   -7341.2585   -6869.6462   -585.11291     102002.7      46.7237      46.7237      46.7237 
  464000    89.457173   -7305.1957   -6844.4161   -640.01702     102002.7      46.7237      46.7237      46.7237 
  465000    92.000268   -7325.3125   -6851.4339   -554.73055     102002.7      46.7237      46.7237      46.7237 
  466000    90.120756   -7337.7412   -6873.5436   -596.88751     102002.7      46.7237      46.7237      46.7237 
  467000    88.498399   -7307.1937   -6851.3526   -781.66166     102002.7      46.7237      46.7237      46.7237 
  468000    90.674817    -7325.805   -6858.7536   -729.48275     102002.7      46.7237      46.7237      46.7237 
  469000    89.174134   -7316.0945   -6856.7729   -885.70777     102002.7      46.7237      46.7237      46.7237 
  470000    91.137435   -7301.2154   -6831.7811   -777.67299     102002.7      46.7237      46.7237      46.7237 
  471000    91.017597   -7334.3849   -6865.5679   -692.90581     102002.7      46.7237      46.7237      46.7237 
  472000    95.256498   -7315.1794   -6824.5284     -678.316     102002.7      46.7237      46.7237      46.7237 
  473000    88.587049   -7327.3718   -6871.0741   -620.25787     102002.7      46.7237      46.7237      46.7237 
  474000    91.219059   -7325.1401   -6855.2854   -480.42299     102002.7      46.7237      46.7237      46.7237 
  475000    94.684791   -7308.0811   -6820.3749   -378.34685     102002.7      46.7237      46.7237      46.7237 
  476000    92.112192    -7324.728   -6850.2728   -604.66963     102002.7      46.7237      46.7237      46.7237 
  477000    88.778223   -7334.1855   -6876.9031   -785.98979     102002.7      46.7237      46.7237      46.7237 
  478000    90.358616   -7324.0583   -6858.6355   -507.74718     102002.7      46.7237      46.7237      46.7237 
  479000    95.998453   -7324.4491   -6829.9765    -436.7382     102002.7      46.7237      46.7237      46.7237 
  480000    91.348311   -7322.0722   -6851.5517   -697.93542     102002.7      46.7237      46.7237      46.7237 
  481000    89.351526   -7347.3524   -6887.1171   -672.48585     102002.7      46.7237      46.7237      46.7237 
  482000    91.786736   -7336.8018    -6864.023   -512.48653     102002.7      46.7237      46.7237      46.7237 
  483000    91.469103     -7324.86   -6853.7173   -361.74797     102002.7      46.7237      46.7237      46.7237 
  484000    88.232352   -7332.9779   -6878.5072   -629.14526     102002.7      46.7237      46.7237      46.7237 
  485000    93.380371    -7324.003   -6843.0156   -514.20062     102002.7      46.7237      46.7237      46.7237 
  486000    88.949394   -7326.7672   -6868.6031     -375.876     102002.7      46.7237      46.7237      46.7237 
  487000    90.291517   -7327.6221    -6862.545   -628.57399     102002.7      46.7237      46.7237      46.7237 
  488000    90.082277   -7335.4755   -6871.4762   -936.06785     102002.7      46.7237      46.7237      46.7237 
  489000    90.795184   -7310.5156   -6842.8441    -656.9606     102002.7      46.7237      46.7237      46.7237 
  490000    90.495167   -7327.7387   -6861.6126   -845.95821     102002.7      46.7237      46.7237      46.7237 
  491000    90.614194   -7313.7263   -6846.9871   -613.67562     102002.7      46.7237      46.7237      46.7237 
  492000    93.591219   -7320.6959   -6838.6225   -680.42829     102002.7      46.7237      46.7237      46.7237 
  493000    90.274917   -7332.2128   -6867.2211   -529.92102     102002.7      46.7237      46.7237      46.7237 
  494000    91.798395   -7325.9307   -6853.0919   -665.57131     102002.7      46.7237      46.7237      46.7237 
  495000     88.50295   -7331.1062   -6875.2417   -614.48916     102002.7      46.7237      46.7237      46.7237 
  496000    90.633311    -7332.676   -6865.8383   -589.49696     102002.7      46.7237      46.7237      46.7237 
  497000    92.211018   -7327.3953   -6852.4311    -562.6188     102002.7      46.7237      46.7237      46.7237 
  498000    91.313063   -7326.4415   -6856.1025   -490.53507     102002.7      46.7237      46.7237      46.7237 
  499000    91.164156   -7323.3806   -6853.8086   -612.52731     102002.7      46.7237      46.7237      46.7237 
  500000    91.554354   -7324.0042   -6852.4224   -591.25522     102002.7      46.7237      46.7237      46.7237 
  500498    90.391088   -7322.7729   -6857.1829   -458.62484     102002.7      46.7237      46.7237      46.7237 
Loop time of 1287.53 on 16 procs for 500000 steps with 1729 atoms

Performance: 33.553 ns/day, 0.715 hours/ns, 388.340 timesteps/s
99.8% CPU use with 16 MPI tasks x no OpenMP threads

MPI task timing breakdown:
Section |  min time  |  avg time  |  max time  |%varavg| %total
---------------------------------------------------------------
Pair    | 519.85     | 680.57     | 849.45     | 446.0 | 52.86
Bond    | 164.94     | 173.88     | 180.72     |  29.7 | 13.50
Neigh   | 2.6178     | 2.6303     | 2.6479     |   0.5 |  0.20
Comm    | 245.06     | 417.26     | 577.25     | 569.2 | 32.41
Output  | 0.020494   | 0.020943   | 0.024493   |   0.6 |  0.00
Modify  | 7.3968     | 7.8739     | 8.4666     |  11.3 |  0.61
Other   |            | 5.301      |            |       |  0.41

Nlocal:    108.062 ave 138 max 78 min
Histogram: 1 0 1 3 2 4 2 2 0 1
Nghost:    2190.06 ave 2214 max 2157 min
Histogram: 1 0 0 2 4 3 0 3 1 2
Neighs:    11450.9 ave 15787 max 5627 min
Histogram: 1 0 2 1 2 1 3 4 0 2

Total # of neighbors = 183215
Ave neighs/atom = 105.966
Ave special neighs/atom = 6.66281
Neighbor list builds = 2284
Dangerous builds = 0
Neighbor list info ...
  update every 1 steps, delay 10 steps, check yes
  max neighbors/atom: 2000, page size: 100000
  master list distance cutoff = 16
  ghost atom cutoff = 16
  binsize = 8, bins = 6 6 6
  3 neighbor lists, perpetual/occasional/extra = 3 0 0
  (1) pair buck6d/coul/gauss/dsf, perpetual, skip from (3)
      attributes: half, newton on
      pair build: skip
      stencil: none
      bin: none
  (2) pair lj/cut, perpetual, skip from (3)
      attributes: half, newton on
      pair build: skip
      stencil: none
      bin: none
  (3) neighbor class addition, perpetual
      attributes: half, newton on
      pair build: half/bin/newton
      stencil: half/bin/3d/newton
      bin: standard
Setting up Verlet run ...
  Unit style    : real
  Current step  : 500498
  Time step     : 1
WARNING: Inconsistent image flags (../domain.cpp:786)
Per MPI rank memory allocation (min/avg/max) = 23.06 | 23.3 | 23.33 Mbytes
Step Time TotEng KinEng PotEng E_mol E_pair Temp Pxx Pyy Pzz Pxy Pxz Pyz Cella Cellb Cellc CellAlpha CellBeta CellGamma Volume Press 
  500498       500000   -6857.1829    465.59001   -7322.7729    4215.4296   -11538.203    90.391088    -392.2278   -1092.0015    108.35473    77.427011   -128.83623   -43.358177      46.7237      46.7237      46.7237           90           90           90     102002.7   -458.62484 
  501000       500502   -6866.7211    458.27683   -7324.9979    4225.2837   -11550.282    88.971284   -937.24988   -448.26154    -826.6182    79.435762     -17.0731    173.89528      46.7237      46.7237      46.7237           90           90           90     102002.7   -737.37654 
  502000       501502   -6861.2045     466.0204   -7327.2249    4219.9528   -11547.178    90.474645   -865.46776   -700.36438   -628.35444   -5.1822635   -242.17708   -129.84229      46.7237      46.7237      46.7237           90           90           90     102002.7   -731.39552 
  503000       502502   -6835.8046    474.58096   -7310.3856    4239.3518   -11549.737    92.136618   -986.06328   -76.508236   -360.35764    335.48457   -306.55915    103.13611      46.7237      46.7237      46.7237           90           90           90     102002.7   -474.30972 
  504000       503502    -6870.982    469.88688   -7340.8688    4212.7396   -11553.608    91.225296   -494.72824   -512.77608   -444.80095    38.390704    183.57321   -93.976079      46.7237      46.7237      46.7237           90           90           90     102002.7   -484.10176 
  505000       504502   -6840.4126    473.06053   -7313.4731    4230.3728   -11543.846    91.841438   -809.05517   -560.97603    -1169.477    133.51596   -125.35776    212.92873      46.7237      46.7237      46.7237           90           90           90     102002.7   -846.50274 
  506000       505502   -6841.2336    470.21527   -7311.4488    4214.0996   -11525.548    91.289051   -562.31941   -475.38345   -786.11745   -137.61534   -203.04277    38.577526      46.7237      46.7237      46.7237           90           90           90     102002.7    -607.9401 
  507000       506502   -6865.6367    473.66555   -7339.3023    4198.0286   -11537.331    91.958898   -679.13244   -579.36403    -1290.308   -35.512598     93.43896    75.214586      46.7237      46.7237      46.7237           90           90           90     102002.7   -849.60149 
  508000       507502   -6856.1508    480.54947   -7336.7002     4195.886   -11532.586    93.295364   -626.96716     -542.714   -416.52595   -27.376437    -340.5268   -171.49454      46.7237      46.7237      46.7237           90           90           90     102002.7    -528.7357 
  509000       508502   -6869.4907    455.19184   -7324.6825    4192.4912   -11517.174    88.372355   -611.11375   -454.54464   -905.91585   -41.719471   -156.52785   -41.533908      46.7237      46.7237      46.7237           90           90           90     102002.7   -657.19141 
  510000       509502   -6830.8271    482.04583    -7312.873    4224.2463   -11537.119    93.585872   -579.29891   -543.04899   -765.21655   -46.929093   -73.734067    88.789228      46.7237      46.7237      46.7237           90           90           90     102002.7   -629.18815 
  511000       510502   -6857.5684    479.05091   -7336.6193    4213.2774   -11549.897    93.004429   -933.60814   -502.65691   -787.90611    83.343217   -65.189214   -106.33155      46.7237      46.7237      46.7237           90           90           90     102002.7   -741.39039 
  512000       511502   -6853.8685    476.45264   -7330.3212    4200.2508   -11530.572    92.499992   -667.86166   -424.54873   -686.36715   -197.92422    42.911026   -125.53303      46.7237      46.7237      46.7237           90           90           90     102002.7   -592.92585 
  513000       512502   -6858.2145    474.81189   -7333.0264     4218.891   -11551.917    92.181453   -620.34727   -575.80467   -878.43599   -29.044088   -72.971511    79.818127      46.7237      46.7237      46.7237           90           90           90     102002.7   -691.52931 
  514000       513502   -6849.3109    467.22589   -7316.5368    4220.1943   -11536.731    90.708682   -522.74737   -504.60106   -336.77319    18.569909    25.659602     -35.4532      46.7237      46.7237      46.7237           90           90           90     102002.7   -454.70721 
  515000       514502   -6853.8384    461.03259    -7314.871    4222.0674   -11536.938    89.506295   -413.10021   -629.31276   -620.39147   -91.267106    58.577606   -19.223801      46.7237      46.7237      46.7237           90           90           90     102002.7   -554.26814 
  516000       515502    -6842.907    473.89363   -7316.8006    4220.5342   -11537.335    92.003179   -481.94113   -747.83264   -783.38454    85.705669   -87.630882    47.907286      46.7237      46.7237      46.7237           90           90           90     102002.7   -671.05277 
  517000       516502   -6858.7469    465.92219   -7324.6691     4209.761    -11534.43    90.455578   -543.67308   -411.34764   -213.43451   -37.061062    95.671004   -109.23817      46.7237      46.7237      46.7237           90           90           90     102002.7   -389.48508 
  518000       517502   -6870.6991    460.77345   -7331.4726    4214.6208   -11546.093    89.455987   -965.99725   -823.61417   -428.94699    130.92666   -103.83854   -232.28961      46.7237      46.7237      46.7237           90           90           90     102002.7   -739.51947 
  519000       518502   -6847.7744    467.56675   -7315.3411    4214.1437   -11529.485    90.774858   -461.11751    -665.2522   -1090.9614   -8.6945715   -236.69201    185.45396      46.7237      46.7237      46.7237           90           90           90     102002.7   -739.11036 
  520000       519502   -6841.9077    469.16185   -7311.0696    4224.9391   -11536.009    91.084537   -639.39551   -924.43126   -483.50272   -79.130093   -132.68441     112.8211      46.7237      46.7237      46.7237           90           90           90     102002.7   -682.44317 
  521000       520502   -6871.1989    461.73611    -7332.935    4190.2524   -11523.187    89.642879    -801.6983   -297.90432   -456.28625   -175.06047   -73.284775    70.859279      46.7237      46.7237      46.7237           90           90           90     102002.7   -518.62962 
  522000       521502   -6855.9941    476.70017   -7332.6943     4225.753   -11558.447    92.548049   -601.37519   -669.21228   -651.11718   -261.65688    -26.66892    171.48473      46.7237      46.7237      46.7237           90           90           90     102002.7   -640.56822 
  523000       522502   -6874.1357    448.86152   -7322.9972    4215.3228    -11538.32    87.143366   -916.99993   -395.10161   -797.92098   -37.332035    -32.80716   -245.11134      46.7237      46.7237      46.7237           90           90           90     102002.7   -703.34084 
  524000       523502   -6841.9218     464.0677   -7305.9895    4226.3157   -11532.305    90.095541   -827.82538   -601.04263   -165.34771   -150.83929   -174.87683    192.23386      46.7237      46.7237      46.7237           90           90           90     102002.7   -531.40524 
  525000       524502   -6867.0258    454.03012   -7321.0559    4223.7817   -11544.838    88.146814   -947.58084   -797.96519   -394.32355    -109.4016   -26.702261    45.521098      46.7237      46.7237      46.7237           90           90           90     102002.7   -713.28986 
  526000       525502   -6867.2681    467.94557   -7335.2137    4198.5378   -11533.752    90.848403   -664.13075    -351.5606   -1107.1763    69.284172   -10.566434   -17.974427      46.7237      46.7237      46.7237           90           90           90     102002.7   -707.62254 
  527000       526502   -6851.8618    484.24274   -7336.1046    4210.7478   -11546.852    94.012386   -574.63569   -586.53069    -756.1444    28.428145    107.69494    100.48781      46.7237      46.7237      46.7237           90           90           90     102002.7   -639.10359 
  528000       527502   -6868.0127    448.81433    -7316.827    4216.3741   -11533.201    87.134206     -727.304   -656.56458   -515.74477    30.916898   -5.9543887      -20.457      46.7237      46.7237      46.7237           90           90           90     102002.7   -633.20445 
  529000       528502   -6860.0478    458.27372   -7318.3216    4223.1897   -11541.511    88.970681   -451.85043   -815.01208   -835.42417    52.568199   -51.160696   -62.325831      46.7237      46.7237      46.7237           90           90           90     102002.7   -700.76223 
  530000       529502   -6867.0165    462.70501   -7329.7215    4200.4845   -11530.206    89.830986   -673.38522   -827.01943   -532.74311    263.93197   -18.277046    59.140801      46.7237      46.7237      46.7237           90           90           90     102002.7   -677.71592 
  531000       530502   -6871.5671    462.99015   -7334.5572    4172.7832    -11507.34    89.886343   -810.48735    -804.2968   -821.85252    76.415381    194.53989   -52.551625      46.7237      46.7237      46.7237           90           90           90     102002.7   -812.21222 
  532000       531502   -6844.6948    457.91151   -7302.6063    4247.2952   -11549.901     88.90036   -349.00088    -422.4928   -493.58604   -91.957088   -45.381432   -94.507235      46.7237      46.7237      46.7237           90           90           90     102002.7   -421.69324 
  533000       532502   -6836.8183    478.05583   -7314.8742    4225.7123   -11540.586    92.811242   -338.31734   -540.59985   -874.59191   -136.08276    -125.8964    139.22757      46.7237      46.7237      46.7237           90           90           90     102002.7   -584.50303 
  534000       533502   -6866.8078    469.59048   -7336.3983    4200.8547   -11537.253    91.167752   -613.20945   -585.79596    -440.1087   -241.49721   -239.30618   -34.663665      46.7237      46.7237      46.7237           90           90           90     102002.7   -546.37137 
  535000       534502   -6868.6188    459.51529   -7328.1341    4210.6723   -11538.806    89.211723   -123.09895   -477.91048   -727.78838   -24.599374    17.152766   -204.62882      46.7237      46.7237      46.7237           90           90           90     102002.7    -442.9326 
  536000       535502   -6846.2652    468.26612   -7314.5313    4233.5465   -11548.078    90.910636   -737.92375   -1195.1828   -646.50239   -17.822221   -275.27055    157.96852      46.7237      46.7237      46.7237           90           90           90     102002.7   -859.86964 
  537000       536502   -6862.5056     463.0842   -7325.5898    4213.4622   -11539.052    89.904603   -728.78906   -772.38206   -249.91584    32.355134   -242.83694    86.418767      46.7237      46.7237      46.7237           90           90           90     102002.7   -583.69565 
  538000       537502   -6840.1193    472.61547   -7312.7348    4234.1195   -11546.854    91.755032   -787.10618   -857.19043   -661.93488   -104.21341   -241.86697    12.871183      46.7237      46.7237      46.7237           90           90           90     102002.7   -768.74383 
  539000       538502   -6857.4313     469.8188   -7327.2501    4208.5094    -11535.76    91.212077   -647.81775   -904.60891   -741.31463   -75.323173   -189.59534    46.293962      46.7237      46.7237      46.7237           90           90           90     102002.7   -764.58043 
  540000       539502   -6866.7762    453.39378     -7320.17    4218.7375   -11538.907    88.023273   -953.46127   -422.29891    -581.9635    78.132201   -5.0276057   -103.80244      46.7237      46.7237      46.7237           90           90           90     102002.7   -652.57456 
  541000       540502   -6871.5975    470.19164   -7341.7892    4182.7275   -11524.517    91.284462   -782.58637   -870.78033     -815.356    47.495328   -110.85731   -71.744018      46.7237      46.7237      46.7237           90           90           90     102002.7   -822.90757 
  542000       541502   -6851.3912    468.95066   -7320.3419    4229.9069   -11550.249    91.043534   -477.63351   -777.32497   -670.50407    -7.864339    -17.61945   -152.21327      46.7237      46.7237      46.7237           90           90           90     102002.7   -641.82085 
  543000       542502     -6883.27    459.71487   -7342.9849    4188.9025   -11531.887    89.250469   -697.86332   -314.59895   -388.01625   -189.78303    78.387391    98.088881      46.7237      46.7237      46.7237           90           90           90     102002.7   -466.82617 
  544000       543502   -6850.4766    462.45514   -7312.9317    4222.6793   -11535.611    89.782474   -778.04626   -826.31801   -498.61922      162.647    10.280956   -82.266098      46.7237      46.7237      46.7237           90           90           90     102002.7    -700.9945 
  545000       544502   -6852.2348    464.29882   -7316.5336    4224.7958   -11541.329    90.140412   -368.58465   -680.74656   -506.53575    108.11933    400.81946    139.50041      46.7237      46.7237      46.7237           90           90           90     102002.7   -518.62232 
  546000       545502   -6864.8634    462.88015   -7327.7435    4200.1443   -11527.888    89.864988   -774.22821   -524.58611   -616.87363    123.82392   -251.84101     215.9805      46.7237      46.7237      46.7237           90           90           90     102002.7   -638.56265 
  547000       546502    -6838.034    489.17395   -7327.2079    4217.5171   -11544.725    94.969747    -604.8752   -486.42773   -767.52997    93.576089   -94.703005   -71.974221      46.7237      46.7237      46.7237           90           90           90     102002.7   -619.61096 
  548000       547502   -6870.7724    464.92407   -7335.6965    4201.4447   -11537.141      90.2618   -533.33555   -686.78893   -562.96445    16.407067    101.54836    170.98083      46.7237      46.7237      46.7237           90           90           90     102002.7   -594.36297 
  549000       548502   -6855.3587    466.37228   -7321.7309    4204.5316   -11526.263    90.542959   -563.39198   -684.94978   -366.03626    28.177996    37.655132   -71.124901      46.7237      46.7237      46.7237           90           90           90     102002.7     -538.126 
  550000       549502   -6871.9741    465.10507   -7337.0791    4211.1753   -11548.254    90.296941   -620.27173   -537.97358    -496.4561    294.00906   -78.615543    103.64996      46.7237      46.7237      46.7237           90           90           90     102002.7   -551.56714 
  551000       550502   -6857.2297    463.87643   -7321.1062    4191.9443    -11513.05    90.058408   -626.89902   -724.57523   -610.02657    95.782058   -169.22462    8.2094246      46.7237      46.7237      46.7237           90           90           90     102002.7   -653.83361 
  552000       551502   -6839.6966    469.50554   -7309.2021    4255.1843   -11564.386    91.151261   -930.89949   -507.55599   -710.08267   -144.65485   -80.180195   -71.287332      46.7237      46.7237      46.7237           90           90           90     102002.7   -716.17938 
  553000       552502   -6866.7877    460.02761   -7326.8153    4198.6435   -11525.459    89.311186   -513.62349      -1167.5   -935.23925    151.75741    277.99711    19.805307      46.7237      46.7237      46.7237           90           90           90     102002.7   -872.12091 
  554000       553502   -6874.4002    460.81145   -7335.2116    4207.7948   -11543.006    89.463364   -810.17566   -764.70367   -1152.2857   -32.201755    1.5234265     57.81302      46.7237      46.7237      46.7237           90           90           90     102002.7   -909.05501 
  555000       554502   -6827.0504     473.0192   -7300.0696    4241.7372   -11541.807    91.833414   -1277.3108   -231.13237   -893.68327    160.06091    12.541109    148.70432      46.7237      46.7237      46.7237           90           90           90     102002.7   -800.70883 
[...]
  936000       935502   -6857.3023    477.78481   -7335.0871     4203.564   -11538.651    92.758625   -686.00754   -796.22765   -601.43767    73.946805    171.92088   -150.36642      46.7237      46.7237      46.7237           90           90           90     102002.7   -694.55762 
  937000       936502   -6831.5409    477.63928   -7309.1802    4232.8652   -11542.045     92.73037   -845.09459   -296.44685   -1011.3386   -21.539612    99.754942    6.1012786      46.7237      46.7237      46.7237           90           90           90     102002.7   -717.62667 
  938000       937502   -6853.8129    464.62849   -7318.4413    4224.0007   -11542.442    90.204416   -697.14332   -391.32134   -637.96926   -8.8975449   -177.53607    32.154024      46.7237      46.7237      46.7237           90           90           90     102002.7   -575.47797 
  939000       938502   -6841.1264    469.47461    -7310.601    4233.0655   -11543.667    91.145257   -949.30354   -350.86757    -367.2249   -262.26025   -15.803853   -43.272866      46.7237      46.7237      46.7237           90           90           90     102002.7   -555.79867 
  940000       939502   -6850.2441    459.48255   -7309.7267    4236.8858   -11546.612    89.205368    -930.6543   -718.32342   -717.28751   -171.97248    72.919757   -139.88789      46.7237      46.7237      46.7237           90           90           90     102002.7   -788.75508 
  941000       940502   -6856.5484    475.12665    -7331.675    4205.2943   -11536.969     92.24256   -347.84719   -772.44243   -752.08352    78.594992   -215.98217    220.28908      46.7237      46.7237      46.7237           90           90           90     102002.7   -624.12438 
  942000       941502   -6843.1489    466.43426   -7309.5832    4232.8357   -11542.419    90.554994   -1227.1715   -822.10013   -880.27238    37.142867     107.3642   -29.930666      46.7237      46.7237      46.7237           90           90           90     102002.7   -976.51466 
  943000       942502   -6855.7942    469.97446   -7325.7686     4215.345   -11541.114    91.242299   -691.89455    -757.7444   -986.39478   -124.19393     88.66653    103.32159      46.7237      46.7237      46.7237           90           90           90     102002.7   -812.01125 
  944000       943502   -6836.9566    478.21263   -7315.1692    4223.2399   -11538.409    92.841683   -1157.1094   -694.81426   -614.55881   -25.364241    16.419159   -82.713437      46.7237      46.7237      46.7237           90           90           90     102002.7   -822.16081 
  945000       944502    -6859.906    465.55124   -7325.4573    4205.0634   -11530.521    90.383561   -488.68508   -573.22849   -813.59876     250.9872    21.439187    14.584581      46.7237      46.7237      46.7237           90           90           90     102002.7   -625.17078 
  946000       945502   -6875.0699    459.97074   -7335.0406    4209.5918   -11544.632    89.300146   -1216.8129   -392.49573   -693.39123    24.169832    6.2684798    105.93049      46.7237      46.7237      46.7237           90           90           90     102002.7   -767.56663 
  947000       946502   -6861.8804    462.19584   -7324.0763    4214.2371   -11538.313    89.732133   -646.53334   -511.71205   -901.72398    102.20465   -165.85277    30.447231      46.7237      46.7237      46.7237           90           90           90     102002.7   -686.65646 
  948000       947502   -6876.4793    465.89642   -7342.3757    4184.8885   -11527.264    90.450575   -193.01399   -635.56896   -756.59598    292.17574   -26.294212    9.0108077      46.7237      46.7237      46.7237           90           90           90     102002.7   -528.39298 
  949000       948502   -6854.2895    461.40959   -7315.6991    4208.1821   -11523.881    89.579489   -431.65463   -567.96957   -696.30808    -82.32913   -279.04969    71.471085      46.7237      46.7237      46.7237           90           90           90     102002.7   -565.31076 
  950000       949502   -6862.3333    467.79552   -7330.1288    4207.9627   -11538.092    90.819273   -528.88522   -675.42082   -936.51072   -53.358938   -2.4931874   -68.399085      46.7237      46.7237      46.7237           90           90           90     102002.7   -713.60559 
  951000       950502   -6849.1104    459.67177   -7308.7822    4240.2128   -11548.995    89.242103   -630.16921   -518.17087   -714.84378   -33.824726    90.932599    115.44204      46.7237      46.7237      46.7237           90           90           90     102002.7   -621.06129 
  952000       951502    -6867.697    460.74147   -7328.4385    4190.5603   -11518.999    89.449778   -374.41123   -456.26743   -44.873219    109.71028     54.57641   -34.104596      46.7237      46.7237      46.7237           90           90           90     102002.7   -291.85063 
  953000       952502   -6852.7342    465.19321   -7317.9275    4215.9208   -11533.848    90.314052   -607.14544   -332.11148   -538.65078    51.214565    212.41681   -371.29269      46.7237      46.7237      46.7237           90           90           90     102002.7    -492.6359 
  954000       953502   -6860.4195    452.22115   -7312.6406    4227.6628   -11540.303    87.795616   -510.59484   -488.79958   -413.77829    114.73453    -84.63063   -256.33282      46.7237      46.7237      46.7237           90           90           90     102002.7   -471.05757 
  955000       954502   -6877.9123     446.7112   -7324.6235    4204.2359   -11528.859    86.725898   -847.46575   -542.05533   -618.90549   -129.67994   -11.616502    -107.2362      46.7237      46.7237      46.7237           90           90           90     102002.7   -669.47552 
  956000       955502   -6847.5759    468.25459   -7315.8305    4215.1621   -11530.993    90.908399   -329.46128   -887.05261   -601.58833    85.113017    59.153267   -45.124247      46.7237      46.7237      46.7237           90           90           90     102002.7   -606.03407 
  957000       956502   -6887.6115    458.90232   -7346.5138    4191.4277   -11537.941    89.092719   -496.06167   -518.62452    -900.0781   -4.0591813   -72.356243   -180.28208      46.7237      46.7237      46.7237           90           90           90     102002.7   -638.25476 
  958000       957502   -6850.9017    470.44144   -7321.3431    4200.0552   -11521.398     91.33296   -849.93444   -584.03447   -587.49741   -164.16078    4.1111863   -62.576852      46.7237      46.7237      46.7237           90           90           90     102002.7   -673.82211 
  959000       958502    -6875.624    446.52425   -7322.1482    4219.9231   -11542.071    86.689601    -517.4828   -865.06428   -617.44766   -242.81694   -141.13934   -198.73411      46.7237      46.7237      46.7237           90           90           90     102002.7   -666.66491 
  960000       959502   -6856.5325    466.34867   -7322.8812    4205.2801   -11528.161    90.538377   -728.49179     -185.265   -994.45291   -94.084309    177.11468    98.154722      46.7237      46.7237      46.7237           90           90           90     102002.7    -636.0699 
  961000       960502    -6836.081    481.89695    -7317.978     4221.215   -11539.193    93.556967   -992.01261   -546.13045   -587.41152   -186.30509    11.343643   -157.10262      46.7237      46.7237      46.7237           90           90           90     102002.7   -708.51819 
  962000       961502   -6846.1519    476.88669   -7323.0386    4206.0439   -11529.082    92.584261   -240.51874   -576.90815    -693.5816   -252.78868    105.74738    100.28154      46.7237      46.7237      46.7237           90           90           90     102002.7    -503.6695 
  963000       962502   -6876.5292    471.67126   -7348.2005    4182.0064   -11530.207     91.57172   -412.32248   -810.88545   -816.71614    30.051685   -69.710957     373.1601      46.7237      46.7237      46.7237           90           90           90     102002.7   -679.97469 
  964000       963502   -6852.3636    487.66814   -7340.0318    4208.7631   -11548.795    94.677404     -612.349   -769.14453   -1052.6758   -79.287274   -27.112629   -60.833082      46.7237      46.7237      46.7237           90           90           90     102002.7   -811.38977 
  965000       964502   -6869.1472    452.63856   -7321.7858    4220.9405   -11542.726    87.876654   -616.11711   -499.84609   -107.27434    3.4369233    13.353056   -168.29645      46.7237      46.7237      46.7237           90           90           90     102002.7   -407.74585 
  966000       965502    -6856.396     470.2882   -7326.6842    4220.8587   -11547.543    91.303209   -561.15612   -615.58439    -763.2546    106.47153    192.09913    52.459713      46.7237      46.7237      46.7237           90           90           90     102002.7   -646.66504 
  967000       966502   -6863.2557    461.97752   -7325.2332    4221.7164    -11546.95    89.689747   -763.53958   -553.58406   -626.52683   -133.43478   -57.106287     57.58261      46.7237      46.7237      46.7237           90           90           90     102002.7   -647.88349 
  968000       967502   -6860.9016     466.1262   -7327.0278    4193.1287   -11520.157    90.495185   -716.55281   -395.79506   -202.55734    -131.7222   -35.692634   -138.58324      46.7237      46.7237      46.7237           90           90           90     102002.7   -438.30174 
  969000       968502   -6829.7779    485.20849   -7314.9864    4237.1242   -11552.111    94.199881   -313.73316   -515.07505   -878.07457   -144.94977   -55.820182   -154.85731      46.7237      46.7237      46.7237           90           90           90     102002.7   -568.96092 
  970000       969502   -6860.4172    468.33666   -7328.7539    4201.9637   -11530.718    90.924331    104.07665   -409.92345   -846.56406   -69.324138   -127.71009    138.03189      46.7237      46.7237      46.7237           90           90           90     102002.7   -384.13695 
  971000       970502   -6847.9157    477.63077   -7325.5465    4209.8711   -11535.418    92.728718   -672.91726   -722.83664    -509.3872    238.49024    10.114682    35.600633      46.7237      46.7237      46.7237           90           90           90     102002.7   -635.04704 
  972000       971502   -6864.6104    452.71907   -7317.3295    4223.9425   -11541.272    87.892283   -335.46187   -1069.6903   -460.18182    137.74002   -103.12265   -299.08871      46.7237      46.7237      46.7237           90           90           90     102002.7     -621.778 
  973000       972502   -6878.0839     456.0818   -7334.1657    4210.6344     -11544.8    88.545135   -822.36217   -497.49036   -648.80887   -81.687779   -204.86224     82.35285      46.7237      46.7237      46.7237           90           90           90     102002.7   -656.22047 
  974000       973502   -6866.4813    457.16157   -7323.6429    4217.6829   -11541.326    88.754765    -444.5685   -595.64333   -339.49624    32.189271   -114.02352    216.22448      46.7237      46.7237      46.7237           90           90           90     102002.7   -459.90269 
  975000       974502    -6859.632    464.36182   -7323.9938     4211.679   -11535.673    90.152643   -348.06028   -789.63357   -491.38669    135.56009   -53.207586    118.95762      46.7237      46.7237      46.7237           90           90           90     102002.7   -543.02685 
  976000       975502   -6862.3963    465.16533   -7327.5616    4207.4845   -11535.046    90.308639   -671.20762   -467.46033   -231.45733    133.81706    138.85393   -57.447274      46.7237      46.7237      46.7237           90           90           90     102002.7   -456.70843 
  977000       976502   -6865.5269    459.94864   -7325.4755    4222.7283   -11548.204    89.295854   -157.33183   -542.35377   -967.84824    -197.2976   -126.08082   -64.302966      46.7237      46.7237      46.7237           90           90           90     102002.7   -555.84461 
  978000       977502   -6836.3008    471.69258   -7307.9934    4218.7892   -11526.783     91.57586   -772.44841   -456.67179   -714.57526   -179.84925   -235.84682   -245.16396      46.7237      46.7237      46.7237           90           90           90     102002.7   -647.89849 
  979000       978502   -6856.9209    464.98529   -7321.9062      4220.65   -11542.556    90.273685   -525.27539   -687.85892   -533.94894   -131.02088    69.231843    239.94883      46.7237      46.7237      46.7237           90           90           90     102002.7   -582.36108 
  980000       979502   -6821.8145     501.6328   -7323.4473    4214.9749   -11538.422    97.388546   -649.70377   -461.66581   -713.52517   -188.43868    327.14798   -24.780724      46.7237      46.7237      46.7237           90           90           90     102002.7   -608.29825 
  981000       980502   -6854.5752    473.11968   -7327.6949    4222.2117   -11549.907    91.852921   -883.65211    -632.8945   -841.88416   -153.76889    298.21079   -25.487264      46.7237      46.7237      46.7237           90           90           90     102002.7   -786.14359 
  982000       981502   -6864.3796    467.07261   -7331.4522    4200.8086   -11532.261    90.678924    -772.2238   -749.65025   -701.11961   -59.088323    45.695699    33.004026      46.7237      46.7237      46.7237           90           90           90     102002.7   -740.99789 
  983000       982502   -6840.6267    475.45424    -7316.081    4231.5335   -11547.614     92.30616   -551.89596    -570.5833   -946.86747    17.255508   -67.022281    134.94576      46.7237      46.7237      46.7237           90           90           90     102002.7   -689.78225 
  984000       983502   -6870.3566    458.29857   -7328.6552    4223.2849    -11551.94    88.975505   -911.82172   -1076.0754   -668.14722    131.75421    184.37297   -198.01402      46.7237      46.7237      46.7237           90           90           90     102002.7   -885.34811 
  985000       984502   -6839.6044    470.62378   -7310.2282    4222.0662   -11532.294    91.368359   -408.42295   -620.15068   -1175.2228    69.513866   -222.20557    208.62728      46.7237      46.7237      46.7237           90           90           90     102002.7   -734.59881 
  986000       985502   -6853.1079    471.31481   -7324.4227    4209.4504   -11533.873    91.502518    -560.9894   -800.24451   -873.67258    33.199827   -211.88237   -1.5437323      46.7237      46.7237      46.7237           90           90           90     102002.7   -744.96883 
  987000       986502    -6856.105    475.29077   -7331.3957    4203.4539    -11534.85    92.274423   -667.30348   -866.24163   -974.90914   -89.547411   -9.4120619    161.77189      46.7237      46.7237      46.7237           90           90           90     102002.7   -836.15142 
  988000       987502    -6852.975    477.14909   -7330.1241    4212.1109   -11542.235    92.635204   -736.39957   -622.03449   -868.18282    49.870602    95.202591    48.692891      46.7237      46.7237      46.7237           90           90           90     102002.7   -742.20562 
  989000       988502   -6857.9712    465.15678    -7323.128    4226.2693   -11549.397    90.306979   -976.05352   -585.07903   -1070.1748    167.77346    32.046339   -120.25669      46.7237      46.7237      46.7237           90           90           90     102002.7   -877.10244 
  990000       989502   -6831.9986    475.21855   -7307.2171     4217.222   -11524.439    92.260403   -737.67356   -961.49295   -319.01209    -61.85184   -99.267084    111.44532      46.7237      46.7237      46.7237           90           90           90     102002.7    -672.7262 
  991000       990502   -6866.6012    475.82369   -7342.4249    4209.0942   -11551.519    92.377885   -991.16608   -928.65389   -920.85915   -107.41726   -173.71716   -47.274746      46.7237      46.7237      46.7237           90           90           90     102002.7   -946.89304 
  992000       991502   -6869.3622     465.2708    -7334.633    4201.9845   -11536.617    90.329116   -615.53906   -1083.1104    -789.3219   -85.691987    -84.01738   -44.662707      46.7237      46.7237      46.7237           90           90           90     102002.7   -829.32379 
  993000       992502   -6838.3802    475.36939   -7313.7496    4218.7573   -11532.507    92.289687   -758.47855    -690.5437   -581.25113    18.903367   -69.530413    25.069651      46.7237      46.7237      46.7237           90           90           90     102002.7   -676.75779 
  994000       993502   -6863.8593    461.87742   -7325.7367    4217.8568   -11543.593    89.670315    -727.0047   -747.98144    -1092.827    206.26796    63.926908    37.231161      46.7237      46.7237      46.7237           90           90           90     102002.7   -855.93772 
  995000       994502   -6833.3909    489.82595   -7323.2169    4218.5546   -11541.771    95.096329   -444.55605   -519.29065   -309.26477   -96.063246    11.360417   -284.29533      46.7237      46.7237      46.7237           90           90           90     102002.7   -424.37049 
  996000       995502   -6860.0987    466.68248   -7326.7812    4205.8969   -11532.678    90.603184   -741.31667   -766.43226   -442.90509   -34.886671   -82.952159   -51.041668      46.7237      46.7237      46.7237           90           90           90     102002.7   -650.21801 
  997000       996502    -6847.339    481.93381   -7329.2728    4218.4432   -11547.716    93.564124   -1034.4521   -872.48794   -680.19985    42.661365   -371.13122   -273.70488      46.7237      46.7237      46.7237           90           90           90     102002.7   -862.37996 
  998000       997502   -6877.3669    447.34644   -7324.7134    4211.7128   -11536.426    86.849224   -461.07228   -862.65888   -592.96814    102.98664    -66.29203    93.628804      46.7237      46.7237      46.7237           90           90           90     102002.7   -638.89977 
  999000       998502   -6853.4512    465.68369   -7319.1349    4223.3044   -11542.439    90.409276   -798.43897   -546.23975   -429.49948    123.39484    56.298273    73.806102      46.7237      46.7237      46.7237           90           90           90     102002.7   -591.39273 
 1000000       999502   -6858.8649    472.85897   -7331.7238    4214.1846   -11545.908    91.802306   -621.68966   -551.11929   -233.26716    66.792859   -98.414084   -184.50799      46.7237      46.7237      46.7237           90           90           90     102002.7   -468.69204 
 1000498      1000000   -6871.7847    452.26881   -7324.0535    4223.1015   -11547.155    87.804869   -779.72188   -744.55577   -1328.5191     49.01142    164.03319    57.226033      46.7237      46.7237      46.7237           90           90           90     102002.7   -950.93225 
Loop time of 1414.69 on 16 procs for 500000 steps with 1729 atoms

Performance: 30.537 ns/day, 0.786 hours/ns, 353.433 timesteps/s
99.8% CPU use with 16 MPI tasks x no OpenMP threads

MPI task timing breakdown:
Section |  min time  |  avg time  |  max time  |%varavg| %total
---------------------------------------------------------------
Pair    | 589.27     | 764.3      | 977.05     | 474.8 | 54.03
Bond    | 174.6      | 183.15     | 190.08     |  31.9 | 12.95
Neigh   | 2.3565     | 2.3664     | 2.3726     |   0.3 |  0.17
Comm    | 221.56     | 437.41     | 608.6      | 627.0 | 30.92
Output  | 0.096653   | 0.1017     | 0.10215    |   0.4 |  0.01
Modify  | 21.62      | 22.064     | 22.694     |   6.9 |  1.56
Other   |            | 5.302      |            |       |  0.37

Nlocal:    108.062 ave 129 max 69 min
Histogram: 1 0 1 0 1 3 1 3 3 3
Nghost:    2197.31 ave 2238 max 2170 min
Histogram: 1 1 5 2 2 3 0 0 1 1
Neighs:    11440.6 ave 16488 max 6817 min
Histogram: 1 0 4 1 2 3 1 2 1 1

Total # of neighbors = 183050
Ave neighs/atom = 105.87
Ave special neighs/atom = 6.66281
Neighbor list builds = 2093
Dangerous builds = 0
Total wall time: 0:45:05
