LAMMPS (30 Mar 2018)
Reading data file ...
  orthogonal box = (0 0 0) to (46.7237 46.7237 46.7237)
  2 by 2 by 4 MPI processor grid
  reading atoms ...
  3316 atoms
  scanning bonds ...
  5 = max bonds/atom
  scanning angles ...
  10 = max angles/atom
  scanning dihedrals ...
  32 = max dihedrals/atom
  scanning impropers ...
  3 = max impropers/atom
  reading bonds ...
  2064 bonds
  reading angles ...
  3696 angles
  reading dihedrals ...
  6240 dihedrals
  reading impropers ...
  1008 impropers
Finding 1-2 1-3 1-4 neighbors ...
  special bond factors lj:   0          0          0         
  special bond factors coul: 0          0          0         
  5 = max # of 1-2 neighbors
  8 = max # of 1-3 neighbors
  20 = max # of 1-4 neighbors
  19 = max # of special neighbors
Finding 1-2 1-3 1-4 neighbors ...
  special bond factors lj:   0          0          1         
  special bond factors coul: 1          1          1         
  5 = max # of 1-2 neighbors
  8 = max # of 1-3 neighbors
  19 = max # of special neighbors
WARNING: Using 'neigh_modify every 1 delay 0 check yes' setting during minimization (../min.cpp:168)
Neighbor list info ...
  update every 1 steps, delay 0 steps, check yes
  max neighbors/atom: 2000, page size: 100000
  master list distance cutoff = 16
  ghost atom cutoff = 16
  binsize = 8, bins = 6 6 6
  3 neighbor lists, perpetual/occasional/extra = 3 0 0
  (1) pair buck6d/coul/gauss/dsf, perpetual, skip from (3)
      attributes: half, newton on
      pair build: skip
      stencil: none
      bin: none
  (2) pair lj/cut, perpetual, skip from (3)
      attributes: half, newton on
      pair build: skip
      stencil: none
      bin: none
  (3) neighbor class addition, perpetual
      attributes: half, newton on
      pair build: half/bin/newton
      stencil: half/bin/3d/newton
      bin: standard
Setting up cg style minimization ...
  Unit style    : real
  Current step  : 0
WARNING: Inconsistent image flags (../domain.cpp:786)
Per MPI rank memory allocation (min/avg/max) = 23.03 | 23.48 | 23.93 Mbytes
Step Temp E_pair E_mol TotEng Press 
       0            0   -15977.278    6482.8914   -9494.3864      6566.46 
     500            0   -16333.084    3777.8199   -12555.264   -1246.6852 
Loop time of 4.50305 on 16 procs for 500 steps with 3316 atoms

99.9% CPU use with 16 MPI tasks x no OpenMP threads

Minimization stats:
  Stopping criterion = max force evaluations
  Energy initial, next-to-last, final = 
        -9494.38638366     -12555.2163032      -12555.264234
  Force two-norm initial, final = 2575.25 10.0967
  Force max component initial, final = 152.09 1.40606
  Final line search alpha, max atom move = 0.00912496 0.0128302
  Iterations, force evaluations = 500 1000

MPI task timing breakdown:
Section |  min time  |  avg time  |  max time  |%varavg| %total
---------------------------------------------------------------
Pair    | 2.5152     | 3.1179     | 3.6752     |  18.5 | 69.24
Bond    | 0.31228    | 0.35975    | 0.41038    |   4.7 |  7.99
Neigh   | 0.024438   | 0.024556   | 0.024729   |   0.1 |  0.55
Comm    | 0.34979    | 0.95599    | 1.5511     |  33.9 | 21.23
Output  | 0          | 0          | 0          |   0.0 |  0.00
Modify  | 0          | 0          | 0          |   0.0 |  0.00
Other   |            | 0.04484    |            |       |  1.00

Nlocal:    207.25 ave 229 max 192 min
Histogram: 2 1 3 1 3 2 2 1 0 1
Nghost:    4149.19 ave 4183 max 4125 min
Histogram: 4 2 0 1 4 1 0 2 0 2
Neighs:    11508.2 ave 16313 max 7196 min
Histogram: 2 2 2 1 1 2 2 2 0 2

Total # of neighbors = 184131
Ave neighs/atom = 55.528
Ave special neighs/atom = 3.47407
Neighbor list builds = 7
Dangerous builds = 0
Neighbor list info ...
  update every 1 steps, delay 10 steps, check yes
  max neighbors/atom: 2000, page size: 100000
  master list distance cutoff = 16
  ghost atom cutoff = 16
  binsize = 8, bins = 6 6 6
  3 neighbor lists, perpetual/occasional/extra = 3 0 0
  (1) pair buck6d/coul/gauss/dsf, perpetual, skip from (3)
      attributes: half, newton on
      pair build: skip
      stencil: none
      bin: none
  (2) pair lj/cut, perpetual, skip from (3)
      attributes: half, newton on
      pair build: skip
      stencil: none
      bin: none
  (3) neighbor class addition, perpetual
      attributes: half, newton on
      pair build: half/bin/newton
      stencil: half/bin/3d/newton
      bin: standard
Setting up Verlet run ...
  Unit style    : real
  Current step  : 500
  Time step     : 1
WARNING: Inconsistent image flags (../domain.cpp:786)
Per MPI rank memory allocation (min/avg/max) = 22.67 | 22.74 | 22.8 Mbytes
Step Temp PotEng TotEng Press Volume Lx Ly Lz 
     500           91   -12555.264   -11656.058   -843.70808     102002.7      46.7237      46.7237      46.7237 
    1000    76.302826   -11806.709   -11052.732    348.41696     102002.7      46.7237      46.7237      46.7237 
    2000    92.611027   -11653.023   -10737.898    479.56156     102002.7      46.7237      46.7237      46.7237 
    3000    89.124993   -11687.651   -10806.973    723.82955     102002.7      46.7237      46.7237      46.7237 
    4000    91.469535   -11662.868   -10759.022    610.49068     102002.7      46.7237      46.7237      46.7237 
    5000    88.566249   -11687.422   -10812.265     416.7338     102002.7      46.7237      46.7237      46.7237 
    6000    91.770144   -11681.877   -10775.061    834.17734     102002.7      46.7237      46.7237      46.7237 
    7000    92.118616   -11675.143   -10764.884    704.83587     102002.7      46.7237      46.7237      46.7237 
    8000    88.461012   -11677.929   -10803.811     420.7963     102002.7      46.7237      46.7237      46.7237 
    9000    89.900263   -11685.341   -10797.002    905.60658     102002.7      46.7237      46.7237      46.7237 
   10000     91.37636   -11693.005    -10790.08    486.80692     102002.7      46.7237      46.7237      46.7237 
   11000    91.164786   -11718.324    -10817.49    343.56183     102002.7      46.7237      46.7237      46.7237 
   12000    91.292016   -11676.063   -10773.972    701.70704     102002.7      46.7237      46.7237      46.7237 
   13000    91.590216   -11710.657   -10805.619    646.16203     102002.7      46.7237      46.7237      46.7237 
   14000    89.851282   -11693.239   -10805.384    593.61276     102002.7      46.7237      46.7237      46.7237 
   15000    90.408959   -11690.273   -10796.907    442.35172     102002.7      46.7237      46.7237      46.7237 
   16000    91.202016   -11705.118   -10803.916    454.24414     102002.7      46.7237      46.7237      46.7237 
   17000    89.475334   -11704.396   -10820.256    556.21913     102002.7      46.7237      46.7237      46.7237 
   18000    90.404803   -11705.393   -10812.068    641.90165     102002.7      46.7237      46.7237      46.7237 
   19000    89.245538   -11696.472   -10814.602    816.86203     102002.7      46.7237      46.7237      46.7237 
   20000    91.084315   -11715.864   -10815.824     346.8684     102002.7      46.7237      46.7237      46.7237 
   21000    92.924262   -11707.178   -10788.958    771.58109     102002.7      46.7237      46.7237      46.7237 
   22000    90.908554   -11725.314   -10827.012    441.25933     102002.7      46.7237      46.7237      46.7237 
   23000    90.577581   -11691.414   -10796.382    794.53785     102002.7      46.7237      46.7237      46.7237 
   24000    89.174226   -11717.533   -10836.368    680.36442     102002.7      46.7237      46.7237      46.7237 
   25000    93.427615   -11724.932   -10801.738    443.86996     102002.7      46.7237      46.7237      46.7237 
   26000    89.326017   -11710.401   -10827.736    758.98343     102002.7      46.7237      46.7237      46.7237 
   27000    88.198948   -11721.905   -10850.377    531.51403     102002.7      46.7237      46.7237      46.7237 
   28000    91.868537   -11716.102   -10808.314    644.85243     102002.7      46.7237      46.7237      46.7237 
   29000     90.89666   -11693.388   -10795.203    846.43911     102002.7      46.7237      46.7237      46.7237 
   30000    89.544378   -11740.827   -10856.004    622.52302     102002.7      46.7237      46.7237      46.7237 
   31000    92.344997   -11727.165   -10814.669    586.22027     102002.7      46.7237      46.7237      46.7237 
   32000    92.210672   -11716.364   -10805.194    483.45613     102002.7      46.7237      46.7237      46.7237 
   33000    91.118164   -11728.603   -10828.229    501.87368     102002.7      46.7237      46.7237      46.7237 
   34000    90.603374   -11723.521   -10828.235    722.48922     102002.7      46.7237      46.7237      46.7237 
   35000    94.774755   -11696.998   -10760.492    172.25646     102002.7      46.7237      46.7237      46.7237 
   36000     91.04359   -11710.449   -10810.812    641.83333     102002.7      46.7237      46.7237      46.7237 
   37000    92.017037   -11720.699   -10811.443    849.25185     102002.7      46.7237      46.7237      46.7237 
   38000    90.595282   -11741.666   -10846.459    384.26055     102002.7      46.7237      46.7237      46.7237 
   39000    89.495842   -11723.175   -10838.832    1048.0555     102002.7      46.7237      46.7237      46.7237 
   40000    89.327788   -11733.191   -10850.509    442.70677     102002.7      46.7237      46.7237      46.7237 
   41000    90.881268    -11725.06   -10827.027    198.70205     102002.7      46.7237      46.7237      46.7237 
   42000    89.901293   -11723.865   -10835.515    354.69533     102002.7      46.7237      46.7237      46.7237 
   43000    89.913029   -11727.086   -10838.621    537.07852     102002.7      46.7237      46.7237      46.7237 
   44000     91.67568   -11730.887   -10825.004    638.73688     102002.7      46.7237      46.7237      46.7237 
   45000    91.119906   -11737.267   -10836.876    258.41954     102002.7      46.7237      46.7237      46.7237 
   46000    92.678595   -11725.806   -10810.013    210.31462     102002.7      46.7237      46.7237      46.7237 
   47000    91.598521   -11723.739   -10818.618    361.43996     102002.7      46.7237      46.7237      46.7237 
   48000    91.680018    -11749.24   -10843.315    673.09257     102002.7      46.7237      46.7237      46.7237 
   49000    90.169207   -11728.681   -10837.684    455.75582     102002.7      46.7237      46.7237      46.7237 
   50000    91.340317    -11760.89   -10858.321    537.50677     102002.7      46.7237      46.7237      46.7237 
   51000    91.375611   -11741.573   -10838.656    521.17013     102002.7      46.7237      46.7237      46.7237 
   52000    91.404708   -11738.567   -10835.362    587.99195     102002.7      46.7237      46.7237      46.7237 
   53000    89.889371   -11725.122   -10836.891    534.86877     102002.7      46.7237      46.7237      46.7237 
   54000    89.117835   -11723.099   -10842.491    407.53614     102002.7      46.7237      46.7237      46.7237 
   55000    90.462629   -11712.089   -10818.193    418.19076     102002.7      46.7237      46.7237      46.7237 
   56000    90.346248   -11741.465   -10848.719    616.00783     102002.7      46.7237      46.7237      46.7237 
   57000    92.793027   -11740.705   -10823.781    423.84829     102002.7      46.7237      46.7237      46.7237 
   58000    90.292426    -11738.02   -10845.805    448.55956     102002.7      46.7237      46.7237      46.7237 
   59000    91.791505   -11725.986   -10818.959    557.40475     102002.7      46.7237      46.7237      46.7237 
   60000    92.318858   -11734.202   -10821.964    483.02974     102002.7      46.7237      46.7237      46.7237 
   61000    92.598206    -11744.99   -10829.991    504.43622     102002.7      46.7237      46.7237      46.7237 
   62000    91.410441   -11739.814   -10836.553    388.72036     102002.7      46.7237      46.7237      46.7237 
   63000     90.32219   -11741.196   -10848.687    486.59988     102002.7      46.7237      46.7237      46.7237 
   64000    91.633481   -11740.793   -10835.328    623.73559     102002.7      46.7237      46.7237      46.7237 
   65000    89.573841   -11737.733   -10852.619    663.24495     102002.7      46.7237      46.7237      46.7237 
   66000     91.96405   -11730.444   -10821.712    248.20445     102002.7      46.7237      46.7237      46.7237 
   67000    91.594918   -11734.326   -10829.242       502.82     102002.7      46.7237      46.7237      46.7237 
   68000    89.816994   -11727.685   -10840.169    543.37173     102002.7      46.7237      46.7237      46.7237 
   69000    92.154926   -11728.007   -10817.388    305.42072     102002.7      46.7237      46.7237      46.7237 
   70000    92.132711    -11731.42   -10821.021    542.18557     102002.7      46.7237      46.7237      46.7237 
   71000    90.133955   -11747.572   -10856.924    613.94909     102002.7      46.7237      46.7237      46.7237 
   72000    91.553198   -11737.427   -10832.754      557.758     102002.7      46.7237      46.7237      46.7237 
   73000    89.504658   -11749.512   -10865.082    598.57502     102002.7      46.7237      46.7237      46.7237 
   74000     89.63004   -11733.289    -10847.62    487.14141     102002.7      46.7237      46.7237      46.7237 
   75000    91.363989   -11727.024   -10824.222    428.75318     102002.7      46.7237      46.7237      46.7237 
   76000     90.98417    -11754.84    -10855.79    656.65742     102002.7      46.7237      46.7237      46.7237 
   77000    91.219316   -11741.079   -10839.706    413.19274     102002.7      46.7237      46.7237      46.7237 
   78000     92.38037   -11744.091   -10831.245    604.75313     102002.7      46.7237      46.7237      46.7237 
   79000    93.539661   -11729.792   -10805.491    624.45559     102002.7      46.7237      46.7237      46.7237 
   80000    91.536242   -11741.841   -10837.337    575.11941     102002.7      46.7237      46.7237      46.7237 
   81000    91.163959   -11723.195   -10822.369    686.12543     102002.7      46.7237      46.7237      46.7237 
   82000    92.016789   -11746.546   -10837.293    548.56153     102002.7      46.7237      46.7237      46.7237 
   83000    90.240792   -11745.331   -10853.627    556.17859     102002.7      46.7237      46.7237      46.7237 
   84000    90.891873   -11728.909   -10830.772    189.48757     102002.7      46.7237      46.7237      46.7237 
   85000    88.645981   -11752.498   -10876.553    507.35633     102002.7      46.7237      46.7237      46.7237 
   86000     89.33192   -11722.984   -10840.261    581.43669     102002.7      46.7237      46.7237      46.7237 
   87000    91.063201   -11738.731   -10838.901    474.60534     102002.7      46.7237      46.7237      46.7237 
   88000    93.094568   -11730.604   -10810.701    548.48827     102002.7      46.7237      46.7237      46.7237 
   89000    94.505352    -11747.65   -10813.806    467.28887     102002.7      46.7237      46.7237      46.7237 
   90000    89.650797   -11758.291   -10872.417    186.09628     102002.7      46.7237      46.7237      46.7237 
   91000    90.513631   -11711.902   -10817.502     644.2059     102002.7      46.7237      46.7237      46.7237 
   92000    90.761879   -11749.208   -10852.355    656.56029     102002.7      46.7237      46.7237      46.7237 
   93000    90.910648   -11720.218   -10821.895    519.15411     102002.7      46.7237      46.7237      46.7237 
   94000    93.521683   -11735.256   -10811.133    648.39851     102002.7      46.7237      46.7237      46.7237 
   95000    91.427522   -11723.786   -10820.356    577.93527     102002.7      46.7237      46.7237      46.7237 
   96000    91.353891   -11735.005   -10832.302    436.49839     102002.7      46.7237      46.7237      46.7237 
   97000    89.354551   -11734.719   -10851.773    290.26708     102002.7      46.7237      46.7237      46.7237 
   98000     89.53181   -11733.842   -10849.144    464.32506     102002.7      46.7237      46.7237      46.7237 
   99000    90.789484   -11733.263   -10836.137    374.68722     102002.7      46.7237      46.7237      46.7237 
  100000    88.467735    -11742.46   -10868.276    458.56811     102002.7      46.7237      46.7237      46.7237 
  101000    90.670916   -11737.364    -10841.41     603.2672     102002.7      46.7237      46.7237      46.7237 
  102000    88.598806   -11720.073   -10844.594     602.5253     102002.7      46.7237      46.7237      46.7237 
  103000    90.811889   -11741.923   -10844.576    579.39415     102002.7      46.7237      46.7237      46.7237 
  104000    92.348869   -11753.469   -10840.934    393.07927     102002.7      46.7237      46.7237      46.7237 
  105000    90.172554    -11740.43     -10849.4    137.46206     102002.7      46.7237      46.7237      46.7237 
  106000    89.769852   -11724.943   -10837.893    578.69021     102002.7      46.7237      46.7237      46.7237 
  107000    89.807172    -11736.22   -10848.801    602.09808     102002.7      46.7237      46.7237      46.7237 
  108000    91.173379   -11744.409    -10843.49    449.05762     102002.7      46.7237      46.7237      46.7237 
  109000    91.494753   -11762.176   -10858.081    646.49498     102002.7      46.7237      46.7237      46.7237 
  110000     90.94872   -11725.132   -10826.432    466.66904     102002.7      46.7237      46.7237      46.7237 
  111000    91.692416   -11743.777   -10837.729    715.81665     102002.7      46.7237      46.7237      46.7237 
  112000    90.427974   -11729.886   -10836.332    598.39491     102002.7      46.7237      46.7237      46.7237 
  113000    93.132454   -11718.246   -10797.968    625.62896     102002.7      46.7237      46.7237      46.7237 
  114000    91.023276   -11746.087   -10846.651    562.38444     102002.7      46.7237      46.7237      46.7237 
  115000     90.17578   -11761.222    -10870.16    562.62364     102002.7      46.7237      46.7237      46.7237 
  116000    91.368859   -11740.917   -10838.066    387.67334     102002.7      46.7237      46.7237      46.7237 
  117000    90.108166   -11718.179   -10827.785    446.22908     102002.7      46.7237      46.7237      46.7237 
  118000     90.86353   -11740.566   -10842.708    495.41474     102002.7      46.7237      46.7237      46.7237 
  119000    94.104853   -11743.637    -10813.75    526.07365     102002.7      46.7237      46.7237      46.7237 
  120000    93.173487    -11739.67   -10818.986    642.69327     102002.7      46.7237      46.7237      46.7237 
  121000    90.785058   -11732.763   -10835.681    609.15743     102002.7      46.7237      46.7237      46.7237 
  122000    90.092613   -11750.536   -10860.296    563.39487     102002.7      46.7237      46.7237      46.7237 
  123000    90.955539    -11731.65   -10832.883    653.11702     102002.7      46.7237      46.7237      46.7237 
  124000    89.403479   -11728.882   -10845.452    498.21444     102002.7      46.7237      46.7237      46.7237 
  125000      90.1526   -11735.191   -10844.359    573.26549     102002.7      46.7237      46.7237      46.7237 
  126000    90.524037    -11760.81   -10866.307    468.49979     102002.7      46.7237      46.7237      46.7237 
  127000    91.853147   -11738.343   -10830.706    369.09234     102002.7      46.7237      46.7237      46.7237 
  128000    93.431249   -11757.888   -10834.658    446.33647     102002.7      46.7237      46.7237      46.7237 
  129000    92.297533   -11724.888    -10812.86    469.61083     102002.7      46.7237      46.7237      46.7237 
  130000    90.947445   -11734.773   -10836.086    654.75369     102002.7      46.7237      46.7237      46.7237 
  131000    92.124853   -11742.614   -10832.293     684.2823     102002.7      46.7237      46.7237      46.7237 
  132000    88.135921   -11761.713   -10890.808    596.48141     102002.7      46.7237      46.7237      46.7237 
  133000    92.332757   -11729.969   -10817.593    501.45665     102002.7      46.7237      46.7237      46.7237 
  134000    92.433407   -11754.953   -10841.583    602.33009     102002.7      46.7237      46.7237      46.7237 
  135000    91.411197   -11730.105   -10826.836    481.37368     102002.7      46.7237      46.7237      46.7237 
  136000    89.131177    -11759.44   -10878.701    556.68444     102002.7      46.7237      46.7237      46.7237 
  137000    88.075681    -11728.17   -10857.861    758.07099     102002.7      46.7237      46.7237      46.7237 
  138000    89.612075   -11736.362    -10850.87    590.58774     102002.7      46.7237      46.7237      46.7237 
  139000    90.997824   -11733.059   -10833.874     457.5964     102002.7      46.7237      46.7237      46.7237 
  140000    91.149951   -11728.685   -10827.997    461.65606     102002.7      46.7237      46.7237      46.7237 
  141000    89.499113   -11755.544   -10871.169    623.08759     102002.7      46.7237      46.7237      46.7237 
  142000    89.929642   -11744.607   -10855.977    776.62342     102002.7      46.7237      46.7237      46.7237 
  143000    90.100928   -11728.362    -10838.04    518.16357     102002.7      46.7237      46.7237      46.7237 
  144000    91.356416   -11774.406   -10871.679    533.99212     102002.7      46.7237      46.7237      46.7237 
  145000    91.162821   -11772.348   -10871.533    678.26681     102002.7      46.7237      46.7237      46.7237 
  146000    90.830689   -11732.672   -10835.139     392.9177     102002.7      46.7237      46.7237      46.7237 
  147000     90.52943    -11755.59   -10861.034    397.35719     102002.7      46.7237      46.7237      46.7237 
  148000     89.97067   -11719.853   -10830.818    499.95034     102002.7      46.7237      46.7237      46.7237 
  149000    92.623669   -11734.988   -10819.738    377.56573     102002.7      46.7237      46.7237      46.7237 
  150000    89.595509   -11747.284   -10861.957    427.63785     102002.7      46.7237      46.7237      46.7237 
  151000    92.331173   -11748.075   -10835.715    683.59799     102002.7      46.7237      46.7237      46.7237 
  152000    91.188249   -11755.401   -10854.335    529.82445     102002.7      46.7237      46.7237      46.7237 
  153000    91.059341   -11739.021   -10839.228    586.81346     102002.7      46.7237      46.7237      46.7237 
  154000    91.218605   -11720.214   -10818.848    603.61122     102002.7      46.7237      46.7237      46.7237 
  155000    91.211408   -11748.017   -10846.722    534.10938     102002.7      46.7237      46.7237      46.7237 
  156000    88.587516   -11756.527    -10881.16    690.74595     102002.7      46.7237      46.7237      46.7237 
  157000    90.844628   -11745.097   -10847.426    527.94973     102002.7      46.7237      46.7237      46.7237 
  158000    93.191562     -11728.6   -10807.739    686.32982     102002.7      46.7237      46.7237      46.7237 
  159000      90.9155   -11757.053   -10858.681    447.18119     102002.7      46.7237      46.7237      46.7237 
  160000    90.713526    -11729.27   -10832.895    534.87529     102002.7      46.7237      46.7237      46.7237 
  161000    91.948734   -11733.257   -10824.676    571.72177     102002.7      46.7237      46.7237      46.7237 
  162000    88.423684   -11720.736   -10846.988    1065.5135     102002.7      46.7237      46.7237      46.7237 
  163000    89.020203   -11745.719   -10866.076    588.06851     102002.7      46.7237      46.7237      46.7237 
  164000    92.120457   -11755.655   -10845.377    523.18982     102002.7      46.7237      46.7237      46.7237 
  165000    90.226648   -11745.298   -10853.734    387.70062     102002.7      46.7237      46.7237      46.7237 
  166000    91.639595   -11731.827   -10826.301    489.57486     102002.7      46.7237      46.7237      46.7237 
  167000    92.631802    -11755.96    -10840.63    331.22669     102002.7      46.7237      46.7237      46.7237 
  168000    92.014826   -11721.304    -10812.07    692.18107     102002.7      46.7237      46.7237      46.7237 
  169000    91.551045   -11732.086   -10827.435    593.84859     102002.7      46.7237      46.7237      46.7237 
  170000    91.229732   -11726.308   -10824.831    816.06737     102002.7      46.7237      46.7237      46.7237 
  171000    91.248226   -11726.382   -10824.723    901.83436     102002.7      46.7237      46.7237      46.7237 
  172000    91.865595   -11733.404   -10825.644     812.2187     102002.7      46.7237      46.7237      46.7237 
  173000    91.295969    -11733.83   -10831.699    779.36604     102002.7      46.7237      46.7237      46.7237 
  174000    90.167866   -11731.811   -10840.828    753.38082     102002.7      46.7237      46.7237      46.7237 
  175000    90.964744   -11739.102   -10840.244    436.94587     102002.7      46.7237      46.7237      46.7237 
  176000    91.170742   -11738.374   -10837.481    529.76615     102002.7      46.7237      46.7237      46.7237 
  177000    92.515124   -11732.928    -10818.75    518.82284     102002.7      46.7237      46.7237      46.7237 
  178000    91.817476   -11753.771   -10846.487    523.27516     102002.7      46.7237      46.7237      46.7237 
  179000    90.041493   -11719.687   -10829.952    476.42225     102002.7      46.7237      46.7237      46.7237 
  180000    87.219695   -11734.272    -10872.42    702.76418     102002.7      46.7237      46.7237      46.7237 
  181000    89.516883   -11733.954   -10849.404    405.70521     102002.7      46.7237      46.7237      46.7237 
  182000    88.916117    -11719.64   -10841.025     497.5201     102002.7      46.7237      46.7237      46.7237 
  183000    90.944809   -11731.109   -10832.448    790.77937     102002.7      46.7237      46.7237      46.7237 
  184000    89.838929   -11745.993    -10858.26    666.00104     102002.7      46.7237      46.7237      46.7237 
  185000    90.800566   -11728.059   -10830.824    887.81568     102002.7      46.7237      46.7237      46.7237 
  186000    91.503718   -11729.195   -10825.012    510.26694     102002.7      46.7237      46.7237      46.7237 
  187000    91.997663   -11734.638   -10825.573    589.47954     102002.7      46.7237      46.7237      46.7237 
  188000    87.391006   -11746.574    -10883.03    541.23356     102002.7      46.7237      46.7237      46.7237 
  189000    89.990142   -11749.354   -10860.127    598.42482     102002.7      46.7237      46.7237      46.7237 
  190000    92.080805   -11744.978   -10835.092    454.21723     102002.7      46.7237      46.7237      46.7237 
  191000    91.721769   -11724.574   -10818.236    438.27276     102002.7      46.7237      46.7237      46.7237 
  192000    90.801615   -11737.509   -10840.263    808.60672     102002.7      46.7237      46.7237      46.7237 
  193000    88.502906   -11748.708   -10874.177    233.04177     102002.7      46.7237      46.7237      46.7237 
  194000    90.390675   -11734.448   -10841.263    384.41899     102002.7      46.7237      46.7237      46.7237 
  195000    90.114097   -11734.329   -10843.877    535.51624     102002.7      46.7237      46.7237      46.7237 
  196000    92.682919   -11750.013   -10834.177    548.66812     102002.7      46.7237      46.7237      46.7237 
  197000    90.374124   -11752.724   -10859.702    467.60276     102002.7      46.7237      46.7237      46.7237 
  198000    87.632095   -11722.047   -10856.121    504.98628     102002.7      46.7237      46.7237      46.7237 
  199000     90.31502   -11736.163   -10843.725    415.83055     102002.7      46.7237      46.7237      46.7237 
  200000    92.596329   -11750.476   -10835.496    705.37598     102002.7      46.7237      46.7237      46.7237 
  201000    91.986091   -11717.017   -10808.066     830.4297     102002.7      46.7237      46.7237      46.7237 
  202000    90.903967   -11737.891   -10839.634    942.75446     102002.7      46.7237      46.7237      46.7237 
  203000    90.130329   -11737.287   -10846.674    620.42422     102002.7      46.7237      46.7237      46.7237 
  204000    91.317208   -11740.388   -10838.048    426.53093     102002.7      46.7237      46.7237      46.7237 
  205000    90.226431   -11735.914   -10844.352    697.85286     102002.7      46.7237      46.7237      46.7237 
  206000    90.048107   -11737.847   -10848.047    737.88904     102002.7      46.7237      46.7237      46.7237 
  207000    90.610486    -11746.37   -10851.013    448.04261     102002.7      46.7237      46.7237      46.7237 
  208000    91.609097   -11741.634   -10836.409    655.72193     102002.7      46.7237      46.7237      46.7237 
  209000    92.904958   -11747.469   -10829.439    811.59391     102002.7      46.7237      46.7237      46.7237 
  210000    89.504781   -11746.486   -10862.054    519.22323     102002.7      46.7237      46.7237      46.7237 
  211000     92.26759   -11740.595   -10828.863    620.27688     102002.7      46.7237      46.7237      46.7237 
  212000    90.860299   -11729.981   -10832.156    837.76101     102002.7      46.7237      46.7237      46.7237 
  213000    90.109661   -11744.347   -10853.938    731.68545     102002.7      46.7237      46.7237      46.7237 
  214000    89.078968   -11738.536   -10858.312    580.31162     102002.7      46.7237      46.7237      46.7237 
  215000    89.757174   -11743.556   -10856.631    862.23981     102002.7      46.7237      46.7237      46.7237 
  216000    90.313385   -11719.966   -10827.544    448.36087     102002.7      46.7237      46.7237      46.7237 
  217000    90.896536   -11751.544    -10853.36    392.82495     102002.7      46.7237      46.7237      46.7237 
  218000    92.591725   -11722.531   -10807.596    656.26047     102002.7      46.7237      46.7237      46.7237 
  219000    91.209795   -11753.473   -10852.193    687.72942     102002.7      46.7237      46.7237      46.7237 
  220000    89.623157   -11770.824   -10885.223    960.06485     102002.7      46.7237      46.7237      46.7237 
  221000     92.64365   -11757.504   -10842.056    424.58944     102002.7      46.7237      46.7237      46.7237 
  222000    90.131795   -11742.092   -10851.465    484.70897     102002.7      46.7237      46.7237      46.7237 
  223000    90.248418   -11747.235   -10855.456    552.16404     102002.7      46.7237      46.7237      46.7237 
  224000    90.856936   -11749.972   -10852.179    561.68611     102002.7      46.7237      46.7237      46.7237 
  225000    91.152498   -11749.387   -10848.674    586.41369     102002.7      46.7237      46.7237      46.7237 
  226000    88.459175   -11741.939    -10867.84    763.38381     102002.7      46.7237      46.7237      46.7237 
  227000    93.161753   -11747.863   -10827.296    312.91607     102002.7      46.7237      46.7237      46.7237 
  228000    90.601839   -11744.235   -10848.964    218.65589     102002.7      46.7237      46.7237      46.7237 
  229000    90.681976   -11740.577   -10844.513    342.96741     102002.7      46.7237      46.7237      46.7237 
  230000    92.872123   -11727.714   -10810.009    545.37196     102002.7      46.7237      46.7237      46.7237 
  231000    91.172175   -11723.072   -10822.165    647.17049     102002.7      46.7237      46.7237      46.7237 
  232000    90.932528   -11764.101   -10865.562    589.67724     102002.7      46.7237      46.7237      46.7237 
  233000     90.61214   -11748.511   -10853.137    283.07797     102002.7      46.7237      46.7237      46.7237 
  234000    92.369067   -11735.852   -10823.118    540.58135     102002.7      46.7237      46.7237      46.7237 
  235000    90.631349   -11748.778   -10853.215    592.19839     102002.7      46.7237      46.7237      46.7237 
  236000    90.004842   -11755.297   -10865.925    394.11017     102002.7      46.7237      46.7237      46.7237 
  237000    89.012655   -11760.404   -10880.835    480.25443     102002.7      46.7237      46.7237      46.7237 
  238000    89.135343   -11761.313   -10880.532    628.07574     102002.7      46.7237      46.7237      46.7237 
  239000    90.924119   -11758.557   -10860.101    589.93941     102002.7      46.7237      46.7237      46.7237 
  240000     90.43192   -11748.585   -10854.993    747.50131     102002.7      46.7237      46.7237      46.7237 
  241000    87.686804   -11763.442   -10896.975    392.19027     102002.7      46.7237      46.7237      46.7237 
  242000    92.080218   -11746.965   -10837.085    424.59832     102002.7      46.7237      46.7237      46.7237 
  243000    89.902033     -11756.6   -10868.243    527.41076     102002.7      46.7237      46.7237      46.7237 
  244000    91.995939   -11755.018   -10845.971    505.33739     102002.7      46.7237      46.7237      46.7237 
  245000    92.274119   -11758.033   -10846.237    587.17357     102002.7      46.7237      46.7237      46.7237 
  246000     89.58705   -11779.956   -10894.712      50.7026     102002.7      46.7237      46.7237      46.7237 
  247000    91.500268    -11742.76    -10838.61    418.18662     102002.7      46.7237      46.7237      46.7237 
  248000    90.845305   -11764.244   -10866.567    769.28717     102002.7      46.7237      46.7237      46.7237 
  249000    91.748217    -11752.48   -10845.881    557.34791     102002.7      46.7237      46.7237      46.7237 
  250000    88.149319   -11756.533   -10885.496    426.93551     102002.7      46.7237      46.7237      46.7237 
  251000    89.699866   -11781.106   -10894.747    686.79405     102002.7      46.7237      46.7237      46.7237 
  252000     89.73832   -11763.626   -10876.887     286.7726     102002.7      46.7237      46.7237      46.7237 
  253000    94.474689   -11754.584   -10821.044    503.10272     102002.7      46.7237      46.7237      46.7237 
  254000    90.263461   -11742.421   -10850.493    490.72227     102002.7      46.7237      46.7237      46.7237 
  255000    89.019677   -11746.066   -10866.429    367.21153     102002.7      46.7237      46.7237      46.7237 
  256000    92.950902   -11765.745   -10847.261    441.33705     102002.7      46.7237      46.7237      46.7237 
  257000    92.625549   -11755.237   -10839.968    595.85952     102002.7      46.7237      46.7237      46.7237 
  258000    89.769686    -11757.45   -10870.401    461.17005     102002.7      46.7237      46.7237      46.7237 
  259000    91.357203   -11758.767   -10856.031    482.00214     102002.7      46.7237      46.7237      46.7237 
  260000    92.634464   -11765.087   -10849.731    590.54903     102002.7      46.7237      46.7237      46.7237 
  261000    88.369794   -11738.602   -10865.386     563.3555     102002.7      46.7237      46.7237      46.7237 
  262000    92.824886   -11758.415   -10841.177    579.38459     102002.7      46.7237      46.7237      46.7237 
  263000    91.331264   -11752.419    -10849.94     344.3501     102002.7      46.7237      46.7237      46.7237 
  264000    91.957968   -11744.598   -10835.926    576.36881     102002.7      46.7237      46.7237      46.7237 
  265000    91.762078   -11736.039   -10829.302    673.99724     102002.7      46.7237      46.7237      46.7237 
  266000    89.232894   -11747.059   -10865.315    363.34782     102002.7      46.7237      46.7237      46.7237 
  267000    89.402158   -11754.857    -10871.44    717.88564     102002.7      46.7237      46.7237      46.7237 
  268000    93.141606   -11749.998    -10829.63    618.12371     102002.7      46.7237      46.7237      46.7237 
  269000    93.494398   -11745.585   -10821.731    302.93155     102002.7      46.7237      46.7237      46.7237 
  270000    92.215292   -11757.552   -10846.337    385.88013     102002.7      46.7237      46.7237      46.7237 
  271000    90.981715   -11759.472   -10860.447    355.83253     102002.7      46.7237      46.7237      46.7237 
  272000    92.259688   -11765.296   -10853.643    591.79604     102002.7      46.7237      46.7237      46.7237 
  273000    90.107806   -11750.981   -10860.591    624.88216     102002.7      46.7237      46.7237      46.7237 
  274000    91.209385   -11758.496    -10857.22       474.51     102002.7      46.7237      46.7237      46.7237 
  275000    89.192193   -11755.277   -10873.934    829.31535     102002.7      46.7237      46.7237      46.7237 
  276000    91.141374   -11739.879   -10839.276    431.04753     102002.7      46.7237      46.7237      46.7237 
  277000    92.532173   -11733.532   -10819.186     481.3352     102002.7      46.7237      46.7237      46.7237 
  278000     90.75349   -11742.473   -10845.703     679.5032     102002.7      46.7237      46.7237      46.7237 
  279000    92.992801   -11766.248    -10847.35    700.12447     102002.7      46.7237      46.7237      46.7237 
  280000    90.270604   -11742.069   -10850.071    468.77209     102002.7      46.7237      46.7237      46.7237 
  281000    89.984274   -11759.464   -10870.295    656.79373     102002.7      46.7237      46.7237      46.7237 
  282000    91.312639   -11750.634   -10848.338    372.76284     102002.7      46.7237      46.7237      46.7237 
  283000    91.349912   -11746.985   -10844.322    446.98618     102002.7      46.7237      46.7237      46.7237 
  284000    88.853322   -11765.213    -10887.22    794.37592     102002.7      46.7237      46.7237      46.7237 
  285000    92.560666    -11782.81   -10868.182     431.5968     102002.7      46.7237      46.7237      46.7237 
  286000    92.795588   -11738.734   -10821.785    814.95216     102002.7      46.7237      46.7237      46.7237 
  287000    91.541831   -11754.921   -10850.361    554.52094     102002.7      46.7237      46.7237      46.7237 
  288000    93.089797   -11760.989   -10841.132    344.84942     102002.7      46.7237      46.7237      46.7237 
  289000    91.078331   -11762.019   -10862.039    618.43872     102002.7      46.7237      46.7237      46.7237 
  290000    92.704681   -11747.039   -10830.988    560.80588     102002.7      46.7237      46.7237      46.7237 
  291000    91.800768   -11755.361   -10848.242    497.69634     102002.7      46.7237      46.7237      46.7237 
  292000    93.140645   -11764.713   -10844.354    749.73622     102002.7      46.7237      46.7237      46.7237 
  293000    90.502832   -11752.798   -10858.505    538.22964     102002.7      46.7237      46.7237      46.7237 
  294000    91.131504   -11755.016   -10854.511     642.6288     102002.7      46.7237      46.7237      46.7237 
  295000     89.56418   -11762.012   -10876.994    653.38032     102002.7      46.7237      46.7237      46.7237 
  296000    92.297347   -11739.455   -10827.429    608.81816     102002.7      46.7237      46.7237      46.7237 
  297000    89.986529   -11745.801   -10856.609    702.25451     102002.7      46.7237      46.7237      46.7237 
  298000    89.130508   -11776.164   -10895.431     705.0161     102002.7      46.7237      46.7237      46.7237 
  299000    91.968525    -11760.41   -10851.633    619.01009     102002.7      46.7237      46.7237      46.7237 
  300000    90.678324   -11755.066   -10859.038    455.38636     102002.7      46.7237      46.7237      46.7237 
  301000    92.299681   -11740.251   -10828.203     570.2918     102002.7      46.7237      46.7237      46.7237 
  302000    91.297789   -11756.907   -10854.758    712.82853     102002.7      46.7237      46.7237      46.7237 
  303000    90.046353   -11743.354   -10853.571    778.10938     102002.7      46.7237      46.7237      46.7237 
  304000      92.1198   -11763.709   -10853.437    676.40462     102002.7      46.7237      46.7237      46.7237 
  305000    90.183817   -11727.376   -10836.235    232.65896     102002.7      46.7237      46.7237      46.7237 
  306000    91.909225   -11745.444   -10837.254    583.46851     102002.7      46.7237      46.7237      46.7237 
  307000    90.583771   -11758.162   -10863.069    655.40635     102002.7      46.7237      46.7237      46.7237 
  308000    93.179639   -11739.753   -10819.009    713.91886     102002.7      46.7237      46.7237      46.7237 
  309000    89.986738    -11733.53   -10844.336    767.05361     102002.7      46.7237      46.7237      46.7237 
  310000    92.317615     -11729.9   -10817.674    431.35684     102002.7      46.7237      46.7237      46.7237 
  311000    90.824664   -11742.708   -10845.235    672.09484     102002.7      46.7237      46.7237      46.7237 
  312000    90.476963   -11744.865   -10850.827    403.42245     102002.7      46.7237      46.7237      46.7237 
  313000    90.857071    -11735.95   -10838.156     664.1931     102002.7      46.7237      46.7237      46.7237 
  314000     88.78511   -11740.247   -10862.927     813.8536     102002.7      46.7237      46.7237      46.7237 
  315000    93.013725   -11769.412   -10850.307    242.34016     102002.7      46.7237      46.7237      46.7237 
  316000    91.909066   -11757.677   -10849.488    290.09143     102002.7      46.7237      46.7237      46.7237 
  317000    87.838222   -11734.305   -10866.342    378.48697     102002.7      46.7237      46.7237      46.7237 
  318000    92.462833   -11743.037   -10829.376    284.15624     102002.7      46.7237      46.7237      46.7237 
  319000    90.362285   -11763.885   -10870.981    468.18276     102002.7      46.7237      46.7237      46.7237 
  320000    91.269568   -11760.949   -10859.079    559.59751     102002.7      46.7237      46.7237      46.7237 
  321000    89.787558   -11763.148   -10875.922    339.10267     102002.7      46.7237      46.7237      46.7237 
  322000    92.726449   -11759.056    -10842.79    725.69385     102002.7      46.7237      46.7237      46.7237 
  323000    90.497798   -11747.783    -10853.54    360.12648     102002.7      46.7237      46.7237      46.7237 
  324000     91.59322   -11754.577   -10849.509    606.02448     102002.7      46.7237      46.7237      46.7237 
  325000    91.282754   -11748.098   -10846.098    586.04278     102002.7      46.7237      46.7237      46.7237 
  326000    90.885965   -11762.593   -10864.514    613.48873     102002.7      46.7237      46.7237      46.7237 
  327000    90.042643   -11756.988   -10867.242    533.37808     102002.7      46.7237      46.7237      46.7237 
  328000     89.42848    -11738.97   -10855.293    748.43353     102002.7      46.7237      46.7237      46.7237 
  329000    89.938889   -11722.597   -10833.876     895.4491     102002.7      46.7237      46.7237      46.7237 
  330000    90.748203   -11762.484   -10865.766    558.38428     102002.7      46.7237      46.7237      46.7237 
  331000    92.005977   -11764.092   -10854.946    471.78032     102002.7      46.7237      46.7237      46.7237 
  332000    90.068105   -11736.566   -10846.568    558.95714     102002.7      46.7237      46.7237      46.7237 
  333000    92.605622   -11742.388   -10827.316    583.80475     102002.7      46.7237      46.7237      46.7237 
  334000    90.154783   -11752.361   -10861.507    573.01104     102002.7      46.7237      46.7237      46.7237 
  335000    90.609797   -11759.367   -10864.016    334.37118     102002.7      46.7237      46.7237      46.7237 
  336000    91.579513   -11742.987   -10838.054    487.17669     102002.7      46.7237      46.7237      46.7237 
  337000    89.477062   -11761.543   -10877.386    646.30048     102002.7      46.7237      46.7237      46.7237 
  338000    91.441002   -11721.569   -10818.005    348.50678     102002.7      46.7237      46.7237      46.7237 
  339000    89.684342   -11743.587   -10857.381    422.57783     102002.7      46.7237      46.7237      46.7237 
  340000     92.39507   -11748.527   -10835.535    582.74408     102002.7      46.7237      46.7237      46.7237 
  341000    89.667053   -11749.423   -10863.388    701.76679     102002.7      46.7237      46.7237      46.7237 
  342000    91.176179   -11753.341   -10852.394    376.69889     102002.7      46.7237      46.7237      46.7237 
  343000     90.39281   -11770.572   -10877.366     450.5466     102002.7      46.7237      46.7237      46.7237 
  344000    88.066168   -11722.021   -10851.806    677.49071     102002.7      46.7237      46.7237      46.7237 
  345000    91.373145   -11739.982   -10837.089    217.70038     102002.7      46.7237      46.7237      46.7237 
  346000    91.417495   -11759.821   -10856.489    384.45271     102002.7      46.7237      46.7237      46.7237 
  347000    90.539715   -11755.263   -10860.605     673.2781     102002.7      46.7237      46.7237      46.7237 
  348000    91.129441   -11742.015    -10841.53     504.1878     102002.7      46.7237      46.7237      46.7237 
  349000    87.713123   -11749.781   -10883.053      485.737     102002.7      46.7237      46.7237      46.7237 
  350000    90.953431   -11751.644   -10852.898     634.0053     102002.7      46.7237      46.7237      46.7237 
  351000    89.100234    -11751.27   -10870.837     659.6243     102002.7      46.7237      46.7237      46.7237 
  352000    90.380942   -11750.489     -10857.4    447.41948     102002.7      46.7237      46.7237      46.7237 
  353000    89.910159   -11768.918   -10880.481    369.45284     102002.7      46.7237      46.7237      46.7237 
  354000    89.004122   -11750.441   -10870.957    358.14016     102002.7      46.7237      46.7237      46.7237 
  355000    91.581723   -11772.118   -10867.164    540.33575     102002.7      46.7237      46.7237      46.7237 
  356000    90.191198    -11756.37   -10865.156    647.73175     102002.7      46.7237      46.7237      46.7237 
  357000    90.358186    -11767.46   -10874.596    572.41285     102002.7      46.7237      46.7237      46.7237 
  358000    90.555591   -11724.306   -10829.491    729.46429     102002.7      46.7237      46.7237      46.7237 
  359000     93.77718   -11752.612   -10825.963    856.63622     102002.7      46.7237      46.7237      46.7237 
  360000    93.128193   -11731.321   -10811.086    729.41785     102002.7      46.7237      46.7237      46.7237 
  361000    91.216547   -11755.085   -10853.739    184.32063     102002.7      46.7237      46.7237      46.7237 
  362000    90.063323   -11746.858   -10856.908    561.28884     102002.7      46.7237      46.7237      46.7237 
  363000    90.511937   -11790.424   -10896.041    437.04558     102002.7      46.7237      46.7237      46.7237 
  364000     91.90774    -11763.99   -10855.814    196.12206     102002.7      46.7237      46.7237      46.7237 
  365000    89.427319   -11748.195   -10864.529    627.87166     102002.7      46.7237      46.7237      46.7237 
  366000    91.476512   -11749.073   -10845.158    780.25196     102002.7      46.7237      46.7237      46.7237 
  367000    90.386811   -11747.929   -10854.782    358.04271     102002.7      46.7237      46.7237      46.7237 
  368000    92.603641   -11740.135   -10825.082     722.6123     102002.7      46.7237      46.7237      46.7237 
  369000    92.447801   -11741.126   -10827.614    872.10093     102002.7      46.7237      46.7237      46.7237 
  370000    90.631788   -11735.755   -10840.188    969.90155     102002.7      46.7237      46.7237      46.7237 
  371000    90.500806   -11761.027   -10866.754    711.68192     102002.7      46.7237      46.7237      46.7237 
  372000    92.314072   -11742.549   -10830.358     381.7123     102002.7      46.7237      46.7237      46.7237 
  373000    89.181196   -11763.998   -10882.764     336.9558     102002.7      46.7237      46.7237      46.7237 
  374000    91.163788   -11732.706   -10831.882    356.20041     102002.7      46.7237      46.7237      46.7237 
  375000    91.055601   -11769.196    -10869.44    403.76554     102002.7      46.7237      46.7237      46.7237 
  376000    94.332447   -11739.829   -10807.693    785.11658     102002.7      46.7237      46.7237      46.7237 
  377000     92.35576   -11772.872   -10860.269    467.30659     102002.7      46.7237      46.7237      46.7237 
  378000    90.827835   -11775.299   -10877.794    588.79764     102002.7      46.7237      46.7237      46.7237 
  379000    89.615415   -11732.708   -10847.184    336.89504     102002.7      46.7237      46.7237      46.7237 
  380000    88.949448   -11766.321   -10887.377    668.37355     102002.7      46.7237      46.7237      46.7237 
  381000    91.196132   -11748.174    -10847.03    891.21627     102002.7      46.7237      46.7237      46.7237 
  382000    91.793871   -11733.148   -10826.097    710.76243     102002.7      46.7237      46.7237      46.7237 
  383000    89.583009   -11744.502   -10859.298    478.17024     102002.7      46.7237      46.7237      46.7237 
  384000    90.093773   -11755.269   -10865.018     581.7504     102002.7      46.7237      46.7237      46.7237 
  385000    91.962085   -11753.317   -10844.604    271.25442     102002.7      46.7237      46.7237      46.7237 
  386000    91.300898   -11745.722   -10843.543    452.77095     102002.7      46.7237      46.7237      46.7237 
  387000    88.208892   -11752.696    -10881.07    590.93338     102002.7      46.7237      46.7237      46.7237 
  388000    91.635242    -11738.26   -10832.777    627.07174     102002.7      46.7237      46.7237      46.7237 
  389000     90.28345   -11759.861   -10867.736    302.28606     102002.7      46.7237      46.7237      46.7237 
  390000    90.079717   -11730.911   -10840.799    533.68587     102002.7      46.7237      46.7237      46.7237 
  391000     90.97057   -11730.589   -10831.673    620.75806     102002.7      46.7237      46.7237      46.7237 
  392000    89.797791   -11740.284   -10852.957    459.18684     102002.7      46.7237      46.7237      46.7237 
  393000    90.007348   -11771.427   -10882.029    473.66981     102002.7      46.7237      46.7237      46.7237 
  394000    91.705941    -11763.58   -10857.398    837.42232     102002.7      46.7237      46.7237      46.7237 
  395000    91.650449   -11710.365   -10804.732    465.07953     102002.7      46.7237      46.7237      46.7237 
  396000    91.887726   -11754.899   -10846.921    474.40224     102002.7      46.7237      46.7237      46.7237 
  397000    89.516916   -11746.404   -10861.853    527.34266     102002.7      46.7237      46.7237      46.7237 
  398000    89.450706    -11736.33   -10852.433    634.41948     102002.7      46.7237      46.7237      46.7237 
  399000    92.274395   -11747.825   -10836.026    371.55202     102002.7      46.7237      46.7237      46.7237 
  400000    91.120818   -11735.429   -10835.029    571.91032     102002.7      46.7237      46.7237      46.7237 
  401000    91.307416   -11746.124    -10843.88    867.21977     102002.7      46.7237      46.7237      46.7237 
  402000    90.063987   -11753.391   -10863.434    617.31074     102002.7      46.7237      46.7237      46.7237 
  403000    92.255175   -11748.651   -10837.042    477.80232     102002.7      46.7237      46.7237      46.7237 
  404000    92.289897   -11746.147   -10834.195     520.4912     102002.7      46.7237      46.7237      46.7237 
  405000    88.865044   -11750.916   -10872.807    410.42833     102002.7      46.7237      46.7237      46.7237 
  406000    90.529249   -11748.245   -10853.691    669.38918     102002.7      46.7237      46.7237      46.7237 
  407000    90.070674   -11742.039   -10852.016    477.71818     102002.7      46.7237      46.7237      46.7237 
  408000    91.282149   -11739.148   -10837.154    624.06814     102002.7      46.7237      46.7237      46.7237 
  409000    90.907983   -11732.355   -10834.058    302.65984     102002.7      46.7237      46.7237      46.7237 
  410000    91.225116   -11766.955   -10865.524     683.3472     102002.7      46.7237      46.7237      46.7237 
  411000     91.48554   -11755.294    -10851.29    444.01504     102002.7      46.7237      46.7237      46.7237 
  412000    92.988189   -11764.019   -10845.167    342.16241     102002.7      46.7237      46.7237      46.7237 
  413000    91.119311   -11755.069   -10854.684    554.04954     102002.7      46.7237      46.7237      46.7237 
  414000    91.549301   -11756.396   -10851.762    352.28368     102002.7      46.7237      46.7237      46.7237 
  415000    92.907942   -11744.908   -10826.849    801.43599     102002.7      46.7237      46.7237      46.7237 
  416000    89.356412    -11776.76   -10893.795    484.43635     102002.7      46.7237      46.7237      46.7237 
  417000    89.892025   -11754.757   -10866.499    320.14088     102002.7      46.7237      46.7237      46.7237 
  418000    91.698497   -11759.659   -10853.551    664.26453     102002.7      46.7237      46.7237      46.7237 
  419000    92.123004   -11732.134   -10821.831    592.70246     102002.7      46.7237      46.7237      46.7237 
  420000     91.18894     -11757.3   -10856.227    196.23117     102002.7      46.7237      46.7237      46.7237 
  421000    91.592778   -11751.306   -10846.242    392.16459     102002.7      46.7237      46.7237      46.7237 
  422000     92.09075    -11761.03   -10851.046    492.23164     102002.7      46.7237      46.7237      46.7237 
  423000    92.501749   -11758.211   -10844.166      642.862     102002.7      46.7237      46.7237      46.7237 
  424000    89.324165   -11752.654   -10870.008    292.36468     102002.7      46.7237      46.7237      46.7237 
  425000    90.756132   -11754.296     -10857.5    468.64108     102002.7      46.7237      46.7237      46.7237 
  426000    91.085779   -11746.733   -10846.679    549.62387     102002.7      46.7237      46.7237      46.7237 
  427000    88.972591   -11753.872     -10874.7     688.6711     102002.7      46.7237      46.7237      46.7237 
  428000    90.046353   -11766.448   -10876.666    762.15488     102002.7      46.7237      46.7237      46.7237 
  429000    91.805317   -11744.812   -10837.648    776.78227     102002.7      46.7237      46.7237      46.7237 
  430000    92.876882   -11767.645   -10849.893    610.03614     102002.7      46.7237      46.7237      46.7237 
  431000    91.905863   -11762.305   -10854.148    758.36808     102002.7      46.7237      46.7237      46.7237 
  432000    92.764692   -11746.089   -10829.446    528.23521     102002.7      46.7237      46.7237      46.7237 
  433000    89.418912   -11751.309   -10867.726    477.55179     102002.7      46.7237      46.7237      46.7237 
  434000    91.815093   -11744.647   -10837.386     711.2597     102002.7      46.7237      46.7237      46.7237 
  435000    89.935854   -11734.299   -10845.608    438.45771     102002.7      46.7237      46.7237      46.7237 
  436000    93.275604   -11769.786   -10848.094    456.97352     102002.7      46.7237      46.7237      46.7237 
  437000    92.519322   -11769.607   -10855.388    594.39724     102002.7      46.7237      46.7237      46.7237 
  438000    91.301931   -11770.055   -10867.865    506.06645     102002.7      46.7237      46.7237      46.7237 
  439000    90.899321    -11753.89   -10855.679    710.65722     102002.7      46.7237      46.7237      46.7237 
  440000    92.540354   -11753.653   -10839.226    488.76983     102002.7      46.7237      46.7237      46.7237 
  441000    89.918119   -11775.416   -10886.901    447.75518     102002.7      46.7237      46.7237      46.7237 
  442000    89.969312   -11755.786   -10866.765    458.88079     102002.7      46.7237      46.7237      46.7237 
  443000    90.454798   -11743.229    -10849.41     468.6386     102002.7      46.7237      46.7237      46.7237 
  444000    87.906947   -11736.515   -10867.873    582.38383     102002.7      46.7237      46.7237      46.7237 
  445000    91.518116   -11758.815   -10854.489    456.04305     102002.7      46.7237      46.7237      46.7237 
  446000    94.045452   -11751.577   -10822.277    386.96845     102002.7      46.7237      46.7237      46.7237 
  447000    91.029449   -11758.802   -10859.304    654.25038     102002.7      46.7237      46.7237      46.7237 
  448000    94.973883   -11740.576   -10802.102    602.90891     102002.7      46.7237      46.7237      46.7237 
  449000    90.621253   -11760.447   -10864.983    243.81815     102002.7      46.7237      46.7237      46.7237 
  450000    90.841605   -11750.672   -10853.032    512.70055     102002.7      46.7237      46.7237      46.7237 
  451000     88.80544   -11770.753   -10893.232    495.30686     102002.7      46.7237      46.7237      46.7237 
  452000     90.36976   -11735.665   -10842.687    728.62197     102002.7      46.7237      46.7237      46.7237 
  453000    90.660688   -11732.537   -10836.684    534.53424     102002.7      46.7237      46.7237      46.7237 
  454000    90.046288   -11752.044   -10862.262    576.70426     102002.7      46.7237      46.7237      46.7237 
  455000    89.831856   -11770.193    -10882.53    630.84232     102002.7      46.7237      46.7237      46.7237 
  456000    90.436608   -11749.745   -10856.106    641.05376     102002.7      46.7237      46.7237      46.7237 
  457000    91.502433   -11768.321    -10864.15    622.80828     102002.7      46.7237      46.7237      46.7237 
  458000    88.635087   -11763.927   -10888.089    429.68034     102002.7      46.7237      46.7237      46.7237 
  459000    90.767952   -11744.943    -10848.03    598.25511     102002.7      46.7237      46.7237      46.7237 
  460000     92.40911   -11747.414   -10834.284     721.0311     102002.7      46.7237      46.7237      46.7237 
  461000    91.646111    -11766.63   -10861.039    410.17505     102002.7      46.7237      46.7237      46.7237 
  462000    90.156262    -11748.91   -10858.041    937.82951     102002.7      46.7237      46.7237      46.7237 
  463000    89.758849   -11782.585   -10895.643    294.54397     102002.7      46.7237      46.7237      46.7237 
  464000    92.429191   -11743.605   -10830.276     497.9423     102002.7      46.7237      46.7237      46.7237 
  465000    90.994439   -11754.571    -10855.42    577.23968     102002.7      46.7237      46.7237      46.7237 
  466000    90.081553   -11748.363   -10858.232    579.36152     102002.7      46.7237      46.7237      46.7237 
  467000    90.179465   -11750.948    -10859.85    555.12392     102002.7      46.7237      46.7237      46.7237 
  468000     90.91315   -11744.718    -10846.37    688.79048     102002.7      46.7237      46.7237      46.7237 
  469000    89.512224   -11754.248   -10869.743    625.26779     102002.7      46.7237      46.7237      46.7237 
  470000    94.384841   -11749.821   -10817.168    883.01985     102002.7      46.7237      46.7237      46.7237 
  471000    93.165724   -11749.394   -10828.788    710.48243     102002.7      46.7237      46.7237      46.7237 
  472000    91.501095   -11758.584   -10854.426    531.71267     102002.7      46.7237      46.7237      46.7237 
  473000    90.273079    -11738.61   -10846.587    797.97166     102002.7      46.7237      46.7237      46.7237 
  474000    91.624284   -11751.879   -10846.504     680.9792     102002.7      46.7237      46.7237      46.7237 
  475000    89.417385     -11763.4   -10879.832    449.50902     102002.7      46.7237      46.7237      46.7237 
  476000    90.049585   -11737.334    -10847.52    377.05892     102002.7      46.7237      46.7237      46.7237 
  477000    88.838552   -11781.551   -10903.703    609.78491     102002.7      46.7237      46.7237      46.7237 
  478000    90.917585   -11745.487   -10847.095    614.16997     102002.7      46.7237      46.7237      46.7237 
  479000    89.340439   -11759.864   -10877.057    763.66234     102002.7      46.7237      46.7237      46.7237 
  480000    89.629945   -11761.165   -10875.497    750.23757     102002.7      46.7237      46.7237      46.7237 
  481000    89.672863   -11764.005   -10877.912    601.09934     102002.7      46.7237      46.7237      46.7237 
  482000    90.687844   -11761.999   -10865.877    457.92663     102002.7      46.7237      46.7237      46.7237 
  483000    89.862125   -11757.778   -10869.816    516.12696     102002.7      46.7237      46.7237      46.7237 
  484000    89.595023   -11756.076   -10870.753    685.26564     102002.7      46.7237      46.7237      46.7237 
  485000    90.705973   -11754.034   -10857.734    533.24447     102002.7      46.7237      46.7237      46.7237 
  486000     91.44887   -11739.037   -10835.395    653.69483     102002.7      46.7237      46.7237      46.7237 
  487000    89.543428   -11754.042   -10869.229    651.45172     102002.7      46.7237      46.7237      46.7237 
  488000    89.831042   -11770.477   -10882.822    389.54853     102002.7      46.7237      46.7237      46.7237 
  489000    91.374771   -11737.866   -10834.957    667.81857     102002.7      46.7237      46.7237      46.7237 
  490000    89.779722   -11748.523   -10861.375    869.05014     102002.7      46.7237      46.7237      46.7237 
  491000    89.900101    -11751.68   -10863.342    622.68683     102002.7      46.7237      46.7237      46.7237 
  492000    88.747454   -11751.779   -10874.831     687.1878     102002.7      46.7237      46.7237      46.7237 
  493000    90.774439   -11787.867    -10890.89    592.69026     102002.7      46.7237      46.7237      46.7237 
  494000    89.966813   -11750.364   -10861.368    543.16572     102002.7      46.7237      46.7237      46.7237 
  495000    89.183436   -11753.865   -10872.609    892.63511     102002.7      46.7237      46.7237      46.7237 
  496000    89.218957   -11770.494   -10888.887    122.53715     102002.7      46.7237      46.7237      46.7237 
  497000    90.817442   -11765.883   -10868.481    400.63948     102002.7      46.7237      46.7237      46.7237 
  498000    89.948365   -11777.975   -10889.161    523.45941     102002.7      46.7237      46.7237      46.7237 
  499000    91.824044   -11759.483   -10852.135    425.74045     102002.7      46.7237      46.7237      46.7237 
  500000    92.903435   -11746.193   -10828.179    428.25879     102002.7      46.7237      46.7237      46.7237 
  500500    93.650645    -11767.53   -10842.132    726.38238     102002.7      46.7237      46.7237      46.7237 
Loop time of 1942.6 on 16 procs for 500000 steps with 3316 atoms

Performance: 22.238 ns/day, 1.079 hours/ns, 257.387 timesteps/s
99.8% CPU use with 16 MPI tasks x no OpenMP threads

MPI task timing breakdown:
Section |  min time  |  avg time  |  max time  |%varavg| %total
---------------------------------------------------------------
Pair    | 819.93     | 1213       | 1546.6     | 536.3 | 62.44
Bond    | 117.15     | 174.74     | 205.93     | 190.8 |  9.00
Neigh   | 14.819     | 14.887     | 14.997     |   1.7 |  0.77
Comm    | 163.32     | 522.47     | 971.03     | 895.0 | 26.90
Output  | 0.021854   | 0.022409   | 0.025438   |   0.5 |  0.00
Modify  | 8.9267     | 10.519     | 12.707     |  33.9 |  0.54
Other   |            | 6.922      |            |       |  0.36

Nlocal:    207.25 ave 242 max 182 min
Histogram: 3 1 1 1 3 4 1 1 0 1
Nghost:    4176.12 ave 4213 max 4139 min
Histogram: 1 0 3 2 3 2 1 2 0 2
Neighs:    11457.9 ave 16702 max 6754 min
Histogram: 1 1 1 6 1 2 1 0 1 2

Total # of neighbors = 183327
Ave neighs/atom = 55.2856
Ave special neighs/atom = 3.47407
Neighbor list builds = 4078
Dangerous builds = 0
Neighbor list info ...
  update every 1 steps, delay 10 steps, check yes
  max neighbors/atom: 2000, page size: 100000
  master list distance cutoff = 16
  ghost atom cutoff = 16
  binsize = 8, bins = 6 6 6
  3 neighbor lists, perpetual/occasional/extra = 3 0 0
  (1) pair buck6d/coul/gauss/dsf, perpetual, skip from (3)
      attributes: half, newton on
      pair build: skip
      stencil: none
      bin: none
  (2) pair lj/cut, perpetual, skip from (3)
      attributes: half, newton on
      pair build: skip
      stencil: none
      bin: none
  (3) neighbor class addition, perpetual
      attributes: half, newton on
      pair build: half/bin/newton
      stencil: half/bin/3d/newton
      bin: standard
Setting up Verlet run ...
  Unit style    : real
  Current step  : 500500
  Time step     : 1
WARNING: Inconsistent image flags (../domain.cpp:786)
Per MPI rank memory allocation (min/avg/max) = 22.67 | 23.18 | 23.45 Mbytes
Step Time TotEng KinEng PotEng E_mol E_pair Temp Pxx Pyy Pzz Pxy Pxz Pyz Cella Cellb Cellc CellAlpha CellBeta CellGamma Volume Press 
  500500       500000   -10842.132    925.39811    -11767.53    4130.6357   -15898.166    93.650645    762.90169    663.37486     752.8706   -126.96711   -8.2519967    125.77653      46.7237      46.7237      46.7237           90           90           90     102002.7    726.38238 
  501000       500500    -10848.91    905.90267   -11754.813    4143.7298   -15898.543    91.677699    217.63432    511.21122    325.66102   -101.75971   -43.436376    163.00117      46.7237      46.7237      46.7237           90           90           90     102002.7    351.50218 
  502000       501500   -10847.438    905.37331   -11752.811    4154.9416   -15907.753    91.624127    534.08972    112.81257    676.36081   -11.566926   -74.899071   -80.420045      46.7237      46.7237      46.7237           90           90           90     102002.7     441.0877 
  503000       502500   -10845.734    908.79389   -11754.527    4138.5098   -15893.037    91.970292    288.70462    403.37375    442.74643   -23.243197   -219.07464   -130.24273      46.7237      46.7237      46.7237           90           90           90     102002.7    378.27493 
  504000       503500   -10857.186    892.79597   -11749.982    4150.1771   -15900.159    90.351296     142.3889    443.56223    702.26863     3.075798   -57.976217   -2.3506789      46.7237      46.7237      46.7237           90           90           90     102002.7    429.40659 
  505000       504500   -10864.669    903.06078    -11767.73    4146.6914   -15914.421    91.390099    212.78049     593.5259    404.17617    245.37964    20.293589   -143.97619      46.7237      46.7237      46.7237           90           90           90     102002.7    403.49419 
  506000       505500   -10869.399    891.93697   -11761.336     4129.715   -15891.051    90.264365    687.83038    372.40011    1075.8844   -98.962498    208.03498    174.35263      46.7237      46.7237      46.7237           90           90           90     102002.7    712.03828 
  507000       506500   -10846.728    896.63985   -11743.368    4136.4885   -15879.856    90.740298    783.41661    434.25273    1043.2891   -3.3977527   -266.90449   -7.3326135      46.7237      46.7237      46.7237           90           90           90     102002.7    753.65281 
  508000       507500    -10870.78    901.18745   -11771.967    4131.0259   -15902.993    91.200517    401.83024    95.181296    619.89957    143.70773    -42.41999   -45.828515      46.7237      46.7237      46.7237           90           90           90     102002.7     372.3037 
  509000       508500   -10898.156    879.33309    -11777.49    4121.8172   -15899.307    88.988847    530.98388     659.1118    364.10513    44.311678    47.675449    200.12102      46.7237      46.7237      46.7237           90           90           90     102002.7    518.06694 
  510000       509500   -10856.459    903.74487   -11760.204    4133.4434   -15893.648    91.459329    232.42109    630.18777    731.73412    22.072852   -26.251608   -75.488307      46.7237      46.7237      46.7237           90           90           90     102002.7    531.44766 
  511000       510500    -10841.66    913.41528   -11755.076    4161.8169   -15916.893    92.437978    713.38449    164.94942    485.09297   -113.48689    105.80394   -6.5957525      46.7237      46.7237      46.7237           90           90           90     102002.7    454.47563 
  512000       511500   -10842.832    910.50421   -11753.337    4143.0935    -15896.43    92.143376    363.52774    265.21592    354.86126    73.685871     89.57316   -98.210247      46.7237      46.7237      46.7237           90           90           90     102002.7    327.86831 
  513000       512500   -10875.073    882.70934   -11757.782    4137.0398   -15894.822    89.330525    292.77933    982.52623    801.90248    120.91772   -171.46721   -141.67489      46.7237      46.7237      46.7237           90           90           90     102002.7    692.40268 
  514000       513500   -10862.436    901.64783   -11764.084    4133.3187   -15897.402    91.247108    139.94875    387.90168    569.15721   -319.33617    94.952644    11.493661      46.7237      46.7237      46.7237           90           90           90     102002.7    365.66921 
  515000       514500   -10842.675    911.85126   -11754.526    4153.2045   -15907.731    92.279698    635.38885    226.29643    302.66503    17.270454   -95.047798   -183.04576      46.7237      46.7237      46.7237           90           90           90     102002.7    388.11677 
  516000       515500   -10878.185    896.32426   -11774.509    4117.4164   -15891.925    90.708361    103.23613    365.19796    631.27786    72.225791     -74.5937      43.6132      46.7237      46.7237      46.7237           90           90           90     102002.7    366.57065 
  517000       516500   -10868.604    914.12044   -11782.724    4125.6861    -15908.41    92.509341    542.50292    825.83964    505.49835   -15.647465   -87.481388    7.8928546      46.7237      46.7237      46.7237           90           90           90     102002.7    624.61364 
  518000       517500   -10840.339    903.69024    -11744.03    4144.6044   -15888.634      91.4538    525.32109    908.86821    967.61697    -9.388855    20.768931   -10.419295      46.7237      46.7237      46.7237           90           90           90     102002.7    800.60209 
  519000       518500   -10864.217    897.99682   -11762.214    4135.8632   -15898.077    90.877624    155.45342     816.8452    586.27155   -61.047548    8.6416707   -59.566442      46.7237      46.7237      46.7237           90           90           90     102002.7    519.52339 
  520000       519500   -10860.133    917.83532   -11777.969    4131.4027   -15909.371    92.885288     445.0636    286.80275    548.87269   -11.111596   -157.45927    131.69681      46.7237      46.7237      46.7237           90           90           90     102002.7    426.91302 
  521000       520500   -10871.971    869.55746   -11741.528    4149.2816    -15890.81    87.999549    631.08132     296.7229     621.1756    86.579532   -184.12232   -42.961513      46.7237      46.7237      46.7237           90           90           90     102002.7     516.3266 
  522000       521500   -10848.675    915.83539   -11764.511    4138.6247   -15903.135    92.682894    504.52826    163.69838    746.77443   -113.80756    256.48197    53.358777      46.7237      46.7237      46.7237           90           90           90     102002.7    471.66702 
  523000       522500   -10857.057    908.47336   -11765.531    4130.9811   -15896.512    91.937854    654.03117     621.9013    1080.1012     148.8483     162.5775    116.48091      46.7237      46.7237      46.7237           90           90           90     102002.7    785.34457 
  524000       523500   -10865.279    903.19753   -11768.477    4134.9777   -15903.454    91.403938    528.38605    411.86297    401.54278   -219.45365   -117.85668    114.56475      46.7237      46.7237      46.7237           90           90           90     102002.7    447.26393 
  525000       524500   -10863.265    899.58459   -11762.849    4137.7434   -15900.593    91.038307    221.90393     608.5689    758.76889   -33.001152      131.653   -173.76028      46.7237      46.7237      46.7237           90           90           90     102002.7    529.74724 
  526000       525500   -10838.192    894.91328   -11733.105    4146.3408   -15879.446    90.565568    640.26107    449.70706    796.24183   -82.585898     -114.203    7.9616503      46.7237      46.7237      46.7237           90           90           90     102002.7    628.73665 
  527000       526500    -10872.42    894.32092   -11766.741    4123.9858   -15890.726    90.505621    345.20474    618.38882    778.58201    -96.31461    132.69687   -157.35724      46.7237      46.7237      46.7237           90           90           90     102002.7    580.72519 
  528000       527500   -10879.846    898.37121   -11778.217    4141.7811   -15919.998    90.915512    1139.1266    379.64752    496.83775    38.419899    144.42209    65.988473      46.7237      46.7237      46.7237           90           90           90     102002.7    671.87062 
  529000       528500   -10843.249    908.01902   -11751.268     4136.672    -15887.94    91.891875    535.98149    813.47801    689.64465   -67.330606    -36.98895   -50.802494      46.7237      46.7237      46.7237           90           90           90     102002.7    679.70138 
  530000       529500   -10864.089    885.09874   -11749.188    4135.1089   -15884.297    89.572333    993.03344     727.5064    697.76267   -310.23616       118.59    29.047947      46.7237      46.7237      46.7237           90           90           90     102002.7    806.10084 
  531000       530500   -10884.189    884.13326   -11768.322    4158.1707   -15926.493    89.474627    274.35803    462.13669    166.01628    263.76441    32.522774       126.23      46.7237      46.7237      46.7237           90           90           90     102002.7      300.837 
  532000       531500   -10844.233    902.61387   -11746.847    4154.6508   -15901.497    91.344872     476.6632   -52.864136   -110.28992    35.234688   -32.785725   -172.23998      46.7237      46.7237      46.7237           90           90           90     102002.7    104.50305 
  533000       532500   -10830.684    921.86017   -11752.545      4142.48   -15895.025    93.292604     625.7746    469.92659    859.70479    202.00667   -92.739914   -15.712658      46.7237      46.7237      46.7237           90           90           90     102002.7    651.80199 
  534000       533500   -10833.356    914.93469    -11748.29    4146.9582   -15895.248    92.591743     577.0339    1060.4927    795.26958   -147.01289    13.912958   -22.088358      46.7237      46.7237      46.7237           90           90           90     102002.7    810.93206 
  535000       534500   -10864.652    901.61193   -11766.264    4147.4053    -15913.67    91.243475    364.71633    475.18778    310.74569   -69.139012    108.52518   -36.140024      46.7237      46.7237      46.7237           90           90           90     102002.7    383.54994 
  536000       535500   -10851.735    897.43455    -11749.17    4150.4924   -15899.662    90.820723    744.41562    1138.9805    725.49912    140.29109    285.40647   -206.19616      46.7237      46.7237      46.7237           90           90           90     102002.7    869.63176 
  537000       536500   -10848.132    905.10932   -11753.241     4145.705   -15898.946    91.597412    619.95836    1107.0925    604.26127    61.816416   -260.37363    2.8324055      46.7237      46.7237      46.7237           90           90           90     102002.7    777.10406 
  538000       537500   -10844.362    919.44414   -11763.806    4129.4185   -15893.225    93.048101    498.32787     522.1752    827.42013    82.033828   -81.392583   -61.639474      46.7237      46.7237      46.7237           90           90           90     102002.7     615.9744 
  539000       538500   -10828.647     913.8386   -11742.486    4153.3468   -15895.833    92.480819    770.49236    514.34808    597.61679    111.22472    29.664272   -182.17739      46.7237      46.7237      46.7237           90           90           90     102002.7    627.48575 
  540000       539500   -10862.737     895.9799   -11758.717    4135.7601   -15894.477    90.673511    598.93573    298.92614    648.88885   -55.708477    212.17144   -70.597594      46.7237      46.7237      46.7237           90           90           90     102002.7    515.58357 
  541000       540500   -10841.533    898.14312   -11739.676    4141.3858   -15881.062     90.89243    725.86805    254.89144    856.90189   -48.767604    138.89341    16.856747      46.7237      46.7237      46.7237           90           90           90     102002.7    612.55379 
  542000       541500    -10876.96    887.81608   -11764.776    4136.2752   -15901.051    89.847329    345.90385    823.36356     836.8929    53.645294    104.67366   -186.82163      46.7237      46.7237      46.7237           90           90           90     102002.7     668.7201 
  543000       542500   -10843.778    918.26684   -11762.045    4124.4141   -15886.459    92.928958    45.849111    373.39995    455.24721     251.3141    226.88214   -309.35385      46.7237      46.7237      46.7237           90           90           90     102002.7    291.49876 
  544000       543500   -10854.092    897.80371   -11751.896    4125.3709   -15877.267    90.858082    560.83231     376.2871    517.78206    89.369077    72.126861   -235.47281      46.7237      46.7237      46.7237           90           90           90     102002.7    484.96716 
  545000       544500    -10857.27    879.92356   -11737.194    4162.8269    -15900.02    89.048603     774.2909    786.36537    727.35034     19.29282    167.34279    193.89929      46.7237      46.7237      46.7237           90           90           90     102002.7    762.66887 
  546000       545500   -10869.508    881.93282   -11751.441    4148.5658   -15900.007    89.251941    304.41888    519.56179    662.45021     127.6922   -5.5678236     457.9243      46.7237      46.7237      46.7237           90           90           90     102002.7    495.47696 
  547000       546500   -10890.057    890.48501   -11780.542     4131.553   -15912.095    90.117426    418.14984    637.06279    371.55097    187.23342   -70.562196    229.97693      46.7237      46.7237      46.7237           90           90           90     102002.7    475.58787 
  548000       547500   -10847.653    909.89902   -11757.552    4147.8918   -15905.444    92.082131    727.03999    833.14494    783.24351    88.382905    192.53987    53.528159      46.7237      46.7237      46.7237           90           90           90     102002.7    781.14281 
  549000       548500   -10865.242    912.76361   -11778.005    4114.9381   -15892.944    92.372028    233.21986    628.47477    290.25925    199.98596   -138.26634    112.65271      46.7237      46.7237      46.7237           90           90           90     102002.7    383.98463 
  550000       549500   -10852.446    899.06688   -11751.513    4135.5407   -15887.053    90.985914    232.86779    613.52647   -15.793124   -62.331831    21.897365   -11.115858      46.7237      46.7237      46.7237           90           90           90     102002.7    276.86705 
  551000       550500   -10838.965     895.8126   -11734.777     4160.033    -15894.81    90.656581    415.53756    923.62494     416.9648    59.530236    100.42661   -124.42157      46.7237      46.7237      46.7237           90           90           90     102002.7    585.37577 
  552000       551500   -10861.821    888.41626   -11750.237    4129.1571   -15879.394    89.908068    449.46543    518.15103    752.74785   -3.3605915    199.86787    25.056416      46.7237      46.7237      46.7237           90           90           90     102002.7    573.45477 
  553000       552500   -10827.674    924.85745   -11752.531    4141.4298   -15893.961     93.59593     909.7295    152.53429    450.53459   -205.67167    200.62769    -192.9094      46.7237      46.7237      46.7237           90           90           90     102002.7    504.26613 
  554000       553500   -10861.654    907.28157   -11768.935    4138.9366   -15907.872    91.817244    440.79248    327.45285    781.57925    43.920929   -120.28032    -52.36382      46.7237      46.7237      46.7237           90           90           90     102002.7     516.6082 
  555000       554500   -10845.507    899.46264    -11744.97    4129.9208   -15874.891    91.025965     406.7988    293.64596    374.39723   -23.851404    175.81449     2.697193      46.7237      46.7237      46.7237           90           90           90     102002.7    358.28066 
[...]
  936000       935500    -10844.56    908.16989   -11752.729    4124.7269   -15877.456    91.907143     222.9142    550.72738    1105.1651   -28.950421   -89.961221   -333.75418      46.7237      46.7237      46.7237           90           90           90     102002.7    626.26888 
  937000       936500   -10865.779    905.12309   -11770.902    4126.0943   -15896.996    91.598805    293.21641    516.41133    715.25538   -192.35017   -89.132041   -13.746084      46.7237      46.7237      46.7237           90           90           90     102002.7    508.29438 
  938000       937500   -10822.728    928.38684   -11751.115    4130.2632   -15881.378    93.953106    487.91308    833.69146    740.52586   -117.19634    29.870111   -23.576894      46.7237      46.7237      46.7237           90           90           90     102002.7     687.3768 
  939000       938500   -10841.731    908.24494   -11749.976    4131.2024   -15881.179    91.914738    515.71158    349.84199    232.23769    235.47407   -168.90613   -96.484329      46.7237      46.7237      46.7237           90           90           90     102002.7    365.93042 
  940000       939500   -10876.707    892.45357   -11769.161    4135.7968   -15904.958    90.316645    110.94049    185.09124    364.55264    159.70993    3.9937794    254.95289      46.7237      46.7237      46.7237           90           90           90     102002.7    220.19479 
  941000       940500   -10813.429    936.59788   -11750.027    4127.7757   -15877.803    94.784066    431.01006    524.96752    1242.6459   -89.637181   -70.777283     -9.24953      46.7237      46.7237      46.7237           90           90           90     102002.7    732.87449 
  942000       941500   -10844.908    909.91538   -11754.823    4136.2283   -15891.052    92.083787    475.93389    635.33404    891.88441   -172.42108   -53.733246   -101.25112      46.7237      46.7237      46.7237           90           90           90     102002.7    667.71745 
  943000       942500   -10858.068    912.99294   -11771.061    4121.7742   -15892.835    92.395237    873.06909    289.29895    1102.0737    56.332033    95.740542   -138.70433      46.7237      46.7237      46.7237           90           90           90     102002.7    754.81393 
  944000       943500   -10865.659    893.30264   -11758.962    4115.4463   -15874.408    90.402572    337.85877    900.63186    829.88238   -166.16702   -53.800608   -157.40067      46.7237      46.7237      46.7237           90           90           90     102002.7    689.45767 
  945000       944500   -10862.351    896.14494   -11758.496    4131.2525   -15889.749    90.690213    345.40536    447.75646    655.24245    5.1459953    139.50494    95.885364      46.7237      46.7237      46.7237           90           90           90     102002.7    482.80142 
  946000       945500   -10864.666    879.29233   -11743.959    4143.3773   -15887.336    88.984722    506.75336    870.80409    571.81408    7.5003606    255.71505    89.086314      46.7237      46.7237      46.7237           90           90           90     102002.7    649.79051 
  947000       946500   -10824.293     934.0997   -11758.393    4119.0538   -15877.447    94.531249    547.48261     668.7581    880.48847   -163.45826   -32.922872    63.046493      46.7237      46.7237      46.7237           90           90           90     102002.7    698.90973 
  948000       947500   -10859.164    894.73237   -11753.896    4132.2703   -15886.166    90.547261    494.06039    489.52746    673.59172   -73.375564    2.0830047   -56.720123      46.7237      46.7237      46.7237           90           90           90     102002.7    552.39319 
  949000       948500   -10863.289    894.21474   -11757.504    4132.2255   -15889.729    90.494876    934.65373    411.24587    988.55664    69.181447   -132.98137    43.350056      46.7237      46.7237      46.7237           90           90           90     102002.7    778.15208 
  950000       949500     -10869.9    894.86009    -11764.76    4128.2161   -15892.977    90.560185    795.27555    343.81392    623.05624    -95.82682    -40.74234   -167.12893      46.7237      46.7237      46.7237           90           90           90     102002.7     587.3819 
  951000       950500   -10857.045    913.72276   -11770.768     4127.731   -15898.499    92.469096    476.60357    564.97936      420.735    -142.8675    152.35567    13.798764      46.7237      46.7237      46.7237           90           90           90     102002.7    487.43931 
  952000       951500   -10856.073    900.58089   -11756.654    4119.7151   -15876.369    91.139133    944.71665    547.57353    1160.7291    -217.8149    8.7225478   -183.19664      46.7237      46.7237      46.7237           90           90           90     102002.7    884.33975 
  953000       952500    -10871.28    886.39675   -11757.677    4130.8659   -15888.543    89.703692     820.9764    625.77174    742.77213    121.05607    50.264784    110.38955      46.7237      46.7237      46.7237           90           90           90     102002.7    729.84009 
  954000       953500    -10863.24    883.46082   -11746.701    4136.6497   -15883.351    89.406575    372.01825    344.22946    166.07335   -205.12105    129.85074   -81.568155      46.7237      46.7237      46.7237           90           90           90     102002.7    294.10702 
  955000       954500   -10848.642    892.33834    -11740.98     4145.885   -15886.865    90.304984    567.32512    642.58184    1297.6241   -22.922287    73.613476   -31.061716      46.7237      46.7237      46.7237           90           90           90     102002.7     835.8437 
  956000       955500   -10879.137    878.09973   -11757.237    4127.5212   -15884.758    88.864031    735.69881    1070.2532    645.39403   -26.439811    206.90397   -4.3400976      46.7237      46.7237      46.7237           90           90           90     102002.7    817.11534 
  957000       956500   -10886.931    891.64579   -11778.576    4123.2968   -15901.873    90.234897     13.38131    251.96844    920.33317    47.665784   -132.19264    83.121349      46.7237      46.7237      46.7237           90           90           90     102002.7    395.22764 
  958000       957500   -10855.775    896.39972   -11752.175    4113.9516   -15866.126    90.715997    414.60782    1111.3652    804.07275  -0.70196692     148.9633   -284.60122      46.7237      46.7237      46.7237           90           90           90     102002.7    776.68191 
  959000       958500   -10882.474    882.86549    -11765.34    4123.9472   -15889.287    89.346328    971.85897     719.9726    873.03332    2.0599096     106.7265    173.79466      46.7237      46.7237      46.7237           90           90           90     102002.7    854.95496 
  960000       959500   -10874.361    898.26348   -11772.625    4120.9507   -15893.576     90.90461    368.26507    533.03237    594.54789   -159.22944    -198.3109    286.68945      46.7237      46.7237      46.7237           90           90           90     102002.7    498.61511 
  961000       960500   -10854.273    900.46047   -11754.734    4135.1532   -15889.887    91.126946    1391.7018    807.40677    1427.2317   -202.04213    339.14052    90.518051      46.7237      46.7237      46.7237           90           90           90     102002.7    1208.7801 
  962000       961500    -10862.23    903.09797   -11765.328    4136.7705   -15902.098    91.393863    541.31563    420.83043     1198.054   -48.679347    89.139989   -250.76731      46.7237      46.7237      46.7237           90           90           90     102002.7    720.06668 
  963000       962500   -10895.444    880.32893   -11775.773    4113.2785   -15889.051    89.089627    878.12481    585.43472    878.89898    118.83924   -96.466685    139.57792      46.7237      46.7237      46.7237           90           90           90     102002.7     780.8195 
  964000       963500   -10847.809    901.04884   -11748.858    4128.6813   -15877.539     91.18649    936.70641    240.91983    1013.4664   -179.43768   -5.4696238   -50.737373      46.7237      46.7237      46.7237           90           90           90     102002.7    730.36421 
  965000       964500   -10852.543    907.23779   -11759.781    4123.6134   -15883.394    91.812814    635.45327    634.46607    882.76358   -9.3941879   -69.262999   -89.367846      46.7237      46.7237      46.7237           90           90           90     102002.7    717.56097 
  966000       965500   -10831.737    907.37857   -11739.115    4123.7576   -15862.873    91.827061    632.29695     658.1579    705.23741   -164.00339   -58.504374   -69.004042      46.7237      46.7237      46.7237           90           90           90     102002.7    665.23075 
  967000       966500   -10890.284    880.36724   -11770.652    4115.0148   -15885.666    89.093504    498.11296    519.17984    941.21273    7.2136557     42.74862    -25.52414      46.7237      46.7237      46.7237           90           90           90     102002.7    652.83518 
  968000       967500   -10855.882    898.00483   -11753.887    4134.4366   -15888.324    90.878435     823.7791    642.47146    424.98636    36.482679    231.74282   -0.9435677      46.7237      46.7237      46.7237           90           90           90     102002.7    630.41231 
  969000       968500   -10861.389    907.57754   -11768.967    4119.4611   -15888.428    91.847197    264.87594    586.02137    423.66172    13.366446    13.329214   -26.793127      46.7237      46.7237      46.7237           90           90           90     102002.7    424.85301 
  970000       969500   -10851.058    888.71276   -11739.771    4128.9191    -15868.69    89.938074   -46.784318    478.89112    513.15866   -39.341702    66.345336    -115.7935      46.7237      46.7237      46.7237           90           90           90     102002.7    315.08849 
  971000       970500   -10852.299    897.05874   -11749.357    4113.5413   -15862.899     90.78269    270.40226    883.12128    424.64968   -47.194772    47.923734   -92.231956      46.7237      46.7237      46.7237           90           90           90     102002.7    526.05774 
  972000       971500   -10850.668    908.96638   -11759.634    4106.0234   -15865.658    91.987748    590.07867   -17.606473    1125.5461    59.048669   -138.90015    53.764441      46.7237      46.7237      46.7237           90           90           90     102002.7    566.00608 
  973000       972500   -10890.804    886.04644    -11776.85    4131.6597    -15908.51    89.668241    157.71556    418.57034    671.66741   -33.990391    379.33297    153.45292      46.7237      46.7237      46.7237           90           90           90     102002.7    415.98444 
  974000       973500   -10849.558    911.17194    -11760.73     4119.773   -15880.503    92.210951    686.63387    372.14126    1052.7308    164.83425    207.15319    15.545283      46.7237      46.7237      46.7237           90           90           90     102002.7     703.8353 
  975000       974500   -10845.304     911.5828   -11756.887    4137.5622   -15894.449    92.252531    702.24777    576.00264    749.22752   -11.078242   -87.820125    82.609378      46.7237      46.7237      46.7237           90           90           90     102002.7    675.82598 
  976000       975500   -10861.182    890.90273   -11752.085    4133.2037   -15885.288    90.159699    743.19581    396.99007    862.97817    31.283917    190.44713    133.35278      46.7237      46.7237      46.7237           90           90           90     102002.7    667.72135 
  977000       976500   -10854.701    893.28359   -11747.985    4149.7431   -15897.728    90.400644    511.39955    768.34283    810.05108    39.365638    52.725587   -165.67824      46.7237      46.7237      46.7237           90           90           90     102002.7    696.59782 
  978000       977500   -10853.822     905.2833   -11759.106    4115.0714   -15874.177    91.615019    341.25332    560.89164    462.02619     181.5389    -22.52026   -158.00073      46.7237      46.7237      46.7237           90           90           90     102002.7    454.72372 
  979000       978500   -10856.008    891.78191    -11747.79    4132.5655   -15880.355    90.248673   -33.226249    814.32127    737.22356   -160.26733    144.55474    93.084818      46.7237      46.7237      46.7237           90           90           90     102002.7    506.10619 
  980000       979500   -10866.641    908.86984   -11775.511    4115.9652   -15891.476    91.977978    1058.4276    650.77354    581.82443    106.33048    178.41486    9.2585939      46.7237      46.7237      46.7237           90           90           90     102002.7    763.67519 
  981000       980500   -10871.042    891.31703   -11762.359     4108.515   -15870.874    90.201627     326.5841    803.94604    709.23121   -98.241958   -51.800313    27.471241      46.7237      46.7237      46.7237           90           90           90     102002.7    613.25378 
  982000       981500   -10809.759    913.18342   -11722.943    4144.8376    -15867.78    92.414514    549.89932    2.0756304    624.25082    54.304902   -78.032397   -93.246084      46.7237      46.7237      46.7237           90           90           90     102002.7    392.07526 
  983000       982500   -10873.847    896.17773   -11770.025    4115.0584   -15885.083    90.693531    540.92239    495.62257    915.02544    162.20977   -148.91663   -155.31222      46.7237      46.7237      46.7237           90           90           90     102002.7    650.52347 
  984000       983500   -10857.455    896.92673   -11754.382    4125.9095   -15880.291     90.76933    461.48288    1009.5045    810.52576    40.408812   -83.276316     2.734494      46.7237      46.7237      46.7237           90           90           90     102002.7    760.50437 
  985000       984500   -10836.888    906.74288   -11743.631    4131.5881   -15875.219    91.762729    736.22631    495.69145    990.40152   -33.437503   -110.55192    156.41783      46.7237      46.7237      46.7237           90           90           90     102002.7    740.77309 
  986000       985500   -10862.088    896.74021   -11758.828    4141.9942   -15900.822    90.750455    168.97505     706.1885    103.58188    68.119727   -23.161967    91.679305      46.7237      46.7237      46.7237           90           90           90     102002.7    326.24848 
  987000       986500   -10828.511    915.10012   -11743.611    4151.1481   -15894.759    92.608484    558.74029    115.75303    564.68677     68.46884  -0.23490883   -109.18807      46.7237      46.7237      46.7237           90           90           90     102002.7    413.06003 
  988000       987500   -10838.252    891.55818   -11729.811    4152.2923   -15882.103    90.226031    464.24972    849.49489    265.41696    34.093983   -54.705663   -17.810064      46.7237      46.7237      46.7237           90           90           90     102002.7    526.38719 
  989000       988500   -10861.328    902.21537   -11763.544    4140.2505   -15903.794    91.304543    591.54522    760.47436    736.84504    192.56659    7.3063877    30.450326      46.7237      46.7237      46.7237           90           90           90     102002.7    696.28821 
  990000       989500   -10869.113    894.18856   -11763.301     4124.039    -15887.34    90.492227    976.93347    123.95338    507.30649    28.641404    73.950268   0.79203727      46.7237      46.7237      46.7237           90           90           90     102002.7    536.06445 
  991000       990500   -10860.996    889.78719   -11750.783    4131.3402   -15882.123    90.046806    790.97786    350.81959    881.91085    182.84345     145.6019    89.158564      46.7237      46.7237      46.7237           90           90           90     102002.7    674.56943 
  992000       991500   -10870.038    892.70693   -11762.745    4132.9922   -15895.737    90.342285    854.18978      438.965    505.88904    58.883116   -139.75679    175.35505      46.7237      46.7237      46.7237           90           90           90     102002.7    599.68128 
  993000       992500   -10861.233     899.9112   -11761.144    4131.3717   -15892.516     91.07136    261.34382    437.51971    809.52179   -2.7391196    4.6807595   -15.590219      46.7237      46.7237      46.7237           90           90           90     102002.7    502.79511 
  994000       993500   -10887.583    881.82741    -11769.41    4112.8354   -15882.245    89.241273    322.09112     595.3726    833.40058   -71.872069    119.40226   -140.07463      46.7237      46.7237      46.7237           90           90           90     102002.7    583.62143 
  995000       994500   -10849.538     894.6436   -11744.182    4130.7894   -15874.971    90.538277    502.78835    823.05242    742.45811   -53.064945   -137.06227    150.67427      46.7237      46.7237      46.7237           90           90           90     102002.7    689.43296 
  996000       995500   -10869.618    907.77373   -11777.392    4101.5369   -15878.929    91.867051    652.93295    315.99419    715.98946    295.18361    35.862903   -20.794594      46.7237      46.7237      46.7237           90           90           90     102002.7    561.63887 
  997000       996500   -10893.724    881.62029   -11775.345    4099.5331   -15874.878    89.220313    363.21992    731.84327    410.37693    15.782571    135.99025   -80.151696      46.7237      46.7237      46.7237           90           90           90     102002.7    501.81337 
  998000       997500   -10860.681    896.60073   -11757.282    4103.4844   -15860.766    90.736339    690.37183    431.64442    837.38816   -131.53115    168.88683    122.12878      46.7237      46.7237      46.7237           90           90           90     102002.7     653.1348 
  999000       998500     -10859.4    900.27324   -11759.673    4119.0128   -15878.686    91.107999     495.5418    511.65238    430.72034   -17.812534    48.365317    95.787125      46.7237      46.7237      46.7237           90           90           90     102002.7    479.30484 
 1000000       999500    -10866.67    899.24672   -11765.916    4115.9494   -15881.866    91.004115     581.4248    449.90072    783.80972     47.55119   -114.72293   -200.74687      46.7237      46.7237      46.7237           90           90           90     102002.7    605.04508 
 1000500      1000000   -10876.868    896.05209    -11772.92    4110.3804   -15883.301    90.680816    296.62417    506.00801    759.10426    118.38039    19.536444   -6.4902138      46.7237      46.7237      46.7237           90           90           90     102002.7    520.57882 
Loop time of 2381.11 on 16 procs for 500000 steps with 3316 atoms

Performance: 18.143 ns/day, 1.323 hours/ns, 209.986 timesteps/s
99.8% CPU use with 16 MPI tasks x no OpenMP threads

MPI task timing breakdown:
Section |  min time  |  avg time  |  max time  |%varavg| %total
---------------------------------------------------------------
Pair    | 1034.6     | 1539.8     | 1957.8     | 578.1 | 64.67
Bond    | 115.26     | 184.08     | 224.51     | 205.9 |  7.73
Neigh   | 14.998     | 15.068     | 15.176     |   1.7 |  0.63
Comm    | 159.96     | 609.89     | 1182.4     | 997.5 | 25.61
Output  | 0.13152    | 0.13873    | 0.13976    |   0.5 |  0.01
Modify  | 23.897     | 25.205     | 26.74      |  14.7 |  1.06
Other   |            | 6.934      |            |       |  0.29

Nlocal:    207.25 ave 230 max 177 min
Histogram: 3 0 1 0 3 1 0 3 3 2
Nghost:    4167.69 ave 4204 max 4141 min
Histogram: 3 2 0 4 1 1 1 2 1 1
Neighs:    11468.6 ave 16730 max 6287 min
Histogram: 1 1 4 1 1 2 1 2 2 1

Total # of neighbors = 183498
Ave neighs/atom = 55.3372
Ave special neighs/atom = 3.47407
Neighbor list builds = 4090
Dangerous builds = 0
Total wall time: 1:12:08
