LAMMPS (30 Mar 2018)
Reading data file ...
  orthogonal box = (0 0 0) to (46.7237 46.7237 46.7237)
  2 by 2 by 4 MPI processor grid
  reading atoms ...
  2833 atoms
  scanning bonds ...
  5 = max bonds/atom
  scanning angles ...
  10 = max angles/atom
  scanning dihedrals ...
  32 = max dihedrals/atom
  scanning impropers ...
  3 = max impropers/atom
  reading bonds ...
  2064 bonds
  reading angles ...
  3696 angles
  reading dihedrals ...
  6240 dihedrals
  reading impropers ...
  1008 impropers
Finding 1-2 1-3 1-4 neighbors ...
  special bond factors lj:   0          0          0         
  special bond factors coul: 0          0          0         
  5 = max # of 1-2 neighbors
  8 = max # of 1-3 neighbors
  20 = max # of 1-4 neighbors
  19 = max # of special neighbors
Finding 1-2 1-3 1-4 neighbors ...
  special bond factors lj:   0          0          1         
  special bond factors coul: 1          1          1         
  5 = max # of 1-2 neighbors
  8 = max # of 1-3 neighbors
  19 = max # of special neighbors
WARNING: Using 'neigh_modify every 1 delay 0 check yes' setting during minimization (../min.cpp:168)
Neighbor list info ...
  update every 1 steps, delay 0 steps, check yes
  max neighbors/atom: 2000, page size: 100000
  master list distance cutoff = 16
  ghost atom cutoff = 16
  binsize = 8, bins = 6 6 6
  3 neighbor lists, perpetual/occasional/extra = 3 0 0
  (1) pair buck6d/coul/gauss/dsf, perpetual, skip from (3)
      attributes: half, newton on
      pair build: skip
      stencil: none
      bin: none
  (2) pair lj/cut, perpetual, skip from (3)
      attributes: half, newton on
      pair build: skip
      stencil: none
      bin: none
  (3) neighbor class addition, perpetual
      attributes: half, newton on
      pair build: half/bin/newton
      stencil: half/bin/3d/newton
      bin: standard
Setting up cg style minimization ...
  Unit style    : real
  Current step  : 0
WARNING: Inconsistent image flags (../domain.cpp:786)
Per MPI rank memory allocation (min/avg/max) = 22.98 | 23.44 | 23.89 Mbytes
Step Temp E_pair E_mol TotEng Press 
       0            0   -14233.607    6482.8914   -7750.7158    5697.6658 
     500            0   -14704.019    3724.9051   -10979.114   -1401.4445 
Loop time of 4.00531 on 16 procs for 500 steps with 2833 atoms

99.9% CPU use with 16 MPI tasks x no OpenMP threads

Minimization stats:
  Stopping criterion = max force evaluations
  Energy initial, next-to-last, final = 
        -7750.71575418     -10978.8205779     -10979.1141402
  Force two-norm initial, final = 2575.34 26.225
  Force max component initial, final = 152.224 4.91241
  Final line search alpha, max atom move = 0.00326156 0.0160222
  Iterations, force evaluations = 500 1000

MPI task timing breakdown:
Section |  min time  |  avg time  |  max time  |%varavg| %total
---------------------------------------------------------------
Pair    | 1.9499     | 2.5667     | 3.0248     |  18.7 | 64.08
Bond    | 0.29559    | 0.36185    | 0.50035    |   8.8 |  9.03
Neigh   | 0.045513   | 0.045751   | 0.045975   |   0.1 |  1.14
Comm    | 0.49704    | 0.98806    | 1.6487     |  32.1 | 24.67
Output  | 0          | 0          | 0          |   0.0 |  0.00
Modify  | 0          | 0          | 0          |   0.0 |  0.00
Other   |            | 0.04298    |            |       |  1.07

Nlocal:    177.062 ave 214 max 150 min
Histogram: 2 1 1 4 4 1 1 0 0 2
Nghost:    3570.06 ave 3595 max 3528 min
Histogram: 2 0 0 0 1 5 1 2 3 2
Neighs:    11479.6 ave 15966 max 6477 min
Histogram: 1 0 2 2 2 3 3 0 2 1

Total # of neighbors = 183673
Ave neighs/atom = 64.8334
Ave special neighs/atom = 4.06636
Neighbor list builds = 15
Dangerous builds = 0
Neighbor list info ...
  update every 1 steps, delay 10 steps, check yes
  max neighbors/atom: 2000, page size: 100000
  master list distance cutoff = 16
  ghost atom cutoff = 16
  binsize = 8, bins = 6 6 6
  3 neighbor lists, perpetual/occasional/extra = 3 0 0
  (1) pair buck6d/coul/gauss/dsf, perpetual, skip from (3)
      attributes: half, newton on
      pair build: skip
      stencil: none
      bin: none
  (2) pair lj/cut, perpetual, skip from (3)
      attributes: half, newton on
      pair build: skip
      stencil: none
      bin: none
  (3) neighbor class addition, perpetual
      attributes: half, newton on
      pair build: half/bin/newton
      stencil: half/bin/3d/newton
      bin: standard
Setting up Verlet run ...
  Unit style    : real
  Current step  : 500
  Time step     : 1
WARNING: Inconsistent image flags (../domain.cpp:786)
Per MPI rank memory allocation (min/avg/max) = 22.63 | 22.76 | 23.41 Mbytes
Step Temp PotEng TotEng Press Volume Lx Ly Lz 
     500          130   -10979.114   -9881.6991   -909.64052     102002.7      46.7237      46.7237      46.7237 
    1000    112.61627   -10079.793   -9129.1257   -418.05166     102002.7      46.7237      46.7237      46.7237 
    2000    133.99548   -9864.2365    -8733.093   -973.06795     102002.7      46.7237      46.7237      46.7237 
    3000    133.57558    -9834.504   -8706.9051   -664.68645     102002.7      46.7237      46.7237      46.7237 
    4000    129.69726   -9835.9763   -8741.1169    -867.3147     102002.7      46.7237      46.7237      46.7237 
    5000    130.03016   -9821.6273   -8723.9577   -799.69793     102002.7      46.7237      46.7237      46.7237 
    6000    127.90463   -9805.6169   -8725.8902   -1032.1679     102002.7      46.7237      46.7237      46.7237 
    7000       127.98    -9814.173   -8733.8101   -978.85801     102002.7      46.7237      46.7237      46.7237 
    8000    131.09394   -9830.5201   -8723.8704   -860.61873     102002.7      46.7237      46.7237      46.7237 
    9000    124.84269   -9795.9268    -8742.048   -1040.7459     102002.7      46.7237      46.7237      46.7237 
   10000    128.42758   -9821.1968   -8737.0556   -1048.2802     102002.7      46.7237      46.7237      46.7237 
   11000    129.51446   -9806.4224   -8713.1062   -642.89381     102002.7      46.7237      46.7237      46.7237 
   12000    133.47821   -9828.8111   -8702.0342   -692.33138     102002.7      46.7237      46.7237      46.7237 
   13000    128.29204   -9802.3241   -8719.3271   -844.15955     102002.7      46.7237      46.7237      46.7237 
   14000    132.75585   -9776.6519    -8655.973   -780.93644     102002.7      46.7237      46.7237      46.7237 
   15000    129.04546   -9786.1294   -8696.7723   -865.60802     102002.7      46.7237      46.7237      46.7237 
   16000    128.74032   -9772.9446   -8686.1634   -1210.0758     102002.7      46.7237      46.7237      46.7237 
   17000    126.30234   -9790.1064   -8723.9057   -974.54783     102002.7      46.7237      46.7237      46.7237 
   18000    125.25519   -9794.3839   -8737.0229   -852.17751     102002.7      46.7237      46.7237      46.7237 
   19000    127.77008   -9789.1066   -8710.5158   -991.67345     102002.7      46.7237      46.7237      46.7237 
   20000    128.98097   -9793.3975   -8704.5848    -869.6669     102002.7      46.7237      46.7237      46.7237 
   21000    130.26467   -9818.2154   -8718.5661   -1090.3047     102002.7      46.7237      46.7237      46.7237 
   22000    124.95339   -9798.7488   -8743.9355   -1011.5175     102002.7      46.7237      46.7237      46.7237 
   23000    130.57598   -9814.3187   -8712.0414   -788.97664     102002.7      46.7237      46.7237      46.7237 
   24000    132.52641   -9781.7334   -8662.9914   -804.33478     102002.7      46.7237      46.7237      46.7237 
   25000    130.87625   -9810.5431   -8705.7311   -832.77312     102002.7      46.7237      46.7237      46.7237 
   26000    129.48272   -9789.5439   -8696.4956   -603.35803     102002.7      46.7237      46.7237      46.7237 
   27000    127.65463   -9782.7394   -8705.1232   -854.77689     102002.7      46.7237      46.7237      46.7237 
   28000     131.2474   -9824.0642   -8716.1191   -943.51401     102002.7      46.7237      46.7237      46.7237 
   29000    128.88019   -9803.9004   -8715.9384   -1033.2052     102002.7      46.7237      46.7237      46.7237 
   30000    134.19387   -9810.0862    -8677.268   -729.59483     102002.7      46.7237      46.7237      46.7237 
   31000    126.03454   -9803.2719   -8739.3319   -664.27245     102002.7      46.7237      46.7237      46.7237 
   32000    130.64995   -9791.5925   -8688.6908   -792.78929     102002.7      46.7237      46.7237      46.7237 
   33000     129.0996   -9812.9896   -8723.1754   -436.34988     102002.7      46.7237      46.7237      46.7237 
   34000    131.05089   -9807.7978   -8701.5115   -729.62582     102002.7      46.7237      46.7237      46.7237 
   35000    129.23322   -9753.8016   -8662.8594   -812.36051     102002.7      46.7237      46.7237      46.7237 
   36000    128.85373   -9812.3607   -8724.6221   -631.12255     102002.7      46.7237      46.7237      46.7237 
   37000    128.85735   -9785.7526   -8697.9834   -994.89775     102002.7      46.7237      46.7237      46.7237 
   38000    129.42884   -9787.2518   -8694.6583   -643.48824     102002.7      46.7237      46.7237      46.7237 
   39000    130.62222   -9803.8406    -8701.173   -865.54361     102002.7      46.7237      46.7237      46.7237 
   40000    129.98566   -9791.9834   -8694.6894   -1130.2206     102002.7      46.7237      46.7237      46.7237 
   41000    134.80437   -9795.2452   -8657.2733   -783.31459     102002.7      46.7237      46.7237      46.7237 
   42000    127.91192   -9758.6186   -8678.8304   -998.49542     102002.7      46.7237      46.7237      46.7237 
   43000    128.14607   -9776.3831   -8694.6183   -912.36205     102002.7      46.7237      46.7237      46.7237 
   44000     128.7947   -9755.8995   -8668.6591   -943.32045     102002.7      46.7237      46.7237      46.7237 
   45000    131.31122   -9788.6474   -8680.1635   -886.50969     102002.7      46.7237      46.7237      46.7237 
   46000    130.55733   -9804.0154   -8701.8956    -858.8333     102002.7      46.7237      46.7237      46.7237 
   47000    128.79605   -9781.7033   -8694.4516   -898.64998     102002.7      46.7237      46.7237      46.7237 
   48000    130.56461   -9809.5574   -8707.3761   -784.19124     102002.7      46.7237      46.7237      46.7237 
   49000    128.02306   -9805.1912   -8724.4648   -833.43159     102002.7      46.7237      46.7237      46.7237 
   50000    128.77768   -9818.8171   -8731.7205   -799.52783     102002.7      46.7237      46.7237      46.7237 
   51000    129.67134   -9817.9655   -8723.3249   -750.39859     102002.7      46.7237      46.7237      46.7237 
   52000    128.34104   -9774.2196   -8690.8089   -540.92813     102002.7      46.7237      46.7237      46.7237 
   53000    132.17165   -9809.3986   -8693.6513   -655.73477     102002.7      46.7237      46.7237      46.7237 
   54000     126.7192   -9795.5326    -8725.813   -1004.5169     102002.7      46.7237      46.7237      46.7237 
   55000    128.17083   -9807.8135   -8725.8397   -804.18723     102002.7      46.7237      46.7237      46.7237 
   56000    132.20428     -9824.78   -8708.7572   -1188.1382     102002.7      46.7237      46.7237      46.7237 
   57000    132.54403   -9804.9698   -8686.0789   -671.01121     102002.7      46.7237      46.7237      46.7237 
   58000    131.24982   -9825.4041   -8717.4385   -907.26506     102002.7      46.7237      46.7237      46.7237 
   59000    127.84729   -9821.5926     -8742.35   -903.68134     102002.7      46.7237      46.7237      46.7237 
   60000    132.36769   -9802.2371   -8684.8348   -944.96934     102002.7      46.7237      46.7237      46.7237 
   61000    130.26562   -9825.9186   -8726.2613   -860.54416     102002.7      46.7237      46.7237      46.7237 
   62000    130.17682   -9808.5184   -8709.6107   -755.29401     102002.7      46.7237      46.7237      46.7237 
   63000    125.25401   -9813.1716   -8755.8206   -644.24981     102002.7      46.7237      46.7237      46.7237 
   64000    128.26527   -9784.5609   -8701.7899   -905.99418     102002.7      46.7237      46.7237      46.7237 
   65000    128.84496   -9822.5649   -8734.9004   -1072.8136     102002.7      46.7237      46.7237      46.7237 
   66000    130.65218   -9805.3625   -8702.4419   -876.76112     102002.7      46.7237      46.7237      46.7237 
   67000    128.23702   -9811.1976   -8728.6651   -940.38549     102002.7      46.7237      46.7237      46.7237 
   68000    128.05706   -9815.2834     -8734.27   -945.17702     102002.7      46.7237      46.7237      46.7237 
   69000       132.13   -9808.0826   -8692.6868   -867.17461     102002.7      46.7237      46.7237      46.7237 
   70000    130.47084   -9781.8839   -8680.4942   -767.62548     102002.7      46.7237      46.7237      46.7237 
   71000     130.5082   -9818.7025   -8716.9974   -1064.8953     102002.7      46.7237      46.7237      46.7237 
   72000    127.46841   -9795.6654   -8719.6212   -747.32728     102002.7      46.7237      46.7237      46.7237 
   73000    126.82604   -9804.7655   -8734.1439   -893.69971     102002.7      46.7237      46.7237      46.7237 
   74000    131.68544    -9789.836   -8678.1931   -667.92934     102002.7      46.7237      46.7237      46.7237 
   75000    129.71206   -9840.6972   -8745.7129   -715.61002     102002.7      46.7237      46.7237      46.7237 
   76000    134.39751    -9811.983   -8677.4457   -579.82692     102002.7      46.7237      46.7237      46.7237 
   77000    129.17411   -9813.6654   -8723.2223   -785.05733     102002.7      46.7237      46.7237      46.7237 
   78000    127.24946   -9832.3417   -8758.1458   -730.33309     102002.7      46.7237      46.7237      46.7237 
   79000    128.83991   -9794.2546   -8706.6326   -800.87258     102002.7      46.7237      46.7237      46.7237 
   80000    128.40948    -9815.143   -8731.1546   -1013.5923     102002.7      46.7237      46.7237      46.7237 
   81000    128.80481   -9784.5021   -8697.1765   -893.34108     102002.7      46.7237      46.7237      46.7237 
   82000    132.06998   -9802.7687   -8687.8796   -914.86491     102002.7      46.7237      46.7237      46.7237 
   83000    124.80802   -9819.2642   -8765.6781   -738.96318     102002.7      46.7237      46.7237      46.7237 
   84000    131.59252   -9821.4652   -8710.6067   -753.18341     102002.7      46.7237      46.7237      46.7237 
   85000    132.90186   -9784.9855    -8663.074   -865.39792     102002.7      46.7237      46.7237      46.7237 
   86000    129.08013   -9812.7802   -8723.1304   -890.50181     102002.7      46.7237      46.7237      46.7237 
   87000     131.0365   -9801.3307    -8695.166   -672.73357     102002.7      46.7237      46.7237      46.7237 
   88000     131.9134   -9774.4429   -8660.8756   -978.40251     102002.7      46.7237      46.7237      46.7237 
   89000    126.19473   -9810.1748   -8744.8826   -765.40281     102002.7      46.7237      46.7237      46.7237 
   90000    131.95096   -9781.5049   -8667.6205    -867.8503     102002.7      46.7237      46.7237      46.7237 
   91000     126.7445   -9805.3435   -8735.4103   -910.17301     102002.7      46.7237      46.7237      46.7237 
   92000    128.33854     -9805.82   -8722.4304    -713.6527     102002.7      46.7237      46.7237      46.7237 
   93000    128.17003   -9797.3065   -8715.3395   -783.12594     102002.7      46.7237      46.7237      46.7237 
   94000    130.31533   -9815.8727   -8715.7957    -1122.123     102002.7      46.7237      46.7237      46.7237 
   95000    131.91377   -9800.4896   -8686.9192   -710.48066     102002.7      46.7237      46.7237      46.7237 
   96000    129.13401   -9785.8925   -8695.7878   -863.62869     102002.7      46.7237      46.7237      46.7237 
   97000    130.25535    -9764.763   -8665.1924    -900.5841     102002.7      46.7237      46.7237      46.7237 
   98000    131.98641   -9787.2502   -8673.0666   -941.88244     102002.7      46.7237      46.7237      46.7237 
   99000    131.19606   -9796.6316   -8689.1198   -1033.2284     102002.7      46.7237      46.7237      46.7237 
  100000    129.83463   -9805.4472   -8709.4281   -638.51986     102002.7      46.7237      46.7237      46.7237 
  101000    125.71706   -9795.0923   -8733.8324   -827.24392     102002.7      46.7237      46.7237      46.7237 
  102000    128.99858   -9804.8201   -8715.8587   -992.37731     102002.7      46.7237      46.7237      46.7237 
  103000    132.33071   -9787.3762   -8670.2862   -878.79622     102002.7      46.7237      46.7237      46.7237 
  104000    130.01612     -9820.81   -8723.2589   -936.08295     102002.7      46.7237      46.7237      46.7237 
  105000    125.84853   -9804.4456   -8742.0759   -880.35242     102002.7      46.7237      46.7237      46.7237 
  106000    125.74925   -9775.2376   -8713.7059   -912.83612     102002.7      46.7237      46.7237      46.7237 
  107000    129.81328   -9789.8635   -8694.0247   -895.06583     102002.7      46.7237      46.7237      46.7237 
  108000    130.99767    -9788.111    -8682.274   -871.75911     102002.7      46.7237      46.7237      46.7237 
  109000    126.29998   -9773.5141   -8707.3333   -924.92715     102002.7      46.7237      46.7237      46.7237 
  110000    131.53681   -9802.2548   -8691.8666   -1223.3325     102002.7      46.7237      46.7237      46.7237 
  111000    131.49923   -9793.2179   -8683.1469   -1273.6288     102002.7      46.7237      46.7237      46.7237 
  112000    132.40616   -9820.0268   -8702.2997   -1176.3806     102002.7      46.7237      46.7237      46.7237 
  113000    128.58371   -9793.4719   -8708.0127    -708.7921     102002.7      46.7237      46.7237      46.7237 
  114000     126.8744   -9799.5894   -8728.5596   -1009.6858     102002.7      46.7237      46.7237      46.7237 
  115000    130.53849   -9817.7176   -8715.7569   -963.31928     102002.7      46.7237      46.7237      46.7237 
  116000    129.48666   -9833.7371   -8740.6556   -807.85553     102002.7      46.7237      46.7237      46.7237 
  117000    126.38995   -9825.0582    -8758.118   -964.83191     102002.7      46.7237      46.7237      46.7237 
  118000    125.91347   -9800.7343   -8737.8164   -759.45394     102002.7      46.7237      46.7237      46.7237 
  119000    131.13326   -9804.3063   -8697.3246    -1181.224     102002.7      46.7237      46.7237      46.7237 
  120000    131.58099   -9774.0715   -8663.3102   -1105.3937     102002.7      46.7237      46.7237      46.7237 
  121000    129.11484    -9804.772   -8714.8291   -1175.0716     102002.7      46.7237      46.7237      46.7237 
  122000    130.48286   -9822.7647   -8721.2736   -716.47647     102002.7      46.7237      46.7237      46.7237 
  123000    130.70627   -9803.6813   -8700.3042   -741.68112     102002.7      46.7237      46.7237      46.7237 
  124000    129.12048   -9821.8625   -8731.8721   -1062.6058     102002.7      46.7237      46.7237      46.7237 
  125000    132.61811   -9825.4131   -8705.8969   -993.55704     102002.7      46.7237      46.7237      46.7237 
  126000    133.23537   -9802.9299    -8678.203   -1031.5467     102002.7      46.7237      46.7237      46.7237 
  127000     132.2232   -9819.7261   -8703.5436   -1121.6022     102002.7      46.7237      46.7237      46.7237 
  128000    128.61052   -9816.5446   -8730.8591   -866.81139     102002.7      46.7237      46.7237      46.7237 
  129000    129.28748   -9784.0791   -8692.6789   -1009.2859     102002.7      46.7237      46.7237      46.7237 
  130000    127.00264   -9810.1902   -8738.0779   -726.15066     102002.7      46.7237      46.7237      46.7237 
  131000    130.26958   -9830.7886   -8731.0978   -709.10427     102002.7      46.7237      46.7237      46.7237 
  132000    129.25007   -9803.7657   -8712.6813   -962.13213     102002.7      46.7237      46.7237      46.7237 
  133000    123.94804   -9800.5066   -8754.1801   -669.53281     102002.7      46.7237      46.7237      46.7237 
  134000    132.44377   -9804.0257   -8685.9812   -1031.9522     102002.7      46.7237      46.7237      46.7237 
  135000    129.67145   -9815.0533   -8720.4118   -891.21381     102002.7      46.7237      46.7237      46.7237 
  136000    129.57985   -9817.1656   -8723.2973   -756.46462     102002.7      46.7237      46.7237      46.7237 
  137000    130.73398    -9808.491   -8704.8799   -868.64897     102002.7      46.7237      46.7237      46.7237 
  138000    127.46201    -9799.815   -8723.8248   -509.13127     102002.7      46.7237      46.7237      46.7237 
  139000    130.03931   -9842.4806   -8744.7337   -771.72455     102002.7      46.7237      46.7237      46.7237 
  140000    133.00235   -9800.5784   -8677.8186   -970.13798     102002.7      46.7237      46.7237      46.7237 
  141000    130.19258   -9825.1464   -8726.1057   -448.17731     102002.7      46.7237      46.7237      46.7237 
  142000    126.56592   -9755.2157     -8686.79   -779.51615     102002.7      46.7237      46.7237      46.7237 
  143000     128.3424   -9795.4858   -8712.0637   -876.79148     102002.7      46.7237      46.7237      46.7237 
  144000    130.62407   -9830.7015   -8728.0183   -876.04714     102002.7      46.7237      46.7237      46.7237 
  145000     129.2821   -9796.2033   -8704.8486   -593.95464     102002.7      46.7237      46.7237      46.7237 
  146000    128.97446    -9810.583   -8721.8252   -466.69965     102002.7      46.7237      46.7237      46.7237 
  147000    130.37774   -9798.3379   -8697.7342   -1184.3072     102002.7      46.7237      46.7237      46.7237 
  148000    131.05082   -9811.4519   -8705.1663   -897.30247     102002.7      46.7237      46.7237      46.7237 
  149000    129.50673   -9818.1717   -8724.9208   -834.07857     102002.7      46.7237      46.7237      46.7237 
  150000    130.76355   -9797.0819   -8693.2212   -788.16555     102002.7      46.7237      46.7237      46.7237 
  151000    129.16111    -9809.685   -8719.3516   -570.71616     102002.7      46.7237      46.7237      46.7237 
  152000    127.52871   -9813.2775   -8736.7243   -1013.9386     102002.7      46.7237      46.7237      46.7237 
  153000    125.22918   -9793.4526   -8736.3112   -678.32196     102002.7      46.7237      46.7237      46.7237 
  154000    129.87918    -9812.178   -8715.7829   -699.62084     102002.7      46.7237      46.7237      46.7237 
  155000    129.55235   -9807.6621    -8714.026   -936.23375     102002.7      46.7237      46.7237      46.7237 
  156000    130.02812   -9816.7089   -8719.0564   -873.68475     102002.7      46.7237      46.7237      46.7237 
  157000    128.11529   -9796.5862   -8715.0812   -800.43796     102002.7      46.7237      46.7237      46.7237 
  158000    133.12786   -9795.0338   -8671.2144   -692.06354     102002.7      46.7237      46.7237      46.7237 
  159000    130.84605   -9791.0171     -8686.46   -618.84058     102002.7      46.7237      46.7237      46.7237 
  160000      132.559   -9826.1412    -8707.124   -799.88183     102002.7      46.7237      46.7237      46.7237 
  161000    130.27552   -9814.0087   -8714.2679   -631.91464     102002.7      46.7237      46.7237      46.7237 
  162000    130.39511   -9798.2089   -8697.4584   -894.09459     102002.7      46.7237      46.7237      46.7237 
  163000    128.06793   -9800.1743   -8719.0691   -836.17883     102002.7      46.7237      46.7237      46.7237 
  164000    128.78249   -9828.5248   -8741.3876   -586.34896     102002.7      46.7237      46.7237      46.7237 
  165000    128.83479   -9819.1659   -8731.5871   -957.23988     102002.7      46.7237      46.7237      46.7237 
  166000    131.72621   -9789.2285   -8677.2414   -990.63839     102002.7      46.7237      46.7237      46.7237 
  167000    132.37166   -9818.2958     -8700.86   -861.59216     102002.7      46.7237      46.7237      46.7237 
  168000    126.69644   -9828.8942   -8759.3667    -1024.633     102002.7      46.7237      46.7237      46.7237 
  169000     131.5605   -9817.7321   -8707.1439   -1123.6772     102002.7      46.7237      46.7237      46.7237 
  170000    131.29182   -9797.7475   -8689.4274   -545.14322     102002.7      46.7237      46.7237      46.7237 
  171000    128.83477   -9780.7986   -8693.2201   -860.94326     102002.7      46.7237      46.7237      46.7237 
  172000    133.97526   -9789.4169   -8658.4442   -883.06061     102002.7      46.7237      46.7237      46.7237 
  173000    131.56961   -9803.9013   -8693.2362   -1056.1599     102002.7      46.7237      46.7237      46.7237 
  174000    130.95501   -9811.5502   -8706.0733   -761.23294     102002.7      46.7237      46.7237      46.7237 
  175000     127.5105    -9820.951   -8744.5515   -1110.7984     102002.7      46.7237      46.7237      46.7237 
  176000     128.8824   -9832.1426   -8744.1619   -828.66086     102002.7      46.7237      46.7237      46.7237 
  177000    128.44834   -9801.6215    -8717.305   -634.35221     102002.7      46.7237      46.7237      46.7237 
  178000    131.48062   -9778.0653   -8668.1514   -1078.6148     102002.7      46.7237      46.7237      46.7237 
  179000    130.71915   -9800.4734   -8696.9875   -453.63587     102002.7      46.7237      46.7237      46.7237 
  180000    126.69876    -9799.024   -8729.4769   -917.30437     102002.7      46.7237      46.7237      46.7237 
  181000     128.6951   -9807.7432   -8721.3437   -861.13995     102002.7      46.7237      46.7237      46.7237 
  182000    129.00636   -9796.3259   -8707.2989   -681.53246     102002.7      46.7237      46.7237      46.7237 
  183000    128.61163   -9781.8141   -8696.1192   -1087.6803     102002.7      46.7237      46.7237      46.7237 
  184000    131.28871   -9848.7122   -8740.4184   -740.15684     102002.7      46.7237      46.7237      46.7237 
  185000    130.16846   -9816.2917   -8717.4546   -1155.3667     102002.7      46.7237      46.7237      46.7237 
  186000    130.32705   -9793.6795   -8693.5036   -960.12058     102002.7      46.7237      46.7237      46.7237 
  187000    126.59198   -9785.1449   -8716.4993    -721.8679     102002.7      46.7237      46.7237      46.7237 
  188000    126.25559   -9789.9308   -8724.1248   -1095.4294     102002.7      46.7237      46.7237      46.7237 
  189000    130.37294   -9829.6134   -8729.0501    -973.2015     102002.7      46.7237      46.7237      46.7237 
  190000    127.03904   -9794.7402   -8722.3206   -651.20231     102002.7      46.7237      46.7237      46.7237 
  191000    132.13143   -9831.4154   -8716.0076    -1011.482     102002.7      46.7237      46.7237      46.7237 
  192000    131.76821   -9816.5995   -8704.2578   -612.17004     102002.7      46.7237      46.7237      46.7237 
  193000    127.85413   -9808.7788   -8729.4785   -981.34795     102002.7      46.7237      46.7237      46.7237 
  194000    129.64844   -9801.5002   -8707.0529   -716.82826     102002.7      46.7237      46.7237      46.7237 
  195000    128.88084   -9804.9081   -8716.9407   -608.73649     102002.7      46.7237      46.7237      46.7237 
  196000    128.40365   -9764.6565   -8680.7173   -1222.7303     102002.7      46.7237      46.7237      46.7237 
  197000    127.64542   -9763.6841   -8686.1457    -986.5085     102002.7      46.7237      46.7237      46.7237 
  198000    132.59592    -9772.957   -8653.6281   -1199.5311     102002.7      46.7237      46.7237      46.7237 
  199000    131.78066    -9782.723   -8670.2763   -1072.4303     102002.7      46.7237      46.7237      46.7237 
  200000    132.39119   -9775.0196   -8657.4189   -1059.3091     102002.7      46.7237      46.7237      46.7237 
  201000    132.01736   -9803.3161   -8688.8713   -1215.5878     102002.7      46.7237      46.7237      46.7237 
  202000    130.05563    -9790.615   -8692.7304   -810.90036     102002.7      46.7237      46.7237      46.7237 
  203000    132.90787    -9804.448   -8682.4857   -629.33066     102002.7      46.7237      46.7237      46.7237 
  204000    129.58428   -9804.6712   -8710.7655   -862.46666     102002.7      46.7237      46.7237      46.7237 
  205000    127.43133   -9813.6795   -8737.9483   -974.71951     102002.7      46.7237      46.7237      46.7237 
  206000    132.06917    -9790.958   -8676.0758   -966.95097     102002.7      46.7237      46.7237      46.7237 
  207000    127.72244   -9772.7562   -8694.5675   -854.18377     102002.7      46.7237      46.7237      46.7237 
  208000    128.85315    -9782.598   -8694.8642   -855.78653     102002.7      46.7237      46.7237      46.7237 
  209000     132.3073   -9792.6485   -8675.7561   -932.86071     102002.7      46.7237      46.7237      46.7237 
  210000    131.32976   -9816.0271   -8707.3867   -809.61811     102002.7      46.7237      46.7237      46.7237 
  211000    125.11256   -9792.3698   -8736.2129   -740.75787     102002.7      46.7237      46.7237      46.7237 
  212000    132.84938   -9815.6664   -8694.1979    -1191.657     102002.7      46.7237      46.7237      46.7237 
  213000    130.14086   -9804.0157   -8705.4116    -975.0606     102002.7      46.7237      46.7237      46.7237 
  214000     128.3722   -9816.7293   -8733.0556   -628.39528     102002.7      46.7237      46.7237      46.7237 
  215000    130.19106   -9812.6554   -8713.6275   -970.47055     102002.7      46.7237      46.7237      46.7237 
  216000    129.68012   -9793.6866   -8698.9719   -947.73316     102002.7      46.7237      46.7237      46.7237 
  217000    125.44152   -9767.9993   -8709.0654   -935.29719     102002.7      46.7237      46.7237      46.7237 
  218000    129.25862   -9774.3309   -8683.1744   -514.36971     102002.7      46.7237      46.7237      46.7237 
  219000    126.01117   -9766.6932   -8702.9505   -882.55053     102002.7      46.7237      46.7237      46.7237 
  220000    127.25157   -9805.8811   -8731.6674   -965.60624     102002.7      46.7237      46.7237      46.7237 
  221000    130.17335   -9806.3533    -8707.475    -928.1357     102002.7      46.7237      46.7237      46.7237 
  222000    132.53668   -9799.1063   -8680.2775   -1012.5638     102002.7      46.7237      46.7237      46.7237 
  223000    132.50697   -9799.3993   -8680.8213   -862.45976     102002.7      46.7237      46.7237      46.7237 
  224000    129.42201   -9791.7782   -8699.2424   -733.10787     102002.7      46.7237      46.7237      46.7237 
  225000    132.09483   -9800.7833   -8685.6845   -638.08081     102002.7      46.7237      46.7237      46.7237 
  226000    130.86262   -9829.9331   -8725.2361   -441.82661     102002.7      46.7237      46.7237      46.7237 
  227000    132.21051   -9795.4465   -8679.3711   -728.44912     102002.7      46.7237      46.7237      46.7237 
  228000    131.17589   -9817.1694   -8709.8279   -896.55936     102002.7      46.7237      46.7237      46.7237 
  229000    132.16028   -9810.3205   -8694.6692   -868.42552     102002.7      46.7237      46.7237      46.7237 
  230000     130.6389   -9789.7824    -8686.974   -855.50793     102002.7      46.7237      46.7237      46.7237 
  231000    125.33994   -9807.1903   -8749.1139   -985.99894     102002.7      46.7237      46.7237      46.7237 
  232000    129.31851   -9796.8132    -8705.151   -805.00526     102002.7      46.7237      46.7237      46.7237 
  233000    131.85866   -9809.8122    -8696.707   -1106.5761     102002.7      46.7237      46.7237      46.7237 
  234000    129.52544   -9766.7727   -8673.3637    -1120.531     102002.7      46.7237      46.7237      46.7237 
  235000    127.84675   -9810.2778   -8731.0397   -1202.7478     102002.7      46.7237      46.7237      46.7237 
  236000    127.18711   -9790.0162   -8716.3466   -1028.6549     102002.7      46.7237      46.7237      46.7237 
  237000    127.68872    -9790.223    -8712.319   -973.90096     102002.7      46.7237      46.7237      46.7237 
  238000    128.88823   -9815.9752   -8727.9454   -690.60601     102002.7      46.7237      46.7237      46.7237 
  239000    130.14393   -9808.3668   -8709.7367   -706.56137     102002.7      46.7237      46.7237      46.7237 
  240000     131.1896   -9774.3581   -8666.9009   -962.94007     102002.7      46.7237      46.7237      46.7237 
  241000    130.47323   -9778.1426   -8676.7327   -850.64444     102002.7      46.7237      46.7237      46.7237 
  242000    125.50856   -9770.4844   -8710.9846    -1086.182     102002.7      46.7237      46.7237      46.7237 
  243000    129.49643   -9787.9783   -8694.8143    -1061.359     102002.7      46.7237      46.7237      46.7237 
  244000    130.88175   -9787.2315    -8682.373   -830.10668     102002.7      46.7237      46.7237      46.7237 
  245000    129.40938   -9806.2734   -8713.8441   -874.68147     102002.7      46.7237      46.7237      46.7237 
  246000    129.36652   -9817.2977   -8725.2303   -807.52304     102002.7      46.7237      46.7237      46.7237 
  247000    129.25492   -9811.2124   -8720.0871   -1173.7916     102002.7      46.7237      46.7237      46.7237 
  248000    134.95185   -9812.1828    -8672.966   -587.74418     102002.7      46.7237      46.7237      46.7237 
  249000    130.62188    -9803.973   -8701.3083   -956.10834     102002.7      46.7237      46.7237      46.7237 
  250000    130.45459   -9820.9001   -8719.6476   -980.92386     102002.7      46.7237      46.7237      46.7237 
  251000    134.57695   -9824.8677   -8688.8156   -565.73713     102002.7      46.7237      46.7237      46.7237 
  252000    131.06699    -9828.025   -8721.6029   -909.53788     102002.7      46.7237      46.7237      46.7237 
  253000    129.06652   -9828.9813   -8739.4463   -576.48453     102002.7      46.7237      46.7237      46.7237 
  254000    132.75675    -9794.483   -8673.7965   -992.06536     102002.7      46.7237      46.7237      46.7237 
  255000    131.49351   -9806.5549   -8696.5321    -1065.043     102002.7      46.7237      46.7237      46.7237 
  256000    130.16475   -9793.0327   -8694.2269   -674.75279     102002.7      46.7237      46.7237      46.7237 
  257000     129.7962   -9823.3821   -8727.6875   -1000.2218     102002.7      46.7237      46.7237      46.7237 
  258000     125.5499   -9813.1752   -8753.3263   -572.67937     102002.7      46.7237      46.7237      46.7237 
  259000    133.75011   -9782.0005   -8652.9283    -732.8164     102002.7      46.7237      46.7237      46.7237 
  260000    131.31024   -9805.2123   -8696.7368    -967.2067     102002.7      46.7237      46.7237      46.7237 
  261000    132.76278   -9788.7962   -8668.0587   -825.65004     102002.7      46.7237      46.7237      46.7237 
  262000    127.45479   -9822.3277   -8746.3984   -977.99061     102002.7      46.7237      46.7237      46.7237 
  263000    130.56825   -9775.0836   -8672.8716   -895.47836     102002.7      46.7237      46.7237      46.7237 
  264000    130.24254   -9795.4189   -8695.9564   -1165.6999     102002.7      46.7237      46.7237      46.7237 
  265000    126.80855   -9800.3829    -8729.909   -986.96534     102002.7      46.7237      46.7237      46.7237 
  266000    130.31818   -9776.3666   -8676.2656   -979.98702     102002.7      46.7237      46.7237      46.7237 
  267000    127.57723   -9766.0266   -8689.0638   -904.55067     102002.7      46.7237      46.7237      46.7237 
  268000     127.6178   -9787.8941   -8710.5888   -607.06193     102002.7      46.7237      46.7237      46.7237 
  269000    129.40274    -9772.793   -8680.4198   -743.82402     102002.7      46.7237      46.7237      46.7237 
  270000    130.57132   -9804.9346   -8702.6966   -849.77727     102002.7      46.7237      46.7237      46.7237 
  271000    129.16814    -9796.407   -8706.0143   -656.09848     102002.7      46.7237      46.7237      46.7237 
  272000    128.44551   -9784.7185    -8700.426   -1178.0497     102002.7      46.7237      46.7237      46.7237 
  273000    128.12835   -9820.1657   -8738.5506   -866.69582     102002.7      46.7237      46.7237      46.7237 
  274000     128.1313   -9808.1202   -8726.4802   -789.36848     102002.7      46.7237      46.7237      46.7237 
  275000    131.97837   -9838.8081   -8724.6923    -1103.035     102002.7      46.7237      46.7237      46.7237 
  276000     129.4937   -9809.7805   -8716.6395   -1029.8792     102002.7      46.7237      46.7237      46.7237 
  277000     128.2484   -9803.7477   -8721.1191   -1078.9768     102002.7      46.7237      46.7237      46.7237 
  278000    129.42033   -9771.2632   -8678.7416   -737.47188     102002.7      46.7237      46.7237      46.7237 
  279000    127.95472    -9786.843   -8706.6935   -1149.6315     102002.7      46.7237      46.7237      46.7237 
  280000    131.16712   -9774.7187   -8667.4513   -1205.4778     102002.7      46.7237      46.7237      46.7237 
  281000    130.37414   -9823.1234     -8722.55   -791.37248     102002.7      46.7237      46.7237      46.7237 
  282000     129.1998   -9782.3833   -8691.7232   -723.34142     102002.7      46.7237      46.7237      46.7237 
  283000    126.40271   -9800.8107   -8733.7628   -986.60443     102002.7      46.7237      46.7237      46.7237 
  284000    130.06335    -9786.237   -8688.2872   -1041.3576     102002.7      46.7237      46.7237      46.7237 
  285000      129.745   -9748.4365   -8653.1741   -1028.9094     102002.7      46.7237      46.7237      46.7237 
  286000    127.25407   -9750.5001   -8676.2653    -1269.848     102002.7      46.7237      46.7237      46.7237 
  287000    126.56354   -9782.5209   -8714.1153    -919.1364     102002.7      46.7237      46.7237      46.7237 
  288000    131.09719   -9809.7723   -8703.0952   -846.35845     102002.7      46.7237      46.7237      46.7237 
  289000    128.14693   -9794.8395   -8713.0674   -880.97628     102002.7      46.7237      46.7237      46.7237 
  290000    132.00161   -9773.5345   -8659.2226   -541.98158     102002.7      46.7237      46.7237      46.7237 
  291000    126.55984   -9794.0623    -8725.688   -898.52123     102002.7      46.7237      46.7237      46.7237 
  292000    127.16458   -9789.2068   -8715.7274   -837.24501     102002.7      46.7237      46.7237      46.7237 
  293000    131.25493    -9819.516   -8711.5073    -869.8494     102002.7      46.7237      46.7237      46.7237 
  294000    129.55491   -9805.4812   -8711.8235   -768.06852     102002.7      46.7237      46.7237      46.7237 
  295000    130.35774   -9843.2808   -8742.8458   -846.26746     102002.7      46.7237      46.7237      46.7237 
  296000    129.11561   -9786.0354   -8696.0861   -841.62185     102002.7      46.7237      46.7237      46.7237 
  297000    129.92954   -9796.3804   -8699.5602   -794.88262     102002.7      46.7237      46.7237      46.7237 
  298000    128.99768   -9789.8824   -8700.9286   -765.12143     102002.7      46.7237      46.7237      46.7237 
  299000      129.741   -9818.4294   -8723.2007    -903.3716     102002.7      46.7237      46.7237      46.7237 
  300000    130.22891   -9778.9327   -8679.5853   -809.40889     102002.7      46.7237      46.7237      46.7237 
  301000     128.6936   -9816.3139    -8729.927   -850.60815     102002.7      46.7237      46.7237      46.7237 
  302000    129.51119   -9815.3373   -8722.0486   -733.86452     102002.7      46.7237      46.7237      46.7237 
  303000    128.46029   -9792.8306   -8708.4133   -1072.7697     102002.7      46.7237      46.7237      46.7237 
  304000    131.13379   -9836.9008   -8729.9147   -840.35738     102002.7      46.7237      46.7237      46.7237 
  305000    126.53944   -9819.0818   -8750.8796    -1108.513     102002.7      46.7237      46.7237      46.7237 
  306000    130.50835   -9835.5891   -8733.8828    -1108.348     102002.7      46.7237      46.7237      46.7237 
  307000    130.04699   -9810.1967    -8712.385   -724.94747     102002.7      46.7237      46.7237      46.7237 
  308000    128.78784   -9827.3587   -8740.1763    -834.6865     102002.7      46.7237      46.7237      46.7237 
  309000    131.29437   -9819.5774   -8711.2357   -901.29439     102002.7      46.7237      46.7237      46.7237 
  310000     128.8463   -9794.3024   -8706.6265   -856.91364     102002.7      46.7237      46.7237      46.7237 
  311000    131.23083   -9804.5814   -8696.7761   -1580.3813     102002.7      46.7237      46.7237      46.7237 
  312000    131.75191   -9795.0851   -8682.8811   -1044.7039     102002.7      46.7237      46.7237      46.7237 
  313000    131.44422   -9820.8982   -8711.2915   -896.01384     102002.7      46.7237      46.7237      46.7237 
  314000    126.74192   -9794.8857   -8724.9743    -826.0759     102002.7      46.7237      46.7237      46.7237 
  315000     129.1243   -9812.4249   -8722.4022   -952.17408     102002.7      46.7237      46.7237      46.7237 
  316000    131.92704   -9810.2012   -8696.5188   -764.34326     102002.7      46.7237      46.7237      46.7237 
  317000    129.54995    -9807.103   -8713.4872   -1267.1643     102002.7      46.7237      46.7237      46.7237 
  318000     130.6521   -9812.0211   -8709.1013   -937.12303     102002.7      46.7237      46.7237      46.7237 
  319000     132.6232   -9791.4201   -8671.8609   -868.61475     102002.7      46.7237      46.7237      46.7237 
  320000    127.27132   -9805.0249   -8730.6444   -1340.1767     102002.7      46.7237      46.7237      46.7237 
  321000     125.1522   -9813.0312   -8756.5396   -969.02869     102002.7      46.7237      46.7237      46.7237 
  322000     133.6014    -9802.915   -8675.0982   -549.48243     102002.7      46.7237      46.7237      46.7237 
  323000    130.18755   -9778.3271   -8679.3288   -806.08535     102002.7      46.7237      46.7237      46.7237 
  324000    128.55967   -9786.8636   -8701.6074   -793.40855     102002.7      46.7237      46.7237      46.7237 
  325000    132.31719   -9809.3509    -8692.375    -1119.897     102002.7      46.7237      46.7237      46.7237 
  326000    129.66248   -9779.7079   -8685.1422   -1028.8014     102002.7      46.7237      46.7237      46.7237 
  327000    128.15778   -9816.0961   -8734.2325   -788.11002     102002.7      46.7237      46.7237      46.7237 
  328000    131.58111   -9810.9661   -8700.2038   -922.22182     102002.7      46.7237      46.7237      46.7237 
  329000    128.48139   -9801.6914   -8717.0959   -1002.4694     102002.7      46.7237      46.7237      46.7237 
  330000    127.93712   -9778.6235   -8698.6226   -1392.7249     102002.7      46.7237      46.7237      46.7237 
  331000    130.00116   -9797.5864   -8700.1617   -957.21605     102002.7      46.7237      46.7237      46.7237 
  332000    129.40235    -9799.446   -8707.0761   -887.95146     102002.7      46.7237      46.7237      46.7237 
  333000     129.3159   -9787.6502   -8696.0101   -1040.3623     102002.7      46.7237      46.7237      46.7237 
  334000    130.53183   -9784.3272   -8682.4226   -965.35494     102002.7      46.7237      46.7237      46.7237 
  335000    129.52186   -9800.9525   -8707.5738   -847.47754     102002.7      46.7237      46.7237      46.7237 
  336000    131.43326   -9812.9332   -8703.4191   -717.42438     102002.7      46.7237      46.7237      46.7237 
  337000    130.98738   -9810.6185   -8704.8684   -884.24278     102002.7      46.7237      46.7237      46.7237 
  338000     133.4558   -9830.2673   -8703.6797   -571.24392     102002.7      46.7237      46.7237      46.7237 
  339000    135.47215   -9760.4524   -8616.8434   -445.33005     102002.7      46.7237      46.7237      46.7237 
  340000    130.38332   -9804.8743   -8704.2234   -616.98478     102002.7      46.7237      46.7237      46.7237 
  341000      127.388   -9813.7167   -8738.3513   -789.19203     102002.7      46.7237      46.7237      46.7237 
  342000    128.48805   -9802.5254   -8717.8738   -437.58082     102002.7      46.7237      46.7237      46.7237 
  343000    130.24276   -9811.7815   -8712.3171   -683.82804     102002.7      46.7237      46.7237      46.7237 
  344000    126.44107   -9771.7068    -8704.335   -699.29893     102002.7      46.7237      46.7237      46.7237 
  345000    131.07858   -9804.5082   -8697.9882   -691.28336     102002.7      46.7237      46.7237      46.7237 
  346000    132.30453    -9811.996   -8695.1269   -990.42137     102002.7      46.7237      46.7237      46.7237 
  347000    129.01466   -9796.3498   -8707.2527   -554.34521     102002.7      46.7237      46.7237      46.7237 
  348000    130.98245   -9805.2795   -8699.5709   -924.88566     102002.7      46.7237      46.7237      46.7237 
  349000    132.02125   -9784.9759   -8670.4982    -988.0769     102002.7      46.7237      46.7237      46.7237 
  350000     132.9289   -9785.9238    -8663.784   -788.59084     102002.7      46.7237      46.7237      46.7237 
  351000    129.68371   -9812.0072   -8717.2622   -619.79398     102002.7      46.7237      46.7237      46.7237 
  352000    129.30928   -9793.7058   -8702.1216   -730.66427     102002.7      46.7237      46.7237      46.7237 
  353000    130.05437   -9794.7595   -8696.8855   -928.84288     102002.7      46.7237      46.7237      46.7237 
  354000    132.61419   -9819.0761    -8699.593   -830.85575     102002.7      46.7237      46.7237      46.7237 
  355000    126.34154    -9819.946   -8753.4144   -733.53301     102002.7      46.7237      46.7237      46.7237 
  356000    129.83277   -9788.7219   -8692.7186   -823.80065     102002.7      46.7237      46.7237      46.7237 
  357000    127.61926   -9815.6835   -8738.3659   -961.11438     102002.7      46.7237      46.7237      46.7237 
  358000    129.49321   -9808.6477   -8715.5108   -918.15745     102002.7      46.7237      46.7237      46.7237 
  359000     132.5742   -9829.4676   -8710.3221   -1120.3871     102002.7      46.7237      46.7237      46.7237 
  360000    131.32199   -9818.1015   -8709.5267   -634.15531     102002.7      46.7237      46.7237      46.7237 
  361000    130.39347   -9797.3803   -8696.6438   -876.05642     102002.7      46.7237      46.7237      46.7237 
  362000    127.68186   -9814.7463   -8736.9002   -1219.3849     102002.7      46.7237      46.7237      46.7237 
  363000    127.79693   -9819.3171   -8740.4997   -798.98193     102002.7      46.7237      46.7237      46.7237 
  364000    131.03516   -9804.1527   -8697.9992   -971.86327     102002.7      46.7237      46.7237      46.7237 
  365000    128.35181   -9826.4062   -8742.9046   -812.34778     102002.7      46.7237      46.7237      46.7237 
  366000    132.62701   -9832.9801   -8713.3888   -992.74122     102002.7      46.7237      46.7237      46.7237 
  367000      130.809   -9801.9331   -8697.6888   -1003.4499     102002.7      46.7237      46.7237      46.7237 
  368000    129.15188   -9784.6926   -8694.4371   -710.87901     102002.7      46.7237      46.7237      46.7237 
  369000    132.41792    -9791.595   -8673.7687   -1079.6444     102002.7      46.7237      46.7237      46.7237 
  370000    132.61236   -9812.5149   -8693.0472   -708.78026     102002.7      46.7237      46.7237      46.7237 
  371000    132.55809   -9840.0085    -8720.999   -722.98144     102002.7      46.7237      46.7237      46.7237 
  372000    128.44557   -9794.4208   -8710.1277   -1002.1366     102002.7      46.7237      46.7237      46.7237 
  373000    127.62269    -9833.836   -8756.4894   -806.04399     102002.7      46.7237      46.7237      46.7237 
  374000    128.99046   -9796.7624   -8707.8695   -1209.1857     102002.7      46.7237      46.7237      46.7237 
  375000     130.7878   -9790.4052   -8686.3398   -896.01506     102002.7      46.7237      46.7237      46.7237 
  376000    130.04836   -9814.4203   -8716.5971   -668.98461     102002.7      46.7237      46.7237      46.7237 
  377000    132.50989    -9807.549   -8688.9464   -699.18364     102002.7      46.7237      46.7237      46.7237 
  378000    132.48788   -9808.9222   -8690.5053   -793.95724     102002.7      46.7237      46.7237      46.7237 
  379000    128.46793   -9818.0644   -8733.5826   -984.36658     102002.7      46.7237      46.7237      46.7237 
  380000    132.07863   -9798.1602    -8683.198   -358.20426     102002.7      46.7237      46.7237      46.7237 
  381000    129.27982   -9792.4429   -8701.1074   -967.01431     102002.7      46.7237      46.7237      46.7237 
  382000    128.00383   -9836.3556   -8755.7916   -862.71142     102002.7      46.7237      46.7237      46.7237 
  383000    130.32694    -9804.629    -8704.454    -544.2808     102002.7      46.7237      46.7237      46.7237 
  384000    129.64393   -9815.7954   -8721.3863    -811.3787     102002.7      46.7237      46.7237      46.7237 
  385000    130.90476   -9791.2494   -8686.1967   -1047.5827     102002.7      46.7237      46.7237      46.7237 
  386000    130.41495   -9804.3257   -8703.4078   -1366.1109     102002.7      46.7237      46.7237      46.7237 
  387000     125.8942    -9790.339   -8727.5837   -895.09806     102002.7      46.7237      46.7237      46.7237 
  388000    127.93319   -9751.2772   -8671.3094   -694.86862     102002.7      46.7237      46.7237      46.7237 
  389000    135.30145     -9791.87   -8649.7019    -1021.265     102002.7      46.7237      46.7237      46.7237 
  390000    132.51066   -9840.6504   -8722.0412   -709.63282     102002.7      46.7237      46.7237      46.7237 
  391000     130.8304   -9836.7948   -8732.3698   -940.67542     102002.7      46.7237      46.7237      46.7237 
  392000    128.96379   -9792.7065   -8704.0388   -1009.5402     102002.7      46.7237      46.7237      46.7237 
  393000    127.32098   -9779.1286    -8704.329   -1101.8903     102002.7      46.7237      46.7237      46.7237 
  394000    131.41385   -9791.8623   -8682.5121   -843.86949     102002.7      46.7237      46.7237      46.7237 
  395000    131.56254   -9802.9532   -8692.3477   -992.24329     102002.7      46.7237      46.7237      46.7237 
  396000    133.38291    -9825.185   -8699.2126    -932.4983     102002.7      46.7237      46.7237      46.7237 
  397000    131.62611   -9789.1807   -8678.0386    -891.3995     102002.7      46.7237      46.7237      46.7237 
  398000    128.07731   -9770.1787   -8688.9943   -1243.1587     102002.7      46.7237      46.7237      46.7237 
  399000    129.32059    -9835.061   -8743.3813   -1104.4749     102002.7      46.7237      46.7237      46.7237 
  400000    131.46549   -9817.4749   -8707.6887   -918.17585     102002.7      46.7237      46.7237      46.7237 
  401000    129.82077   -9798.7351    -8702.833   -776.64139     102002.7      46.7237      46.7237      46.7237 
  402000    130.46587   -9778.0685   -8676.7208   -1260.2753     102002.7      46.7237      46.7237      46.7237 
  403000    130.99802   -9808.2103   -8702.3703   -955.51354     102002.7      46.7237      46.7237      46.7237 
  404000    129.38492   -9794.2693   -8702.0466   -706.09346     102002.7      46.7237      46.7237      46.7237 
  405000    129.79941   -9785.3227   -8689.6009   -972.05844     102002.7      46.7237      46.7237      46.7237 
  406000    127.65981   -9815.1987   -8737.5387   -985.90119     102002.7      46.7237      46.7237      46.7237 
  407000    130.00666   -9807.1564   -8709.6851   -1070.4792     102002.7      46.7237      46.7237      46.7237 
  408000    131.13926   -9784.1675   -8677.1352   -1102.2161     102002.7      46.7237      46.7237      46.7237 
  409000     127.9963   -9814.0682   -8733.5678   -1169.7801     102002.7      46.7237      46.7237      46.7237 
  410000    132.76628   -9798.6557   -8677.8887   -804.84349     102002.7      46.7237      46.7237      46.7237 
  411000    132.17097    -9777.751   -8662.0095   -1209.6858     102002.7      46.7237      46.7237      46.7237 
  412000    131.68742   -9773.2937    -8661.634   -1031.8056     102002.7      46.7237      46.7237      46.7237 
  413000    128.51791   -9809.8667    -8724.963   -1298.8481     102002.7      46.7237      46.7237      46.7237 
  414000    126.26669   -9805.8145   -8739.9148   -1084.4326     102002.7      46.7237      46.7237      46.7237 
  415000    133.83006   -9816.9836   -8687.2365   -921.37593     102002.7      46.7237      46.7237      46.7237 
  416000    129.24052   -9811.2626   -8720.2588   -928.88026     102002.7      46.7237      46.7237      46.7237 
  417000    131.00117   -9846.3288   -8740.4623   -805.61938     102002.7      46.7237      46.7237      46.7237 
  418000    128.08513   -9838.5696   -8757.3193   -1013.5974     102002.7      46.7237      46.7237      46.7237 
  419000    129.22798   -9811.1584   -8720.2606   -921.07023     102002.7      46.7237      46.7237      46.7237 
  420000    132.69401   -9803.4764   -8683.3194   -871.72554     102002.7      46.7237      46.7237      46.7237 
  421000    132.34477   -9783.8958    -8666.687   -928.81227     102002.7      46.7237      46.7237      46.7237 
  422000     129.1933   -9758.4059   -8667.8008   -965.28133     102002.7      46.7237      46.7237      46.7237 
  423000    129.98265   -9799.3923   -8702.1237   -678.24459     102002.7      46.7237      46.7237      46.7237 
  424000    127.38379   -9784.0121   -8708.6822   -944.03539     102002.7      46.7237      46.7237      46.7237 
  425000    127.52715   -9801.5719   -8725.0319   -943.08455     102002.7      46.7237      46.7237      46.7237 
  426000    129.98352   -9804.9517   -8707.6757   -887.26167     102002.7      46.7237      46.7237      46.7237 
  427000     132.6712   -9800.0182   -8680.0538   -789.51262     102002.7      46.7237      46.7237      46.7237 
  428000    130.97503   -9793.1935   -8687.5476   -1072.5224     102002.7      46.7237      46.7237      46.7237 
  429000    128.21295   -9812.4833   -8730.1539   -789.66871     102002.7      46.7237      46.7237      46.7237 
  430000    129.63077   -9809.9685   -8715.6704   -794.15962     102002.7      46.7237      46.7237      46.7237 
  431000    130.45242   -9792.2578   -8691.0236   -711.34802     102002.7      46.7237      46.7237      46.7237 
  432000    134.53027   -9795.8922   -8660.2342   -891.18188     102002.7      46.7237      46.7237      46.7237 
  433000    132.24905   -9792.3097    -8675.909   -537.27539     102002.7      46.7237      46.7237      46.7237 
  434000    128.82101   -9814.3428   -8726.8804   -872.59598     102002.7      46.7237      46.7237      46.7237 
  435000     131.7201   -9828.9319   -8716.9964   -669.91749     102002.7      46.7237      46.7237      46.7237 
  436000    129.03796   -9814.3179   -8725.0241   -678.56485     102002.7      46.7237      46.7237      46.7237 
  437000    132.85082   -9810.9643   -8689.4836   -983.51189     102002.7      46.7237      46.7237      46.7237 
  438000    128.02608   -9806.5542   -8725.8024   -678.92186     102002.7      46.7237      46.7237      46.7237 
  439000     131.6574   -9807.9249   -8696.5186   -757.40715     102002.7      46.7237      46.7237      46.7237 
  440000    131.26954   -9799.8421     -8691.71   -1014.2847     102002.7      46.7237      46.7237      46.7237 
  441000    127.10382   -9793.9181   -8720.9516   -870.95484     102002.7      46.7237      46.7237      46.7237 
  442000    125.28152   -9787.5469   -8729.9637   -942.93282     102002.7      46.7237      46.7237      46.7237 
  443000    129.71104   -9814.3165   -8719.3408   -825.71377     102002.7      46.7237      46.7237      46.7237 
  444000    130.70572   -9820.9107   -8717.5382   -838.32784     102002.7      46.7237      46.7237      46.7237 
  445000    129.85373   -9814.2619   -8718.0816   -627.05429     102002.7      46.7237      46.7237      46.7237 
  446000     131.8335   -9788.1484   -8675.2556   -942.34694     102002.7      46.7237      46.7237      46.7237 
  447000    129.01046   -9801.4402   -8712.3785   -672.15469     102002.7      46.7237      46.7237      46.7237 
  448000    129.83904   -9818.5807   -8722.5244   -639.42171     102002.7      46.7237      46.7237      46.7237 
  449000    129.25801   -9800.8137   -8709.6622   -489.41074     102002.7      46.7237      46.7237      46.7237 
  450000    131.31245   -9824.6356   -8716.1413   -1001.7296     102002.7      46.7237      46.7237      46.7237 
  451000    128.09332   -9819.4744    -8738.155   -919.92592     102002.7      46.7237      46.7237      46.7237 
  452000    128.53722   -9835.1604   -8750.0937   -955.26268     102002.7      46.7237      46.7237      46.7237 
  453000    130.93269   -9803.6336   -8698.3451   -1057.8195     102002.7      46.7237      46.7237      46.7237 
  454000    130.25534   -9788.5063   -8688.9358   -587.79357     102002.7      46.7237      46.7237      46.7237 
  455000    133.90113   -9823.8877   -8693.5407   -697.00466     102002.7      46.7237      46.7237      46.7237 
  456000    130.83165   -9791.5741   -8687.1386   -1109.4654     102002.7      46.7237      46.7237      46.7237 
  457000    131.47105   -9797.2088   -8687.3757   -969.48816     102002.7      46.7237      46.7237      46.7237 
  458000    132.41048   -9825.1661   -8707.4027   -1151.1441     102002.7      46.7237      46.7237      46.7237 
  459000    128.22222   -9807.4504   -8725.0427   -664.75073     102002.7      46.7237      46.7237      46.7237 
  460000    125.98634   -9807.1222   -8743.5891   -773.39215     102002.7      46.7237      46.7237      46.7237 
  461000    129.14235   -9808.1171    -8717.942    -927.0887     102002.7      46.7237      46.7237      46.7237 
  462000    131.54936   -9803.9685   -8693.4744    -663.9178     102002.7      46.7237      46.7237      46.7237 
  463000    128.46777   -9821.7343   -8737.2538   -792.86089     102002.7      46.7237      46.7237      46.7237 
  464000    126.37667    -9818.141   -8751.3129   -863.25203     102002.7      46.7237      46.7237      46.7237 
  465000    128.93335   -9809.7063   -8721.2956   -558.90696     102002.7      46.7237      46.7237      46.7237 
  466000    126.52922   -9853.1697   -8785.0538   -578.25346     102002.7      46.7237      46.7237      46.7237 
  467000    132.34547   -9820.5736   -8703.3589   -865.40774     102002.7      46.7237      46.7237      46.7237 
  468000    129.05503    -9797.478   -8708.0401   -879.58848     102002.7      46.7237      46.7237      46.7237 
  469000    129.14144   -9818.0822   -8727.9148   -965.99575     102002.7      46.7237      46.7237      46.7237 
  470000    132.20676   -9835.5349   -8719.4912   -647.65332     102002.7      46.7237      46.7237      46.7237 
  471000    130.90465   -9800.7201   -8695.6683   -739.95064     102002.7      46.7237      46.7237      46.7237 
  472000    129.71546   -9830.7988   -8735.7857   -797.68187     102002.7      46.7237      46.7237      46.7237 
  473000    131.55736   -9801.5971   -8691.0354   -429.81299     102002.7      46.7237      46.7237      46.7237 
  474000    130.68835   -9821.1145   -8717.8887    -931.1132     102002.7      46.7237      46.7237      46.7237 
  475000    129.99833   -9779.5683   -8682.1674   -958.76545     102002.7      46.7237      46.7237      46.7237 
  476000    126.65905   -9775.6642   -8706.4523   -948.35362     102002.7      46.7237      46.7237      46.7237 
  477000    129.52641   -9799.9139   -8706.4967   -1071.8549     102002.7      46.7237      46.7237      46.7237 
  478000    132.08147   -9811.0807   -8696.0947   -615.84374     102002.7      46.7237      46.7237      46.7237 
  479000    130.49997   -9799.8834   -8698.2478   -659.34483     102002.7      46.7237      46.7237      46.7237 
  480000    127.36578   -9785.3726   -8710.1948   -974.98288     102002.7      46.7237      46.7237      46.7237 
  481000    129.65563   -9816.1096   -8721.6016    -888.8609     102002.7      46.7237      46.7237      46.7237 
  482000    132.71123   -9773.7022   -8653.3999   -791.54114     102002.7      46.7237      46.7237      46.7237 
  483000    130.91094   -9795.6649     -8690.56   -682.54783     102002.7      46.7237      46.7237      46.7237 
  484000    127.56428   -9818.7765    -8741.923   -746.26417     102002.7      46.7237      46.7237      46.7237 
  485000    130.11154    -9795.631   -8697.2744   -1006.0749     102002.7      46.7237      46.7237      46.7237 
  486000    128.17008   -9757.6168   -8675.6493   -824.00853     102002.7      46.7237      46.7237      46.7237 
  487000    131.13209   -9816.5251   -8709.5533   -936.53949     102002.7      46.7237      46.7237      46.7237 
  488000    128.74545   -9780.5042   -8693.6797   -1028.2178     102002.7      46.7237      46.7237      46.7237 
  489000    130.54666   -9822.7541   -8720.7243   -654.12209     102002.7      46.7237      46.7237      46.7237 
  490000    133.63028   -9773.1678   -8645.1072   -1070.3844     102002.7      46.7237      46.7237      46.7237 
  491000    129.92748   -9802.6133   -8705.8105   -970.33216     102002.7      46.7237      46.7237      46.7237 
  492000    130.27145   -9791.5313   -8691.8248   -904.18242     102002.7      46.7237      46.7237      46.7237 
  493000    127.53067   -9817.6107   -8741.0409   -1123.3603     102002.7      46.7237      46.7237      46.7237 
  494000    129.67798   -9787.0556   -8692.3589   -1020.1613     102002.7      46.7237      46.7237      46.7237 
  495000     133.4036   -9772.9762   -8646.8292   -1000.1138     102002.7      46.7237      46.7237      46.7237 
  496000    132.92147   -9800.0465   -8677.9694   -861.56054     102002.7      46.7237      46.7237      46.7237 
  497000    133.85035   -9756.6804    -8626.762   -981.64209     102002.7      46.7237      46.7237      46.7237 
  498000    132.35913   -9760.9601   -8643.6301   -1115.6644     102002.7      46.7237      46.7237      46.7237 
  499000    131.09003   -9772.3996   -8665.7829   -865.48471     102002.7      46.7237      46.7237      46.7237 
  500000    131.72366   -9775.4824   -8663.5168   -969.14177     102002.7      46.7237      46.7237      46.7237 
  500500    131.54027   -9772.5004   -8662.0829   -873.55407     102002.7      46.7237      46.7237      46.7237 
Loop time of 1666.97 on 16 procs for 500000 steps with 2833 atoms

Performance: 25.915 ns/day, 0.926 hours/ns, 299.945 timesteps/s
99.8% CPU use with 16 MPI tasks x no OpenMP threads

MPI task timing breakdown:
Section |  min time  |  avg time  |  max time  |%varavg| %total
---------------------------------------------------------------
Pair    | 804.54     | 1019.1     | 1189.7     | 392.2 | 61.14
Bond    | 166.74     | 174.59     | 180.95     |  27.6 | 10.47
Neigh   | 14.835     | 14.908     | 14.983     |   1.7 |  0.89
Comm    | 274.58     | 442.27     | 659.68     | 590.9 | 26.53
Output  | 0.020802   | 0.021441   | 0.024795   |   0.6 |  0.00
Modify  | 8.9349     | 9.6428     | 10.338     |  16.2 |  0.58
Other   |            | 6.399      |            |       |  0.38

Nlocal:    177.062 ave 196 max 147 min
Histogram: 1 0 1 1 1 4 2 1 3 2
Nghost:    3619.19 ave 3657 max 3581 min
Histogram: 1 2 1 0 2 5 2 2 0 1
Neighs:    11459.4 ave 15593 max 5933 min
Histogram: 1 1 2 4 0 0 0 3 0 5

Total # of neighbors = 183350
Ave neighs/atom = 64.7194
Ave special neighs/atom = 4.06636
Neighbor list builds = 5183
Dangerous builds = 0
Neighbor list info ...
  update every 1 steps, delay 10 steps, check yes
  max neighbors/atom: 2000, page size: 100000
  master list distance cutoff = 16
  ghost atom cutoff = 16
  binsize = 8, bins = 6 6 6
  3 neighbor lists, perpetual/occasional/extra = 3 0 0
  (1) pair buck6d/coul/gauss/dsf, perpetual, skip from (3)
      attributes: half, newton on
      pair build: skip
      stencil: none
      bin: none
  (2) pair lj/cut, perpetual, skip from (3)
      attributes: half, newton on
      pair build: skip
      stencil: none
      bin: none
  (3) neighbor class addition, perpetual
      attributes: half, newton on
      pair build: half/bin/newton
      stencil: half/bin/3d/newton
      bin: standard
Setting up Verlet run ...
  Unit style    : real
  Current step  : 500500
  Time step     : 1
WARNING: Inconsistent image flags (../domain.cpp:786)
Per MPI rank memory allocation (min/avg/max) = 23.4 | 23.41 | 23.41 Mbytes
Step Time TotEng KinEng PotEng E_mol E_pair Temp Pxx Pyy Pzz Pxy Pxz Pyz Cella Cellb Cellc CellAlpha CellBeta CellGamma Volume Press 
  500500       500000   -8662.0829    1110.4175   -9772.5004    4388.6826   -14161.183    131.54027    -633.6582   -819.01165   -1167.9923    30.030487    118.00469    82.120029      46.7237      46.7237      46.7237           90           90           90     102002.7   -873.55407 
  501000       500500   -8691.5197    1089.2317   -9780.7513    4355.1022   -14135.854     129.0306    -930.5628   -1368.8821   -636.79396   -68.396711    6.4091081    63.022509      46.7237      46.7237      46.7237           90           90           90     102002.7    -978.7463 
  502000       501500   -8680.4889    1097.6059   -9778.0948    4391.8484   -14169.943    130.02261   -940.88293   -886.85397    -1147.603   -173.67274   -38.479423   -299.56924      46.7237      46.7237      46.7237           90           90           90     102002.7   -991.77995 
  503000       502500   -8665.7129    1108.0979   -9773.8108    4405.2435   -14179.054     131.2655   -510.29908   -1296.5936   -886.63714   -32.442689   -167.00522    39.859575      46.7237      46.7237      46.7237           90           90           90     102002.7   -897.84328 
  504000       503500    -8729.306    1086.3658   -9815.6718    4364.2711   -14179.943     128.6911   -793.62471   -628.11299   -1139.0767      62.3368   -136.75496    45.248972      46.7237      46.7237      46.7237           90           90           90     102002.7   -853.60481 
  505000       504500   -8703.6479    1116.7675   -9820.4154     4370.946   -14191.361     132.2925   -1249.2419    -1415.437   -532.86215    29.619541   -48.547596   -38.413024      46.7237      46.7237      46.7237           90           90           90     102002.7    -1065.847 
  506000       505500   -8692.0142    1102.5005   -9794.5146     4399.777   -14194.292    130.60242   -1547.4825   -1188.1542   -1181.9271    88.589562    -149.2696     158.9761      46.7237      46.7237      46.7237           90           90           90     102002.7   -1305.8546 
  507000       506500   -8702.9167    1088.6206   -9791.5373    4393.7936   -14185.331    128.95821   -1206.3681   -1056.7242   -369.24829   -315.04869    194.60757   -3.4508056      46.7237      46.7237      46.7237           90           90           90     102002.7   -877.44687 
  508000       507500   -8676.2692    1095.3509   -9771.6201    4367.0487   -14138.669    129.75549    -671.3244   -899.93616    -1323.327    155.27788   -28.242855    31.105746      46.7237      46.7237      46.7237           90           90           90     102002.7   -964.86253 
  509000       508500     -8691.53    1095.3697   -9786.8997    4367.3895   -14154.289    129.75771   -356.95166   -658.98981   -699.54515    108.59388   -50.394743   -56.156482      46.7237      46.7237      46.7237           90           90           90     102002.7   -571.82887 
  510000       509500   -8673.7958    1120.5329   -9794.3287    4378.7541   -14173.083    132.73855   -910.67643   -688.43492   -733.26833    343.70987     64.91615   -160.51669      46.7237      46.7237      46.7237           90           90           90     102002.7   -777.45989 
  511000       510500   -8714.3401    1078.0615   -9792.4017     4368.482   -14160.884    127.70738   -1136.9404   -919.86875   -1034.7875    247.68979    270.18392   -129.54742      46.7237      46.7237      46.7237           90           90           90     102002.7   -1030.5322 
  512000       511500   -8667.4595    1117.8722   -9785.3317    4391.6598   -14176.991    132.42336   -608.96565   -1176.1832   -537.22971   -260.96973    304.99897    115.50186      46.7237      46.7237      46.7237           90           90           90     102002.7   -774.12618 
  513000       512500   -8701.5824    1106.3334   -9807.9158     4379.807   -14187.723    131.05648   -290.21558    -938.1793   -808.25092   -19.705382   -382.95082    119.06175      46.7237      46.7237      46.7237           90           90           90     102002.7   -678.88194 
  514000       513500   -8700.7226    1084.4757   -9785.1983     4385.024   -14170.222    128.46721   -442.50295   -493.03312   -1323.8541    113.05292    253.68617   -237.95941      46.7237      46.7237      46.7237           90           90           90     102002.7   -753.13006 
  515000       514500   -8650.7707    1100.2567   -9751.0274    4385.9791   -14137.006    130.33663   -742.13633   -1590.6082   -844.91399   -43.615603    80.198045    70.994276      46.7237      46.7237      46.7237           90           90           90     102002.7   -1059.2195 
  516000       515500   -8677.8371    1101.1701   -9779.0072    4387.1716   -14166.179    130.44483    -974.0266   -858.98646   -1152.9662    3.1963549   -75.411949     175.5896      46.7237      46.7237      46.7237           90           90           90     102002.7   -995.32643 
  517000       516500   -8647.3422    1119.6089   -9766.9511    4385.4706   -14152.422    132.62909   -866.40845   -1053.5976   -945.61356   -187.61926   -5.3772852    65.447846      46.7237      46.7237      46.7237           90           90           90     102002.7   -955.20654 
  518000       517500   -8669.4628      1109.74   -9779.2029    4391.1099   -14170.313    131.46002   -980.66076   -1174.2091   -1299.4719    124.76731   -124.38997   -284.23863      46.7237      46.7237      46.7237           90           90           90     102002.7   -1151.4473 
  519000       518500   -8707.2278    1095.8374   -9803.0652     4354.246   -14157.311    129.81311   -839.43253   -1027.5645   -1154.2853   -176.30033   -5.8835786   -74.100913      46.7237      46.7237      46.7237           90           90           90     102002.7   -1007.0941 
  520000       519500   -8731.8083    1081.3083   -9813.1166    4379.8562   -14192.973    128.09199   -915.74913   -1184.0063   -1174.3725    -192.1776   -83.851464    164.51796      46.7237      46.7237      46.7237           90           90           90     102002.7    -1091.376 
  521000       520500   -8701.4223      1071.97   -9773.3924    4420.4538   -14193.846    126.98578   -1366.2832   -1190.0213   -1157.4393    29.064598   -200.93688    142.67415      46.7237      46.7237      46.7237           90           90           90     102002.7   -1237.9146 
  522000       521500   -8735.0387     1088.026   -9823.0648    4355.0211   -14178.086    128.88778   -1257.7371   -654.83925   -913.07923   -256.25403    253.08417    50.484613      46.7237      46.7237      46.7237           90           90           90     102002.7   -941.88519 
  523000       522500    -8699.231    1114.6803   -9813.9113     4386.635   -14200.546    132.04525   -754.68567   -1224.0518   -1242.9561   -77.905703   -32.540958   -173.63453      46.7237      46.7237      46.7237           90           90           90     102002.7   -1073.8979 
  524000       523500   -8731.4237    1066.7053    -9798.129    4389.8819   -14188.011    126.36212   -1294.9147   -1139.5838   -1077.8893   -307.34577   -200.02794   -287.10792      46.7237      46.7237      46.7237           90           90           90     102002.7   -1170.7959 
  525000       524500   -8719.7852    1083.1777   -9802.9629    4374.6114   -14177.574    128.31344   -770.88037   -1540.5856   -1576.7287   -357.79712   -76.119963   -27.291883      46.7237      46.7237      46.7237           90           90           90     102002.7   -1296.0649 
  526000       525500   -8712.3554    1095.1608   -9807.5162    4366.5036    -14174.02    129.73296   -1301.4555   -809.42947   -1019.7706   -214.71983   -391.53873   -27.287463      46.7237      46.7237      46.7237           90           90           90     102002.7   -1043.5519 
  527000       526500   -8736.8423    1077.4912   -9814.3335    4370.6147   -14184.948    127.63982   -428.82525   -736.74373   -649.60293   -275.52511    95.467806    35.388128      46.7237      46.7237      46.7237           90           90           90     102002.7   -605.05731 
  528000       527500    -8685.374    1110.9231   -9796.2971    4389.3032     -14185.6    131.60017   -404.21865   -784.11474   -562.56699   -10.396369    7.0038106   -146.31867      46.7237      46.7237      46.7237           90           90           90     102002.7   -583.63346 
  529000       528500   -8669.9551      1109.59   -9779.5452    4391.7067   -14171.252    131.44226   -363.02919   -772.91065   -1132.2778   -84.299078   -374.26519    140.24392      46.7237      46.7237      46.7237           90           90           90     102002.7   -756.07253 
  530000       529500   -8690.9739    1099.8691    -9790.843    4387.1603   -14178.003    130.29071   -1073.6266   -907.42655    -1501.868   -90.427371     4.483028   -72.162144      46.7237      46.7237      46.7237           90           90           90     102002.7   -1160.9737 
  531000       530500   -8719.3333    1085.8506   -9805.1838    4378.8456   -14184.029    128.63007    -584.7779   -731.34391    -781.0451    62.171298    198.62032   -14.598131      46.7237      46.7237      46.7237           90           90           90     102002.7   -699.05564 
  532000       531500   -8708.2388    1085.1552    -9793.394    4378.8614   -14172.255     128.5477   -392.20753    -794.9777   -423.05074    145.63913   -324.54641    68.628949      46.7237      46.7237      46.7237           90           90           90     102002.7   -536.74532 
  533000       532500   -8675.2383     1113.448   -9788.6863    4353.9118   -14142.598    131.89927   -30.963196   -106.48425   -847.06725    161.50833    30.509015   -255.83693      46.7237      46.7237      46.7237           90           90           90     102002.7   -328.17157 
  534000       533500   -8687.8473    1093.8215   -9781.6688    4405.8606   -14187.529    129.57431   -791.61602   -853.52641   -730.13722    109.48862    460.10333   -88.001131      46.7237      46.7237      46.7237           90           90           90     102002.7   -791.75988 
  535000       534500   -8701.5249    1100.9364   -9802.4613    4374.3074   -14176.769    130.41714   -1322.7301   -509.97472    -1275.252    1.8339078    226.90405    208.85773      46.7237      46.7237      46.7237           90           90           90     102002.7   -1035.9856 
  536000       535500   -8665.4531    1083.4104   -9748.8634    4407.7888   -14156.652    128.34101   -854.28425   -881.78064   -940.53665    -30.35133    -108.9351   -152.62388      46.7237      46.7237      46.7237           90           90           90     102002.7   -892.20051 
  537000       536500   -8688.2723    1094.3086   -9782.5809    4408.9471   -14191.528    129.63201   -1098.3282   -722.43808    -886.4541   -13.248851    -170.4424   -278.47488      46.7237      46.7237      46.7237           90           90           90     102002.7   -902.40681 
  538000       537500   -8715.1894    1083.6005   -9798.7899    4366.6488   -14165.439    128.36352   -1155.3577   -801.83636    -908.2428     73.48808     96.37376    136.74283      46.7237      46.7237      46.7237           90           90           90     102002.7   -955.14564 
  539000       538500   -8740.8098    1049.3994   -9790.2092    4377.5685   -14167.778    124.31206   -243.49557   -928.79447    -1039.107    47.577834    240.60607    229.43853      46.7237      46.7237      46.7237           90           90           90     102002.7   -737.13236 
  540000       539500    -8716.325    1100.0969   -9816.4219    4352.4186    -14168.84    130.31769    -387.9434   -1089.0447   -732.08817    266.31584   -142.02182   -10.859202      46.7237      46.7237      46.7237           90           90           90     102002.7   -736.35876 
  541000       540500   -8668.9876     1120.318   -9789.3057    4403.8694   -14193.175    132.71309   -458.33533   -1013.6737   -1065.5208   -320.53532   -95.840863    12.170285      46.7237      46.7237      46.7237           90           90           90     102002.7   -845.84331 
  542000       541500   -8695.8121     1108.763   -9804.5751    4363.7982   -14168.373    131.34429   -639.48415   -1121.6021   -615.31016   -154.78562    40.520921   -91.048879      46.7237      46.7237      46.7237           90           90           90     102002.7   -792.13214 
  543000       542500   -8726.1123    1102.9983   -9829.1106     4356.099    -14185.21     130.6614   -942.82868   -1101.1459   -1426.5195    10.170556    58.822837   -82.272755      46.7237      46.7237      46.7237           90           90           90     102002.7   -1156.8314 
  544000       543500   -8707.4726    1107.6233   -9815.0958    4339.4978   -14154.594    131.20927   -900.98157   -1323.3952   -993.55432    195.15112    -294.2607    -46.50014      46.7237      46.7237      46.7237           90           90           90     102002.7   -1072.6437 
  545000       544500   -8713.9187    1084.0244   -9797.9431    4372.6829   -14170.626    128.41374   -828.24108   -157.36613   -1079.2287   -42.161211   -251.21466    19.891611      46.7237      46.7237      46.7237           90           90           90     102002.7   -688.27864 
  546000       545500   -8677.4782    1090.5844   -9768.0626    4357.7647   -14125.827    129.19084     -694.853   -414.48761   -753.50066     128.4882   -15.996208    98.771817      46.7237      46.7237      46.7237           90           90           90     102002.7   -620.94709 
  547000       546500   -8701.8571    1097.9616   -9799.8187    4371.1481   -14170.967    130.06474   -758.97724   -947.67451   -937.43318   -145.94741   -38.047823   -120.46737      46.7237      46.7237      46.7237           90           90           90     102002.7   -881.36164 
  548000       547500   -8762.2309    1077.4245   -9839.6554    4356.8187   -14196.474    127.63192   -482.62722   -845.08548   -942.66846   -11.154704   -71.587464     252.2362      46.7237      46.7237      46.7237           90           90           90     102002.7   -756.79372 
  549000       548500   -8679.7013    1106.7557   -9786.4569    4364.5635    -14151.02    131.10649   -689.21318   -971.74464   -988.08655   -184.45502   -78.483619    1.1911671      46.7237      46.7237      46.7237           90           90           90     102002.7   -883.01479 
  550000       549500   -8736.7085    1071.9401   -9808.6487    4364.6182   -14173.267    126.98224   -473.14873   -644.52851   -794.23743   -165.14227     -201.133   -65.789073      46.7237      46.7237      46.7237           90           90           90     102002.7   -637.30489 
  551000       550500   -8742.9646    1102.9943   -9845.9589    4344.1074   -14190.066    130.66092   -531.96333   -1338.7563   -1203.3134    125.39164    21.625393   -270.13291      46.7237      46.7237      46.7237           90           90           90     102002.7   -1024.6777 
  552000       551500   -8688.7946    1098.1393   -9786.9339      4382.37   -14169.304     130.0858   -1206.1828   -992.00368   -1240.6175    162.15603   -73.023344   -16.324855      46.7237      46.7237      46.7237           90           90           90     102002.7    -1146.268 
  553000       552500   -8654.2589     1128.972   -9783.2309      4383.42   -14166.651    133.73825   -658.82365   -1062.6876   -1170.1359    25.325093   -196.24675   -173.72666      46.7237      46.7237      46.7237           90           90           90     102002.7   -963.88236 
  554000       553500   -8688.5935    1110.4716   -9799.0651    4381.2126   -14180.278    131.54669   -1538.5167   -1052.8637   -806.18712    4.8240553    103.67874   -69.776229      46.7237      46.7237      46.7237           90           90           90     102002.7   -1132.5225 
  555000       554500   -8681.8896    1111.0352   -9792.9247    4371.5546   -14164.479    131.61344   -1102.2839   -880.95606   -964.09002   -25.502186   -156.36309    91.306601      46.7237      46.7237      46.7237           90           90           90     102002.7   -982.44333 
[...]
  936000       935500   -8665.6561    1120.7585   -9786.4146    4368.3871   -14154.802    132.76527   -804.82654   -364.56506   -1336.2388    129.79669    70.219005    153.05219      46.7237      46.7237      46.7237           90           90           90     102002.7   -835.21015 
  937000       936500   -8683.4202    1093.4234   -9776.8436    4384.5938   -14161.437    129.52715   -633.45752    -968.5252   -688.97837    180.69486   -11.996663    -121.7892      46.7237      46.7237      46.7237           90           90           90     102002.7    -763.6537 
  938000       937500   -8684.3187    1108.3153    -9792.634    4397.0277   -14189.662    131.29125   -502.70461   -986.64297   -988.93296    20.094767    18.114758   -128.25963      46.7237      46.7237      46.7237           90           90           90     102002.7   -826.09351 
  939000       938500   -8689.0174    1106.1433   -9795.1607    4403.3805   -14198.541    131.03396   -139.52744   -1235.4999   -1243.6236     240.4177    44.588815   -71.305712      46.7237      46.7237      46.7237           90           90           90     102002.7   -872.88365 
  940000       939500   -8701.5515    1104.8048   -9806.3564    4367.3107   -14173.667     130.8754   -279.21164   -849.03685    -723.1784   0.12646869    2.9289549   -71.462913      46.7237      46.7237      46.7237           90           90           90     102002.7    -617.1423 
  941000       940500    -8696.265    1106.0617   -9802.3267    4369.6654   -14171.992    131.02429   -1362.6938   -887.97371    -421.2116    70.173292    124.06747    314.28351      46.7237      46.7237      46.7237           90           90           90     102002.7   -890.62637 
  942000       941500   -8759.5152    1052.0831   -9811.5983     4353.406   -14165.004    124.62998   -1135.7983   -785.61964   -913.23619   -60.641681   -185.23398    7.9095402      46.7237      46.7237      46.7237           90           90           90     102002.7   -944.88471 
  943000       942500   -8733.9205    1070.2171   -9804.1377    4372.7172   -14176.855    126.77813   -403.19006   -831.07513   -852.15934    108.43836   -164.85859    6.7686716      46.7237      46.7237      46.7237           90           90           90     102002.7   -695.47484 
  944000       943500   -8724.6772    1082.2703   -9806.9475    4378.0723    -14185.02    128.20595   -865.34331   -1185.6063   -990.01716    234.86573    90.134653    118.08613      46.7237      46.7237      46.7237           90           90           90     102002.7   -1013.6556 
  945000       944500   -8647.4737    1120.9011   -9768.3749    4406.8112   -14175.186    132.78217   -551.36926   -1425.2291   -857.34963   -222.92798    325.72771    171.29355      46.7237      46.7237      46.7237           90           90           90     102002.7   -944.64933 
  946000       945500   -8676.5909    1104.7289   -9781.3198    4403.5238   -14184.844     130.8664   -597.15146   -975.25386   -1153.2834   -50.726149   -44.229882    242.50096      46.7237      46.7237      46.7237           90           90           90     102002.7    -908.5629 
  947000       946500   -8731.4062    1088.7112   -9820.1174    4334.9183   -14155.036    128.96894   -740.14459   -424.27499   -752.72452    89.645284    41.639886    200.27674      46.7237      46.7237      46.7237           90           90           90     102002.7   -639.04803 
  948000       947500   -8667.3294    1113.0705   -9780.3999    4366.6653   -14147.065    131.85455   -1003.9733    -658.9345   -639.31234   -93.739171   -36.079257   -80.514791      46.7237      46.7237      46.7237           90           90           90     102002.7    -767.4067 
  949000       948500    -8727.857      1098.26    -9826.117     4353.514   -14179.631    130.10009   -949.67973   -1125.5919   -719.12075     439.0275    226.90337   -81.443473      46.7237      46.7237      46.7237           90           90           90     102002.7   -931.46412 
  950000       949500    -8704.797    1110.5762   -9815.3732    4367.5296   -14182.903    131.55907   -692.59248   -315.96547   -831.32009    10.413493    74.146292   -149.93721      46.7237      46.7237      46.7237           90           90           90     102002.7   -613.29268 
  951000       950500   -8707.4247    1095.3232   -9802.7478     4364.941   -14167.689     129.7522    -1050.893   -915.47235   -1312.1735    82.619793   -56.879976   -157.84142      46.7237      46.7237      46.7237           90           90           90     102002.7   -1092.8463 
  952000       951500   -8697.2111    1070.9637   -9768.1748    4385.9504   -14154.125    126.86657    -943.6423   -713.51214   -273.81802   -9.3420486   -118.73928   -82.612248      46.7237      46.7237      46.7237           90           90           90     102002.7   -643.65749 
  953000       952500    -8669.946    1098.3641   -9768.3102    4420.6571   -14188.967    130.11243   -490.28203   -474.11709   -794.32957   -237.65759   -95.054642   -205.11361      46.7237      46.7237      46.7237           90           90           90     102002.7    -586.2429 
  954000       953500   -8700.5704    1119.9658   -9820.5362    4358.1214   -14178.658    132.67137   -519.96539   -1090.0011   -874.15541    17.080263     14.53723   -109.52005      46.7237      46.7237      46.7237           90           90           90     102002.7   -828.04062 
  955000       954500   -8681.3246    1113.4084   -9794.7331    4399.1893   -14193.922    131.89458   -606.40241   -748.62132   -1389.5955    3.8543642    144.25573    168.70252      46.7237      46.7237      46.7237           90           90           90     102002.7   -914.87309 
  956000       955500   -8720.6023    1081.2469   -9801.8492    4372.1599   -14174.009    128.08472   -853.92671    -1175.857   -784.95641    93.206369   -147.82628   -18.009727      46.7237      46.7237      46.7237           90           90           90     102002.7   -938.24672 
  957000       956500   -8672.7833    1126.3859   -9799.1692    4371.6373   -14170.807     133.4319   -823.06363   -921.31407   -1223.3767   -71.852966    34.204255   -38.662312      46.7237      46.7237      46.7237           90           90           90     102002.7   -989.25148 
  958000       957500    -8737.264    1096.0158   -9833.2798    4342.9346   -14176.214    129.83425   -1500.0504   -903.83025   -775.76415    -107.2517     -15.8007    11.384928      46.7237      46.7237      46.7237           90           90           90     102002.7   -1059.8816 
  959000       958500   -8689.2979    1105.1078   -9794.4058    4383.1239    -14177.53    130.91129   -1220.9841   -241.40838    -1033.999    178.47493   -226.31937     97.37082      46.7237      46.7237      46.7237           90           90           90     102002.7   -832.13051 
  960000       959500   -8696.4631    1107.4372   -9803.9003    4373.6601    -14177.56    131.18723   -309.56357   -1172.2374   -695.18284   -161.12604    119.67277   -147.96447      46.7237      46.7237      46.7237           90           90           90     102002.7   -725.66128 
  961000       960500   -8757.6682    1081.6189   -9839.2871    4353.2334    -14192.52    128.12879   -765.98234   -533.36302   -513.65943   -45.221278   -96.337321   -278.28021      46.7237      46.7237      46.7237           90           90           90     102002.7   -604.33493 
  962000       961500   -8689.8749    1109.7422   -9799.6171    4352.7367   -14152.354    131.46028   -1015.5999   -90.175117    -475.0145    36.815837     37.16503   -369.26037      46.7237      46.7237      46.7237           90           90           90     102002.7   -526.92984 
  963000       962500   -8716.7139    1098.7989   -9815.5128    4345.1507   -14160.664    130.16394   -372.29425    -797.3585   -116.51651   -33.380231    -204.6806   -31.277469      46.7237      46.7237      46.7237           90           90           90     102002.7   -428.72309 
  964000       963500   -8708.1307    1101.4988   -9809.6296    4357.2816   -14166.911    130.48377   -672.76493   -503.02329   -756.44141   -2.7885846    22.267929   -131.81144      46.7237      46.7237      46.7237           90           90           90     102002.7   -644.07654 
  965000       964500   -8729.6356    1100.6174    -9830.253    4358.6437   -14188.897    130.37935   -1025.3688    -494.8027   -458.65998   -149.56979    -34.78822    112.32261      46.7237      46.7237      46.7237           90           90           90     102002.7   -659.61049 
  966000       965500   -8719.9656    1092.5175   -9812.4831    4369.8625   -14182.346    129.41983   -1164.9524   -917.06469   -892.04088    144.57196    163.49981   -365.91219      46.7237      46.7237      46.7237           90           90           90     102002.7   -991.35266 
  967000       966500   -8695.1996     1127.686   -9822.8856    4378.9972   -14201.883     133.5859   -770.88109     108.7801   -926.15685    -72.23657   -113.81727   -51.847109      46.7237      46.7237      46.7237           90           90           90     102002.7   -529.41928 
  968000       967500   -8765.3178    1046.2816   -9811.5994     4361.268   -14172.867    123.94272   -271.83659   -1298.8936   -531.42627    110.58365   -409.36883   -75.518078      46.7237      46.7237      46.7237           90           90           90     102002.7   -700.71883 
  969000       968500    -8725.252    1100.2468   -9825.4987    4390.0781   -14215.577    130.33545   -721.86535   -1076.1475   -1017.7634    75.645085   -68.881699     67.95602      46.7237      46.7237      46.7237           90           90           90     102002.7   -938.59209 
  970000       969500   -8750.5948     1086.926   -9837.5207    4351.8275   -14189.348    128.75747   -1002.4688   -623.71397   -1027.5372    -319.0438   -134.82221    34.646975      46.7237      46.7237      46.7237           90           90           90     102002.7   -884.57333 
  971000       970500   -8691.2462    1089.9913   -9781.2375    4372.3072   -14153.545    129.12058   -1211.8013   -1135.4374    -966.2733   -224.29554    396.99862      233.045      46.7237      46.7237      46.7237           90           90           90     102002.7    -1104.504 
  972000       971500   -8694.5166    1111.7537   -9806.2702    4381.2828   -14187.553    131.69856   -1123.0299   -609.54491   -1181.0852   -42.964354   -8.8109556    11.543218      46.7237      46.7237      46.7237           90           90           90     102002.7   -971.21999 
  973000       972500   -8686.0351     1103.074   -9789.1092    4412.5943   -14201.703    130.67037   -505.10331   -1084.3289   -881.96663    108.15551   -54.779685    108.85551      46.7237      46.7237      46.7237           90           90           90     102002.7   -823.79962 
  974000       973500   -8722.1545    1105.6736   -9827.8281    4366.2636   -14194.092    130.97831    -516.5934   -1212.4326   -706.89562    2.1595697     30.39358    184.24454      46.7237      46.7237      46.7237           90           90           90     102002.7   -811.97386 
  975000       974500   -8716.8064    1091.9739   -9808.7803    4390.2246   -14199.005    129.35545   -573.51284   -348.15688   -1045.3973   -90.355051   -115.54093     94.45194      46.7237      46.7237      46.7237           90           90           90     102002.7   -655.68899 
  976000       975500   -8694.2237    1108.6341   -9802.8579     4381.738   -14184.596    131.32902   -745.23633   -757.09986   -897.53281    411.16831   -71.701362    168.51071      46.7237      46.7237      46.7237           90           90           90     102002.7   -799.95633 
  977000       976500   -8694.3759    1092.9277   -9787.3036    4399.9017   -14187.205    129.46843   -860.69622   -1327.7912   -865.51159   -178.13023   -129.26394    176.49043      46.7237      46.7237      46.7237           90           90           90     102002.7   -1017.9997 
  978000       977500   -8715.9315    1085.5696    -9801.501    4388.7368   -14190.238    128.59678   -658.61914   -1077.6564   -1209.2822   -30.428216    39.647065   -1.9456116      46.7237      46.7237      46.7237           90           90           90     102002.7   -981.85257 
  979000       978500   -8707.3882    1096.5383   -9803.9265    4383.9605   -14187.887    129.89614   -1100.3193   -1326.2881   -1221.7903    225.07305    -144.3152   -104.81435      46.7237      46.7237      46.7237           90           90           90     102002.7   -1216.1326 
  980000       979500    -8672.835    1129.8317   -9802.6667    4364.7004   -14167.367    133.84008   -994.40636   -1419.7634   -953.48116   -135.87472    19.434285   -222.85555      46.7237      46.7237      46.7237           90           90           90     102002.7   -1122.5503 
  981000       980500   -8691.2909     1119.699   -9810.9899    4350.6694   -14161.659    132.63977    -630.6646   -1150.0176   -578.25519     122.9047   -135.79602    54.899798      46.7237      46.7237      46.7237           90           90           90     102002.7   -786.31245 
  982000       981500   -8687.2559    1134.8686   -9822.1245    4375.6417   -14197.766    134.43675   -816.19564   -915.22559   -925.44492    86.360535    29.553333    236.19025      46.7237      46.7237      46.7237           90           90           90     102002.7   -885.62205 
  983000       982500   -8689.9252    1114.6336   -9804.5589    4357.0721   -14161.631    132.03972   -98.955924   -1097.3998   -829.43595    -154.7408    134.87039    132.76798      46.7237      46.7237      46.7237           90           90           90     102002.7   -675.26388 
  984000       983500   -8703.6038    1102.4811   -9806.0849    4353.3847    -14159.47    130.60012   -938.96983   -660.31703   -221.43985    -334.7741      153.208    134.42443      46.7237      46.7237      46.7237           90           90           90     102002.7    -606.9089 
  985000       984500   -8718.0338    1101.1827   -9819.2165    4345.0466   -14164.263    130.44632   -380.56694   -1111.0135   -1096.8644   -187.30165   -179.25254    253.54932      46.7237      46.7237      46.7237           90           90           90     102002.7   -862.81494 
  986000       985500    -8716.999     1096.718    -9813.717    4352.2902   -14166.007    129.91743    -529.6895   -1064.1608   -668.50416    47.763372        12.18    132.41238      46.7237      46.7237      46.7237           90           90           90     102002.7   -754.11814 
  987000       986500   -8691.7914    1101.0841   -9792.8754    4367.7768   -14160.652    130.43463   -878.46737   -773.63337   -923.34664      58.3675    32.727894    81.813239      46.7237      46.7237      46.7237           90           90           90     102002.7   -858.48246 
  988000       987500   -8689.4962    1106.6084   -9796.1046    4369.0228   -14165.127    131.08905   -484.61226    -1343.727    -1454.199    25.724853    166.74401   -40.614701      46.7237      46.7237      46.7237           90           90           90     102002.7   -1094.1794 
  989000       988500   -8707.5805    1119.4048   -9826.9852    4374.6487   -14201.634    132.60491   -1042.2981   -1099.4794   -919.32837    -57.36877    -320.0869    30.602502      46.7237      46.7237      46.7237           90           90           90     102002.7   -1020.3686 
  990000       989500   -8705.5172    1092.9256   -9798.4428    4344.4932   -14142.936    129.46818   -1090.8956   -1227.7898    -266.3515   -46.087083    -149.4436   -85.668371      46.7237      46.7237      46.7237           90           90           90     102002.7   -861.67899 
  991000       990500   -8666.1913    1113.4423   -9779.6336    4374.3676   -14154.001     131.8986   -255.36327   -1302.7924   -497.14301    54.819688    244.62474    333.85691      46.7237      46.7237      46.7237           90           90           90     102002.7   -685.09955 
  992000       991500   -8734.9194    1085.6012   -9820.5205    4347.0308   -14167.551    128.60053    -1153.214   -1045.8001   -751.26913    113.69833   -116.54646   -20.062803      46.7237      46.7237      46.7237           90           90           90     102002.7   -983.42772 
  993000       992500    -8725.664    1089.3018   -9814.9659     4348.342   -14163.308    129.03891   -1088.2603   -838.64258   -827.80458    141.92633    86.693203     29.91159      46.7237      46.7237      46.7237           90           90           90     102002.7   -918.23583 
  994000       993500   -8727.8724    1104.4307   -9832.3031    4361.2842   -14193.587    130.83108   -833.77632   -1032.3017   -1132.1522    115.61461    65.302151       -39.13      46.7237      46.7237      46.7237           90           90           90     102002.7   -999.41005 
  995000       994500   -8670.0077    1120.5579   -9790.5655    4385.7913   -14176.357     132.7415   -873.63563   -595.54792   -671.14196    -48.89839   -425.60065   -294.33454      46.7237      46.7237      46.7237           90           90           90     102002.7   -713.44184 
  996000       995500   -8702.8831    1099.5542   -9802.4373    4382.7245   -14185.162    130.25341   -1248.3611   -793.70539   -954.82444   -298.72544    2.8592805   -91.374775      46.7237      46.7237      46.7237           90           90           90     102002.7   -998.96364 
  997000       996500   -8739.6204    1078.4532   -9818.0737    4339.3646   -14157.438    127.75378   -741.25722   -976.76537   -925.54241   -28.059169    219.33697     132.2594      46.7237      46.7237      46.7237           90           90           90     102002.7   -881.18833 
  998000       997500   -8717.0864    1086.2715   -9803.3579    4340.2281   -14143.586    128.67993   -433.53996   -879.35602   -679.39301    4.8500422   -18.097693   -75.985019      46.7237      46.7237      46.7237           90           90           90     102002.7   -664.09633 
  999000       998500   -8716.1485    1071.6326   -9787.7811    4372.6781   -14160.459    126.94581   -1069.6353   -983.87382   -683.40536    12.868737    380.14151   -221.18919      46.7237      46.7237      46.7237           90           90           90     102002.7   -912.30482 
 1000000       999500      -8679.8    1092.1494   -9771.9495    4389.6472   -14161.597    129.37624   -1228.8524   -1039.9226   -770.59162   -228.28808    -42.55178     216.4577      46.7237      46.7237      46.7237           90           90           90     102002.7   -1013.1222 
 1000500      1000000   -8703.2012    1100.9582   -9804.1595    4357.9117   -14162.071    130.41973   -676.25261   -691.69544   -584.59935   -308.94139    156.66119    110.81939      46.7237      46.7237      46.7237           90           90           90     102002.7   -650.84913 
Loop time of 2120.36 on 16 procs for 500000 steps with 2833 atoms

Performance: 20.374 ns/day, 1.178 hours/ns, 235.809 timesteps/s
99.8% CPU use with 16 MPI tasks x no OpenMP threads

MPI task timing breakdown:
Section |  min time  |  avg time  |  max time  |%varavg| %total
---------------------------------------------------------------
Pair    | 809.97     | 1252.6     | 1663.1     | 962.5 | 59.07
Bond    | 120.24     | 183.21     | 243.94     | 392.9 |  8.64
Neigh   | 15.157     | 15.242     | 15.32      |   1.8 |  0.72
Comm    | 167.23     | 636.95     | 1136.7     |1553.6 | 30.04
Output  | 0.12402    | 0.13056    | 0.13115    |   0.5 |  0.01
Modify  | 24.114     | 25.437     | 26.726     |  17.6 |  1.20
Other   |            | 6.838      |            |       |  0.32

Nlocal:    177.062 ave 221 max 128 min
Histogram: 2 2 0 1 2 2 2 1 1 3
Nghost:    3582.44 ave 3635 max 3528 min
Histogram: 1 2 1 1 3 3 1 1 1 2
Neighs:    11457.1 ave 18837 max 3831 min
Histogram: 2 2 3 1 0 1 0 2 2 3

Total # of neighbors = 183313
Ave neighs/atom = 64.7063
Ave special neighs/atom = 4.06636
Neighbor list builds = 5185
Dangerous builds = 0
Total wall time: 1:03:11
