LAMMPS (30 Mar 2018)
Reading data file ...
  orthogonal box = (0 0 0) to (46.7237 46.7237 46.7237)
  2 by 2 by 4 MPI processor grid
  reading atoms ...
  1735 atoms
  scanning bonds ...
  5 = max bonds/atom
  scanning angles ...
  10 = max angles/atom
  scanning dihedrals ...
  32 = max dihedrals/atom
  scanning impropers ...
  3 = max impropers/atom
  reading bonds ...
  2064 bonds
  reading angles ...
  3696 angles
  reading dihedrals ...
  6240 dihedrals
  reading impropers ...
  1008 impropers
Finding 1-2 1-3 1-4 neighbors ...
  special bond factors lj:   0          0          0         
  special bond factors coul: 0          0          0         
  5 = max # of 1-2 neighbors
  8 = max # of 1-3 neighbors
  20 = max # of 1-4 neighbors
  19 = max # of special neighbors
Finding 1-2 1-3 1-4 neighbors ...
  special bond factors lj:   0          0          1         
  special bond factors coul: 1          1          1         
  5 = max # of 1-2 neighbors
  8 = max # of 1-3 neighbors
  19 = max # of special neighbors
WARNING: Using 'neigh_modify every 1 delay 0 check yes' setting during minimization (../min.cpp:168)
Neighbor list info ...
  update every 1 steps, delay 0 steps, check yes
  max neighbors/atom: 2000, page size: 100000
  master list distance cutoff = 16
  ghost atom cutoff = 16
  binsize = 8, bins = 6 6 6
  3 neighbor lists, perpetual/occasional/extra = 3 0 0
  (1) pair buck6d/coul/gauss/dsf, perpetual, skip from (3)
      attributes: half, newton on
      pair build: skip
      stencil: none
      bin: none
  (2) pair lj/cut, perpetual, skip from (3)
      attributes: half, newton on
      pair build: skip
      stencil: none
      bin: none
  (3) neighbor class addition, perpetual
      attributes: half, newton on
      pair build: half/bin/newton
      stencil: half/bin/3d/newton
      bin: standard
Setting up cg style minimization ...
  Unit style    : real
  Current step  : 0
WARNING: Inconsistent image flags (../domain.cpp:786)
Per MPI rank memory allocation (min/avg/max) = 22.89 | 23.35 | 23.79 Mbytes
Step Temp E_pair E_mol TotEng Press 
       0            0   -11533.559    6482.8914   -5050.6677     6282.455 
     506            0   -11564.139    3743.9398   -7820.1995   -513.38871 
Loop time of 2.77399 on 16 procs for 506 steps with 1735 atoms

99.8% CPU use with 16 MPI tasks x no OpenMP threads

Minimization stats:
  Stopping criterion = max force evaluations
  Energy initial, next-to-last, final = 
        -5050.66770778     -7820.18764766     -7820.19947343
  Force two-norm initial, final = 2576.97 5.06545
  Force max component initial, final = 151.994 0.471868
  Final line search alpha, max atom move = 0.00906939 0.00427956
  Iterations, force evaluations = 506 1000

MPI task timing breakdown:
Section |  min time  |  avg time  |  max time  |%varavg| %total
---------------------------------------------------------------
Pair    | 1.231      | 1.5649     | 1.9198     |  16.3 | 56.41
Bond    | 0.31348    | 0.35999    | 0.41445    |   5.0 | 12.98
Neigh   | 0.016076   | 0.016138   | 0.016218   |   0.0 |  0.58
Comm    | 0.41852    | 0.79341    | 1.1297     |  22.0 | 28.60
Output  | 0          | 0          | 0          |   0.0 |  0.00
Modify  | 0          | 0          | 0          |   0.0 |  0.00
Other   |            | 0.0396     |            |       |  1.43

Nlocal:    108.438 ave 121 max 99 min
Histogram: 2 3 2 0 2 2 2 2 0 1
Nghost:    2190.31 ave 2200 max 2177 min
Histogram: 1 0 2 2 3 1 0 3 1 3
Neighs:    11432.1 ave 15285 max 7374 min
Histogram: 1 3 2 1 1 1 1 1 3 2

Total # of neighbors = 182914
Ave neighs/atom = 105.426
Ave special neighs/atom = 6.63977
Neighbor list builds = 14
Dangerous builds = 0
Neighbor list info ...
  update every 1 steps, delay 10 steps, check yes
  max neighbors/atom: 2000, page size: 100000
  master list distance cutoff = 16
  ghost atom cutoff = 16
  binsize = 8, bins = 6 6 6
  3 neighbor lists, perpetual/occasional/extra = 3 0 0
  (1) pair buck6d/coul/gauss/dsf, perpetual, skip from (3)
      attributes: half, newton on
      pair build: skip
      stencil: none
      bin: none
  (2) pair lj/cut, perpetual, skip from (3)
      attributes: half, newton on
      pair build: skip
      stencil: none
      bin: none
  (3) neighbor class addition, perpetual
      attributes: half, newton on
      pair build: half/bin/newton
      stencil: half/bin/3d/newton
      bin: standard
Setting up Verlet run ...
  Unit style    : real
  Current step  : 506
  Time step     : 1
WARNING: Inconsistent image flags (../domain.cpp:786)
Per MPI rank memory allocation (min/avg/max) = 22.54 | 22.63 | 22.73 Mbytes
Step Temp PotEng TotEng Press Volume Lx Ly Lz 
     506           91   -7820.1995   -7349.8455   -302.60067     102002.7      46.7237      46.7237      46.7237 
    1000    77.480922   -7388.0371   -6987.5595   -692.32796     102002.7      46.7237      46.7237      46.7237 
    2000    87.046206   -7307.4047   -6857.4869   -698.51725     102002.7      46.7237      46.7237      46.7237 
    3000    88.756132   -7335.6566   -6876.9006   -1039.9029     102002.7      46.7237      46.7237      46.7237 
    4000    92.310238    -7357.624   -6880.4978   -663.11263     102002.7      46.7237      46.7237      46.7237 
    5000     91.85061   -7332.6381   -6857.8876   -745.91532     102002.7      46.7237      46.7237      46.7237 
    6000    88.832496   -7363.3374   -6904.1867   -580.59768     102002.7      46.7237      46.7237      46.7237 
    7000    92.796657   -7337.5114    -6857.871   -558.70466     102002.7      46.7237      46.7237      46.7237 
    8000    91.646117   -7340.0346   -6866.3411   -817.78291     102002.7      46.7237      46.7237      46.7237 
    9000    90.415806   -7354.1887   -6886.8543    -654.3808     102002.7      46.7237      46.7237      46.7237 
   10000    93.752327   -7342.4356   -6857.8556    -627.8752     102002.7      46.7237      46.7237      46.7237 
   11000    90.601819   -7353.6053   -6885.3095   -672.96033     102002.7      46.7237      46.7237      46.7237 
   12000    93.146889   -7322.3274   -6840.8768   -506.83767     102002.7      46.7237      46.7237      46.7237 
   13000    89.193858   -7333.7291   -6872.7106   -660.58687     102002.7      46.7237      46.7237      46.7237 
   14000    90.841821   -7355.2576   -6885.7212   -693.57323     102002.7      46.7237      46.7237      46.7237 
   15000    90.854152   -7337.3897   -6867.7896   -521.65172     102002.7      46.7237      46.7237      46.7237 
   16000    91.443154   -7334.6036   -6861.9592   -588.56317     102002.7      46.7237      46.7237      46.7237 
   17000    93.282534   -7348.0007    -6865.849   -464.00041     102002.7      46.7237      46.7237      46.7237 
   18000    90.954178   -7345.8469   -6875.7298   -411.65675     102002.7      46.7237      46.7237      46.7237 
   19000     91.39852   -7347.9266   -6875.5128   -608.71376     102002.7      46.7237      46.7237      46.7237 
   20000    89.766811   -7333.5443   -6869.5644   -687.69242     102002.7      46.7237      46.7237      46.7237 
   21000    86.678797   -7354.2553   -6906.2365   -705.52189     102002.7      46.7237      46.7237      46.7237 
   22000    93.414306   -7354.2562   -6871.4234   -752.21784     102002.7      46.7237      46.7237      46.7237 
   23000    90.954763   -7358.0619   -6887.9418   -457.92365     102002.7      46.7237      46.7237      46.7237 
   24000    90.808874   -7326.8427   -6857.4766   -869.29561     102002.7      46.7237      46.7237      46.7237 
   25000    90.103074   -7340.2623   -6874.5443   -705.91504     102002.7      46.7237      46.7237      46.7237 
   26000    93.420174   -7326.5481    -6843.685   -615.72716     102002.7      46.7237      46.7237      46.7237 
   27000    92.239861    -7340.331   -6863.5685   -883.22185     102002.7      46.7237      46.7237      46.7237 
   28000    90.359598   -7339.9584   -6872.9146   -692.22363     102002.7      46.7237      46.7237      46.7237 
   29000    90.279026   -7319.3894    -6852.762   -857.04463     102002.7      46.7237      46.7237      46.7237 
   30000     91.85078   -7348.5186   -6873.7672   -741.49779     102002.7      46.7237      46.7237      46.7237 
   31000    90.875508   -7336.5184   -6866.8079   -677.74314     102002.7      46.7237      46.7237      46.7237 
   32000    90.675833   -7334.2392   -6865.5608   -679.40803     102002.7      46.7237      46.7237      46.7237 
   33000    90.421709    -7337.854   -6870.4891   -602.51025     102002.7      46.7237      46.7237      46.7237 
   34000     90.68516   -7340.4083   -6871.6817   -733.64118     102002.7      46.7237      46.7237      46.7237 
   35000    92.223592    -7339.295   -6862.6167    -697.9224     102002.7      46.7237      46.7237      46.7237 
   36000    90.206307   -7354.9997   -6888.7481   -601.29948     102002.7      46.7237      46.7237      46.7237 
   37000    91.251078   -7349.3205   -6877.6688   -565.30245     102002.7      46.7237      46.7237      46.7237 
   38000    90.626659   -7335.8578   -6867.4336   -718.80865     102002.7      46.7237      46.7237      46.7237 
   39000    89.273893   -7358.7336   -6897.3015   -617.45324     102002.7      46.7237      46.7237      46.7237 
   40000    91.302444   -7341.2964   -6869.3792   -786.06312     102002.7      46.7237      46.7237      46.7237 
   41000    92.187459   -7360.3811   -6883.8895   -761.85916     102002.7      46.7237      46.7237      46.7237 
   42000    92.449267   -7330.6166   -6852.7718   -702.48091     102002.7      46.7237      46.7237      46.7237 
   43000    93.232043   -7341.7088    -6859.818   -696.29004     102002.7      46.7237      46.7237      46.7237 
   44000    89.592334   -7338.8592   -6875.7811   -622.95472     102002.7      46.7237      46.7237      46.7237 
   45000    92.285941   -7333.1891   -6856.1885   -801.48288     102002.7      46.7237      46.7237      46.7237 
   46000    89.509339   -7350.3844   -6887.7353   -595.28258     102002.7      46.7237      46.7237      46.7237 
   47000     91.17593   -7333.1296   -6861.8664   -662.74752     102002.7      46.7237      46.7237      46.7237 
   48000    88.796854   -7347.7828   -6888.8164   -449.98407     102002.7      46.7237      46.7237      46.7237 
   49000    91.958068   -7333.6955   -6858.3895   -714.11864     102002.7      46.7237      46.7237      46.7237 
   50000    91.357817   -7339.8576   -6867.6542    -603.5115     102002.7      46.7237      46.7237      46.7237 
   51000    91.898952   -7333.0331   -6858.0327   -675.84889     102002.7      46.7237      46.7237      46.7237 
   52000    90.716839   -7351.4356   -6882.5452   -563.40718     102002.7      46.7237      46.7237      46.7237 
   53000    87.527327   -7342.3409   -6889.9363   -474.90315     102002.7      46.7237      46.7237      46.7237 
   54000    91.334084   -7333.2261   -6861.1454   -347.57366     102002.7      46.7237      46.7237      46.7237 
   55000     91.57329    -7339.824   -6866.5069   -224.77869     102002.7      46.7237      46.7237      46.7237 
   56000    93.393287   -7341.9661   -6859.2419   -500.75525     102002.7      46.7237      46.7237      46.7237 
   57000    88.255334   -7345.8067   -6889.6391   -606.87665     102002.7      46.7237      46.7237      46.7237 
   58000    93.893437   -7332.9557   -6847.6464   -636.92925     102002.7      46.7237      46.7237      46.7237 
   59000     91.05471   -7345.8945   -6875.2578    -786.8794     102002.7      46.7237      46.7237      46.7237 
   60000    88.752375   -7342.6106    -6883.874   -667.11927     102002.7      46.7237      46.7237      46.7237 
   61000    92.751906   -7340.2445   -6860.8354    -467.8846     102002.7      46.7237      46.7237      46.7237 
   62000    90.479283   -7346.5426   -6878.8801   -651.13918     102002.7      46.7237      46.7237      46.7237 
   63000     93.11127   -7334.4308   -6853.1643   -642.93646     102002.7      46.7237      46.7237      46.7237 
   64000    89.605757   -7344.6339   -6881.4864   -471.83487     102002.7      46.7237      46.7237      46.7237 
   65000     92.90378   -7348.7638   -6868.5698   -655.79551     102002.7      46.7237      46.7237      46.7237 
   66000     87.38476   -7353.5468    -6901.879   -624.40205     102002.7      46.7237      46.7237      46.7237 
   67000    89.518346   -7331.7227    -6869.027   -756.23758     102002.7      46.7237      46.7237      46.7237 
   68000    91.123865   -7359.0617   -6888.0676     -803.861     102002.7      46.7237      46.7237      46.7237 
   69000      91.1246   -7333.2237   -6862.2257   -797.64753     102002.7      46.7237      46.7237      46.7237 
   70000    91.513225   -7349.3954   -6876.3887   -529.93047     102002.7      46.7237      46.7237      46.7237 
   71000     89.19761   -7333.6506   -6872.6128   -450.52146     102002.7      46.7237      46.7237      46.7237 
   72000     90.74581      -7322.4   -6853.3599   -519.76756     102002.7      46.7237      46.7237      46.7237 
   73000    90.515727   -7339.9419   -6872.0911   -558.71506     102002.7      46.7237      46.7237      46.7237 
   74000    92.590878   -7339.3548    -6860.778   -638.48919     102002.7      46.7237      46.7237      46.7237 
   75000    93.351915    -7351.518   -6869.0077   -606.03734     102002.7      46.7237      46.7237      46.7237 
   76000    91.811855   -7363.0636   -6888.5134   -778.54464     102002.7      46.7237      46.7237      46.7237 
   77000    89.244659   -7332.7833   -6871.5022   -622.68183     102002.7      46.7237      46.7237      46.7237 
   78000    88.396473   -7344.6142   -6887.7172    -537.8542     102002.7      46.7237      46.7237      46.7237 
   79000    92.749628   -7359.1399   -6879.7426    -690.5407     102002.7      46.7237      46.7237      46.7237 
   80000    91.271687   -7338.9635   -6867.2053   -542.20316     102002.7      46.7237      46.7237      46.7237 
   81000    87.198453   -7347.0869   -6896.3821   -589.29521     102002.7      46.7237      46.7237      46.7237 
   82000    91.543179   -7347.5542   -6874.3927   -539.13856     102002.7      46.7237      46.7237      46.7237 
   83000    91.547877   -7339.1607   -6865.9749   -795.00939     102002.7      46.7237      46.7237      46.7237 
   84000    90.331631   -7351.2345   -6884.3352   -956.34426     102002.7      46.7237      46.7237      46.7237 
   85000    91.329252   -7334.8374   -6862.7817     -669.025     102002.7      46.7237      46.7237      46.7237 
   86000    93.905811   -7341.9262   -6856.5529   -693.95456     102002.7      46.7237      46.7237      46.7237 
   87000    91.249633   -7343.6789   -6872.0347   -612.85924     102002.7      46.7237      46.7237      46.7237 
   88000    94.659885   -7341.8129    -6852.542   -628.37322     102002.7      46.7237      46.7237      46.7237 
   89000    92.794367   -7352.8936   -6873.2651   -697.46949     102002.7      46.7237      46.7237      46.7237 
   90000    91.980524   -7341.6687   -6866.2467    -690.2309     102002.7      46.7237      46.7237      46.7237 
   91000    87.650716   -7343.1698   -6890.1274   -833.00678     102002.7      46.7237      46.7237      46.7237 
   92000    89.697795   -7338.5388   -6874.9156   -651.31673     102002.7      46.7237      46.7237      46.7237 
   93000    94.737598   -7354.3857   -6864.7131   -820.07393     102002.7      46.7237      46.7237      46.7237 
   94000    89.289315   -7337.6357   -6876.1238   -900.92156     102002.7      46.7237      46.7237      46.7237 
   95000    92.177143   -7348.3476   -6871.9093   -837.23192     102002.7      46.7237      46.7237      46.7237 
   96000    90.046686   -7341.7526    -6876.326   -681.40201     102002.7      46.7237      46.7237      46.7237 
   97000     90.35226   -7340.5724   -6873.5665   -768.09796     102002.7      46.7237      46.7237      46.7237 
   98000    91.038572   -7318.0904    -6847.537   -964.26915     102002.7      46.7237      46.7237      46.7237 
   99000    91.135493   -7338.8428   -6867.7885   -680.30809     102002.7      46.7237      46.7237      46.7237 
  100000    93.306013   -7339.0972   -6856.8241   -830.73058     102002.7      46.7237      46.7237      46.7237 
  101000    89.731529   -7358.5585   -6894.7609   -899.57761     102002.7      46.7237      46.7237      46.7237 
  102000    89.473777   -7337.0187   -6874.5534    -811.8009     102002.7      46.7237      46.7237      46.7237 
  103000    91.104698   -7345.1257   -6874.2306   -698.40487     102002.7      46.7237      46.7237      46.7237 
  104000    90.214146   -7342.8093   -6876.5173    -401.7456     102002.7      46.7237      46.7237      46.7237 
  105000    95.807361   -7336.8661   -6841.6642   -593.56023     102002.7      46.7237      46.7237      46.7237 
  106000    89.192941   -7341.5472   -6880.5334   -465.53367     102002.7      46.7237      46.7237      46.7237 
  107000    91.101275   -7349.6342   -6878.7568   -461.11911     102002.7      46.7237      46.7237      46.7237 
  108000    90.919079   -7336.6526   -6866.7169   -568.31925     102002.7      46.7237      46.7237      46.7237 
  109000    88.922265   -7351.8695   -6892.2548   -589.47888     102002.7      46.7237      46.7237      46.7237 
  110000    91.049429   -7338.0359   -6867.4265   -605.90655     102002.7      46.7237      46.7237      46.7237 
  111000    88.102437   -7362.8619   -6907.4847   -263.32174     102002.7      46.7237      46.7237      46.7237 
  112000    93.063652   -7334.3401   -6853.3197   -608.77999     102002.7      46.7237      46.7237      46.7237 
  113000    90.187974   -7360.9776   -6894.8208   -533.87449     102002.7      46.7237      46.7237      46.7237 
  114000    92.855837   -7348.6233    -6868.677   -500.58606     102002.7      46.7237      46.7237      46.7237 
  115000    88.720263   -7358.7052   -6900.1346   -582.18278     102002.7      46.7237      46.7237      46.7237 
  116000    89.893012    -7332.972   -6868.3398   -586.30517     102002.7      46.7237      46.7237      46.7237 
  117000    93.742479   -7350.1017   -6865.5726   -838.87721     102002.7      46.7237      46.7237      46.7237 
  118000    89.213317   -7352.8107   -6891.6916   -593.25304     102002.7      46.7237      46.7237      46.7237 
  119000    92.440954   -7342.6665   -6864.8647    -677.7908     102002.7      46.7237      46.7237      46.7237 
  120000    90.303713   -7332.2874   -6865.5324   -644.51563     102002.7      46.7237      46.7237      46.7237 
  121000    91.556456   -7356.2647   -6883.0346   -773.48455     102002.7      46.7237      46.7237      46.7237 
  122000    90.341741   -7338.7346    -6871.783   -383.92334     102002.7      46.7237      46.7237      46.7237 
  123000    92.352845    -7339.478   -6862.1316   -642.12706     102002.7      46.7237      46.7237      46.7237 
  124000    91.075846   -7357.0005   -6886.2546   -563.29026     102002.7      46.7237      46.7237      46.7237 
  125000     90.26844   -7346.5788   -6880.0061   -455.56018     102002.7      46.7237      46.7237      46.7237 
  126000    90.257215   -7338.8672   -6872.3525   -648.73804     102002.7      46.7237      46.7237      46.7237 
  127000    91.364952   -7353.9023    -6881.662     -737.207     102002.7      46.7237      46.7237      46.7237 
  128000     93.22532   -7349.9891   -6868.1331   -523.46568     102002.7      46.7237      46.7237      46.7237 
  129000     88.23875   -7361.4114   -6905.3296   -755.62004     102002.7      46.7237      46.7237      46.7237 
  130000    92.116418   -7341.1344     -6865.01   -568.51992     102002.7      46.7237      46.7237      46.7237 
  131000    93.872411   -7343.5097   -6858.3091   -551.18675     102002.7      46.7237      46.7237      46.7237 
  132000    90.787577   -7329.6679   -6860.4119   -744.62498     102002.7      46.7237      46.7237      46.7237 
  133000    90.295413   -7334.7816   -6868.0695   -602.78882     102002.7      46.7237      46.7237      46.7237 
  134000     93.84304   -7346.0711   -6861.0223   -719.21763     102002.7      46.7237      46.7237      46.7237 
  135000    91.207395   -7354.4693   -6883.0434   -779.73198     102002.7      46.7237      46.7237      46.7237 
  136000    90.687077   -7328.4642   -6859.7276   -806.35706     102002.7      46.7237      46.7237      46.7237 
  137000    87.698178   -7345.0011   -6891.7134   -497.34874     102002.7      46.7237      46.7237      46.7237 
  138000    89.915914   -7340.1514   -6875.4008    -700.5963     102002.7      46.7237      46.7237      46.7237 
  139000    92.178698     -7323.15   -6846.7037   -724.45282     102002.7      46.7237      46.7237      46.7237 
  140000    91.625391    -7333.605   -6860.0186   -687.33478     102002.7      46.7237      46.7237      46.7237 
  141000    93.307099   -7331.7353   -6849.4566   -834.50083     102002.7      46.7237      46.7237      46.7237 
  142000     89.20216   -7335.3272   -6874.2658   -610.30909     102002.7      46.7237      46.7237      46.7237 
  143000     94.16245   -7330.6287   -6843.9289   -415.40769     102002.7      46.7237      46.7237      46.7237 
  144000    90.346297   -7337.4141    -6870.439   -522.07177     102002.7      46.7237      46.7237      46.7237 
  145000      87.7676   -7330.9709   -6877.3244   -529.83982     102002.7      46.7237      46.7237      46.7237 
  146000    90.968803   -7336.4327     -6866.24    -601.5368     102002.7      46.7237      46.7237      46.7237 
  147000    91.163848   -7350.0534   -6878.8526   -563.56315     102002.7      46.7237      46.7237      46.7237 
  148000     96.30909   -7329.4897   -6831.6945   -489.37612     102002.7      46.7237      46.7237      46.7237 
  149000    89.774678   -7340.1651   -6876.1445   -652.10366     102002.7      46.7237      46.7237      46.7237 
  150000    92.440356   -7326.6745   -6848.8757   -611.87326     102002.7      46.7237      46.7237      46.7237 
  151000    90.341475   -7350.1843   -6883.2341   -669.82771     102002.7      46.7237      46.7237      46.7237 
  152000    91.998076   -7348.5459   -6873.0332   -603.30273     102002.7      46.7237      46.7237      46.7237 
  153000    92.962293   -7346.6018   -6866.1053    -718.4954     102002.7      46.7237      46.7237      46.7237 
  154000    86.538939   -7348.4565   -6901.1606    -863.1536     102002.7      46.7237      46.7237      46.7237 
  155000    90.712381   -7333.2387   -6864.3714   -794.13449     102002.7      46.7237      46.7237      46.7237 
  156000    91.233217   -7341.5283   -6869.9689   -828.31562     102002.7      46.7237      46.7237      46.7237 
  157000    89.666821   -7345.1828   -6881.7196   -744.31642     102002.7      46.7237      46.7237      46.7237 
  158000    89.792003   -7343.4605   -6879.3504     -881.797     102002.7      46.7237      46.7237      46.7237 
  159000    91.407391    -7331.926   -6859.4663   -722.31621     102002.7      46.7237      46.7237      46.7237 
  160000    88.219777   -7348.1795   -6892.1957   -560.39576     102002.7      46.7237      46.7237      46.7237 
  161000    91.144193   -7330.7506   -6859.6513   -742.44064     102002.7      46.7237      46.7237      46.7237 
  162000    91.739594   -7349.0532   -6874.8765   -854.89871     102002.7      46.7237      46.7237      46.7237 
  163000    91.181036   -7352.4089   -6881.1193   -813.59714     102002.7      46.7237      46.7237      46.7237 
  164000    92.236896   -7333.9004   -6857.1533   -591.31084     102002.7      46.7237      46.7237      46.7237 
  165000    92.546198   -7341.4987   -6863.1529   -773.06891     102002.7      46.7237      46.7237      46.7237 
  166000    91.631084   -7345.0577   -6871.4418   -620.75362     102002.7      46.7237      46.7237      46.7237 
  167000    91.775276   -7348.8732    -6874.512   -728.19308     102002.7      46.7237      46.7237      46.7237 
  168000    91.851375   -7337.0606   -6862.3061   -733.91018     102002.7      46.7237      46.7237      46.7237 
  169000    89.858312   -7331.9821   -6867.5293   -988.79812     102002.7      46.7237      46.7237      46.7237 
  170000    91.483916   -7340.3709   -6867.5157   -813.64368     102002.7      46.7237      46.7237      46.7237 
  171000    93.603325    -7354.579   -6870.7692   -735.82973     102002.7      46.7237      46.7237      46.7237 
  172000    95.854035    -7337.058   -6841.6149   -1063.8573     102002.7      46.7237      46.7237      46.7237 
  173000    91.488858   -7359.3953   -6886.5146   -786.33252     102002.7      46.7237      46.7237      46.7237 
  174000    92.150192   -7325.0923   -6848.7933   -961.22222     102002.7      46.7237      46.7237      46.7237 
  175000    91.182834   -7346.2624   -6874.9634   -788.14384     102002.7      46.7237      46.7237      46.7237 
  176000    89.475158   -7356.7164   -6894.2439   -711.93157     102002.7      46.7237      46.7237      46.7237 
  177000    90.513989   -7335.4814   -6867.6395   -835.11216     102002.7      46.7237      46.7237      46.7237 
  178000    90.110326   -7338.1386   -6872.3831   -877.65646     102002.7      46.7237      46.7237      46.7237 
  179000     93.69258   -7352.3035   -6868.0324   -745.21633     102002.7      46.7237      46.7237      46.7237 
  180000    88.802486   -7351.6675   -6892.6719   -957.28535     102002.7      46.7237      46.7237      46.7237 
  181000    87.454212   -7342.1932   -6890.1665   -847.29691     102002.7      46.7237      46.7237      46.7237 
  182000    90.541253   -7334.3636   -6866.3808   -621.53706     102002.7      46.7237      46.7237      46.7237 
  183000    86.968125   -7339.9093    -6890.395   -764.53712     102002.7      46.7237      46.7237      46.7237 
  184000    89.669665   -7346.6213   -6883.1435   -720.80602     102002.7      46.7237      46.7237      46.7237 
  185000    91.198747   -7327.4147   -6856.0335   -537.18295     102002.7      46.7237      46.7237      46.7237 
  186000    88.158884    -7331.837    -6876.168   -725.99197     102002.7      46.7237      46.7237      46.7237 
  187000    91.061878   -7334.8875   -6864.2137   -909.09129     102002.7      46.7237      46.7237      46.7237 
  188000    91.354543   -7355.0632   -6882.8767   -554.98211     102002.7      46.7237      46.7237      46.7237 
  189000     93.46169   -7338.8043   -6855.7265   -571.58498     102002.7      46.7237      46.7237      46.7237 
  190000    85.061837   -7351.8015   -6912.1403   -624.01565     102002.7      46.7237      46.7237      46.7237 
  191000    91.530662   -7338.3625   -6865.2658   -723.65992     102002.7      46.7237      46.7237      46.7237 
  192000    88.938736   -7335.9127   -6876.2128   -544.56208     102002.7      46.7237      46.7237      46.7237 
  193000     92.81342   -7346.9619   -6867.2349   -905.42313     102002.7      46.7237      46.7237      46.7237 
  194000     90.06714   -7345.2872   -6879.7549   -699.63604     102002.7      46.7237      46.7237      46.7237 
  195000    92.335312   -7361.4652   -6884.2094   -598.16317     102002.7      46.7237      46.7237      46.7237 
  196000    90.224851   -7332.0904    -6865.743   -675.79357     102002.7      46.7237      46.7237      46.7237 
  197000    91.136421   -7338.9621    -6867.903   -324.82637     102002.7      46.7237      46.7237      46.7237 
  198000    93.385494   -7347.9512   -6865.2673   -580.11884     102002.7      46.7237      46.7237      46.7237 
  199000    91.456802   -7346.4759   -6873.7609   -557.89004     102002.7      46.7237      46.7237      46.7237 
  200000    92.863864   -7338.7118    -6858.724    -499.7643     102002.7      46.7237      46.7237      46.7237 
  201000     91.14446   -7349.8391   -6878.7385    -616.3603     102002.7      46.7237      46.7237      46.7237 
  202000    91.273878   -7352.3563   -6880.5868   -698.42215     102002.7      46.7237      46.7237      46.7237 
  203000    91.042036   -7342.9516   -6872.3803   -795.46976     102002.7      46.7237      46.7237      46.7237 
  204000    88.860498   -7348.8736   -6889.5781   -836.51701     102002.7      46.7237      46.7237      46.7237 
  205000    91.298817   -7343.0077   -6871.1093   -624.22435     102002.7      46.7237      46.7237      46.7237 
  206000    86.335529     -7336.89   -6890.6454   -720.93087     102002.7      46.7237      46.7237      46.7237 
  207000    93.599938   -7351.4527   -6867.6604   -758.09721     102002.7      46.7237      46.7237      46.7237 
  208000    92.249967   -7340.2704   -6863.4557   -693.50982     102002.7      46.7237      46.7237      46.7237 
  209000    89.833504    -7341.911   -6877.5864   -646.58839     102002.7      46.7237      46.7237      46.7237 
  210000    91.960048   -7339.8943   -6864.5781   -619.89822     102002.7      46.7237      46.7237      46.7237 
  211000    90.959543   -7349.7144   -6879.5696   -607.33389     102002.7      46.7237      46.7237      46.7237 
  212000    91.050656   -7330.3888   -6859.7731   -683.39249     102002.7      46.7237      46.7237      46.7237 
  213000    91.118783   -7344.3444   -6873.3765   -620.71799     102002.7      46.7237      46.7237      46.7237 
  214000    91.464508   -7354.3602   -6881.6054   -643.91139     102002.7      46.7237      46.7237      46.7237 
  215000    90.565611   -7328.6797   -6860.5709   -709.83787     102002.7      46.7237      46.7237      46.7237 
  216000    90.932241   -7344.4677   -6874.4639   -756.91263     102002.7      46.7237      46.7237      46.7237 
  217000    88.907397   -7332.2563   -6872.7185   -1067.9488     102002.7      46.7237      46.7237      46.7237 
  218000    92.423784   -7332.5745   -6854.8614    -690.7211     102002.7      46.7237      46.7237      46.7237 
  219000     92.08098   -7346.9097   -6870.9685   -819.31316     102002.7      46.7237      46.7237      46.7237 
  220000    90.673958   -7350.4521   -6881.7834   -784.87029     102002.7      46.7237      46.7237      46.7237 
  221000    90.526719   -7331.8418   -6863.9341    -551.7142     102002.7      46.7237      46.7237      46.7237 
  222000     93.79786   -7331.0397   -6846.2244   -941.45679     102002.7      46.7237      46.7237      46.7237 
  223000     90.19165   -7348.4761   -6882.3003   -972.76718     102002.7      46.7237      46.7237      46.7237 
  224000    93.057021   -7344.0874   -6863.1013   -641.65312     102002.7      46.7237      46.7237      46.7237 
  225000    90.474028   -7342.2943    -6874.659   -734.67948     102002.7      46.7237      46.7237      46.7237 
  226000    92.590895   -7349.5303   -6870.9535   -846.57671     102002.7      46.7237      46.7237      46.7237 
  227000    90.281046   -7340.2581   -6873.6202   -568.23473     102002.7      46.7237      46.7237      46.7237 
  228000    92.334023   -7335.4253   -6858.1761    -454.9733     102002.7      46.7237      46.7237      46.7237 
  229000    94.362473   -7354.5129   -6866.7793   -610.28345     102002.7      46.7237      46.7237      46.7237 
  230000    90.171665   -7338.1364   -6872.0639   -568.62765     102002.7      46.7237      46.7237      46.7237 
  231000    87.921212   -7355.0305     -6900.59   -721.50278     102002.7      46.7237      46.7237      46.7237 
  232000    92.097925   -7342.4093   -6866.3805   -495.14013     102002.7      46.7237      46.7237      46.7237 
  233000     88.17316   -7352.8841   -6897.1413   -464.73479     102002.7      46.7237      46.7237      46.7237 
  234000    90.516818   -7328.2097   -6860.3532    -656.9931     102002.7      46.7237      46.7237      46.7237 
  235000    88.166635    -7332.304   -6876.5949    -452.9399     102002.7      46.7237      46.7237      46.7237 
  236000    91.398888   -7344.6472   -6872.2316   -904.75257     102002.7      46.7237      46.7237      46.7237 
  237000    92.527747   -7332.4671   -6854.2167   -743.02432     102002.7      46.7237      46.7237      46.7237 
  238000    93.095904   -7334.4829   -6853.2958   -508.23777     102002.7      46.7237      46.7237      46.7237 
  239000    89.496976   -7334.2128   -6871.6275   -687.28053     102002.7      46.7237      46.7237      46.7237 
  240000    90.271923   -7351.1905   -6884.5998   -508.28284     102002.7      46.7237      46.7237      46.7237 
  241000    87.150755   -7327.2929   -6876.8347   -899.80969     102002.7      46.7237      46.7237      46.7237 
  242000    88.503599   -7345.3163   -6887.8656   -640.15631     102002.7      46.7237      46.7237      46.7237 
  243000    91.554906   -7342.9291    -6869.707   -533.86409     102002.7      46.7237      46.7237      46.7237 
  244000    90.358072   -7345.1857   -6878.1497   -618.14459     102002.7      46.7237      46.7237      46.7237 
  245000    88.309657   -7342.6863    -6886.238   -615.06752     102002.7      46.7237      46.7237      46.7237 
  246000    93.983517   -7348.3615   -6862.5866   -805.98931     102002.7      46.7237      46.7237      46.7237 
  247000    88.963366    -7343.594   -6883.7669   -496.33936     102002.7      46.7237      46.7237      46.7237 
  248000    89.946286   -7353.4825   -6888.5749   -707.78293     102002.7      46.7237      46.7237      46.7237 
  249000    93.488715   -7329.0117   -6845.7943   -626.43414     102002.7      46.7237      46.7237      46.7237 
  250000    91.727035   -7361.8102   -6887.6985     -789.224     102002.7      46.7237      46.7237      46.7237 
  251000    90.042815   -7340.2494   -6874.8429   -560.65233     102002.7      46.7237      46.7237      46.7237 
  252000    91.639151   -7343.1464   -6869.4889    -745.1788     102002.7      46.7237      46.7237      46.7237 
  253000    90.962144    -7352.272   -6882.1137    -714.4113     102002.7      46.7237      46.7237      46.7237 
  254000    93.496086   -7342.8035    -6859.548   -723.71456     102002.7      46.7237      46.7237      46.7237 
  255000    92.414372   -7335.2318   -6857.5674   -789.98837     102002.7      46.7237      46.7237      46.7237 
  256000    90.317016   -7334.9417   -6868.1179   -689.20992     102002.7      46.7237      46.7237      46.7237 
  257000    87.824679   -7344.9957   -6891.0541   -1039.5935     102002.7      46.7237      46.7237      46.7237 
  258000    91.176165   -7341.0526   -6869.7882    -861.4535     102002.7      46.7237      46.7237      46.7237 
  259000    91.104672    -7340.041    -6869.146   -888.01117     102002.7      46.7237      46.7237      46.7237 
  260000    89.261886   -7360.8867   -6899.5166   -814.04433     102002.7      46.7237      46.7237      46.7237 
  261000    90.598112   -7333.7062   -6865.4295   -654.38663     102002.7      46.7237      46.7237      46.7237 
  262000    90.220008   -7345.7893   -6879.4669   -575.85004     102002.7      46.7237      46.7237      46.7237 
  263000    93.104553   -7324.2601   -6843.0283   -797.55677     102002.7      46.7237      46.7237      46.7237 
  264000    91.323462   -7340.1578    -6868.132   -842.31761     102002.7      46.7237      46.7237      46.7237 
  265000    91.611277   -7364.8501   -6891.3366   -803.57853     102002.7      46.7237      46.7237      46.7237 
  266000    89.278421   -7324.2001   -6862.7445   -761.63716     102002.7      46.7237      46.7237      46.7237 
  267000    91.632037     -7342.19   -6868.5693   -888.31639     102002.7      46.7237      46.7237      46.7237 
  268000    89.673294   -7351.9263   -6888.4298   -591.62121     102002.7      46.7237      46.7237      46.7237 
  269000    90.649691   -7328.9768   -6860.4335    -613.3688     102002.7      46.7237      46.7237      46.7237 
  270000    88.225243   -7358.8987   -6902.8867   -808.69696     102002.7      46.7237      46.7237      46.7237 
  271000    91.254539   -7338.9894   -6867.3198   -590.92105     102002.7      46.7237      46.7237      46.7237 
  272000    90.343174   -7346.9131   -6879.9541   -943.73457     102002.7      46.7237      46.7237      46.7237 
  273000    93.798685   -7338.3134   -6853.4938   -511.58056     102002.7      46.7237      46.7237      46.7237 
  274000    90.067725    -7340.396   -6874.8607   -942.11134     102002.7      46.7237      46.7237      46.7237 
  275000     88.90909   -7364.7036    -6905.157   -676.82892     102002.7      46.7237      46.7237      46.7237 
  276000    92.161613   -7343.3331   -6866.9751   -855.68441     102002.7      46.7237      46.7237      46.7237 
  277000    90.877436   -7353.4024    -6883.682   -516.02902     102002.7      46.7237      46.7237      46.7237 
  278000    89.749658   -7350.1336   -6886.2424   -647.23342     102002.7      46.7237      46.7237      46.7237 
  279000    90.968676   -7335.9575   -6865.7654   -748.66894     102002.7      46.7237      46.7237      46.7237 
  280000    91.665055   -7347.3012   -6873.5098   -665.97551     102002.7      46.7237      46.7237      46.7237 
  281000    87.765224    -7356.629   -6902.9947   -801.66391     102002.7      46.7237      46.7237      46.7237 
  282000    91.225043   -7338.9337   -6867.4166   -892.24579     102002.7      46.7237      46.7237      46.7237 
  283000    89.101182     -7347.06   -6886.5205   -575.47423     102002.7      46.7237      46.7237      46.7237 
  284000    91.885103   -7335.4993   -6860.5705   -715.03348     102002.7      46.7237      46.7237      46.7237 
  285000    90.618478   -7345.4016   -6877.0196   -729.70583     102002.7      46.7237      46.7237      46.7237 
  286000    88.417811   -7344.1368   -6887.1295    -567.0674     102002.7      46.7237      46.7237      46.7237 
  287000    89.592696    -7332.538    -6869.458   -897.73183     102002.7      46.7237      46.7237      46.7237 
  288000    87.725517   -7360.1897   -6906.7607   -581.78895     102002.7      46.7237      46.7237      46.7237 
  289000    93.996878   -7337.2375   -6851.3935    -654.3671     102002.7      46.7237      46.7237      46.7237 
  290000    92.753919   -7353.6073   -6874.1878    -755.8247     102002.7      46.7237      46.7237      46.7237 
  291000    92.737219    -7342.225   -6862.8919   -497.24913     102002.7      46.7237      46.7237      46.7237 
  292000    92.550109   -7349.6754   -6871.3093   -762.03614     102002.7      46.7237      46.7237      46.7237 
  293000    90.820125   -7331.5368   -6862.1126   -640.96488     102002.7      46.7237      46.7237      46.7237 
  294000    89.859099   -7337.9281   -6873.4711   -795.24657     102002.7      46.7237      46.7237      46.7237 
  295000    89.380995   -7348.6515   -6886.6657   -808.16388     102002.7      46.7237      46.7237      46.7237 
  296000    91.212184    -7339.739   -6868.2884   -714.36368     102002.7      46.7237      46.7237      46.7237 
  297000     93.38833   -7334.1627   -6851.4641   -729.26179     102002.7      46.7237      46.7237      46.7237 
  298000    91.973092   -7352.7103   -6877.3267    -656.2861     102002.7      46.7237      46.7237      46.7237 
  299000    88.321812   -7344.8719   -6888.3608   -534.95998     102002.7      46.7237      46.7237      46.7237 
  300000    93.276035   -7332.1176   -6849.9994   -618.09515     102002.7      46.7237      46.7237      46.7237 
  301000    94.179674   -7347.5085   -6860.7197   -392.24932     102002.7      46.7237      46.7237      46.7237 
  302000    90.650093   -7336.7832   -6868.2379   -829.02767     102002.7      46.7237      46.7237      46.7237 
  303000    91.709204   -7329.1043   -6855.0847   -478.57062     102002.7      46.7237      46.7237      46.7237 
  304000     91.80583   -7349.4625   -6874.9434   -644.76243     102002.7      46.7237      46.7237      46.7237 
  305000    90.729212   -7340.6137   -6871.6594     -671.069     102002.7      46.7237      46.7237      46.7237 
  306000    89.871919   -7327.2231   -6862.6999   -344.98448     102002.7      46.7237      46.7237      46.7237 
  307000    89.736995   -7349.0802   -6885.2544    -856.3685     102002.7      46.7237      46.7237      46.7237 
  308000    92.710189   -7342.3183   -6863.1248    -452.5396     102002.7      46.7237      46.7237      46.7237 
  309000    88.504858   -7345.0945   -6887.6373   -480.25691     102002.7      46.7237      46.7237      46.7237 
  310000    92.586699   -7346.0005   -6867.4454    -832.6744     102002.7      46.7237      46.7237      46.7237 
  311000    89.919316   -7355.9743   -6891.2062     -603.081     102002.7      46.7237      46.7237      46.7237 
  312000      89.2665   -7352.5555   -6891.1615   -774.14078     102002.7      46.7237      46.7237      46.7237 
  313000     93.62952   -7346.0957   -6862.1505    -770.8279     102002.7      46.7237      46.7237      46.7237 
  314000    91.786732   -7348.1683   -6873.7479   -682.99237     102002.7      46.7237      46.7237      46.7237 
  315000    91.579073   -7332.2808   -6858.9338   -872.39057     102002.7      46.7237      46.7237      46.7237 
  316000    91.653263   -7336.0624   -6862.3319   -503.24579     102002.7      46.7237      46.7237      46.7237 
  317000    90.249811   -7340.4441   -6873.9677   -683.50247     102002.7      46.7237      46.7237      46.7237 
  318000     88.99677   -7339.0655   -6879.0657   -789.12782     102002.7      46.7237      46.7237      46.7237 
  319000    93.978076   -7353.5013   -6867.7545   -627.35147     102002.7      46.7237      46.7237      46.7237 
  320000    94.223792   -7339.0435   -6852.0267   -832.84098     102002.7      46.7237      46.7237      46.7237 
  321000    89.252699   -7321.8862   -6860.5636   -616.24238     102002.7      46.7237      46.7237      46.7237 
  322000    88.596805   -7349.9417   -6892.0093   -619.60628     102002.7      46.7237      46.7237      46.7237 
  323000    92.747561   -7341.8796    -6862.493   -593.92058     102002.7      46.7237      46.7237      46.7237 
  324000    91.903793   -7350.5411   -6875.5157   -628.15058     102002.7      46.7237      46.7237      46.7237 
  325000    91.766192   -7325.7736   -6851.4594   -299.70751     102002.7      46.7237      46.7237      46.7237 
  326000    85.857926   -7360.7758   -6916.9999   -682.37229     102002.7      46.7237      46.7237      46.7237 
  327000    91.735856   -7335.4317   -6861.2743   -376.74747     102002.7      46.7237      46.7237      46.7237 
  328000    86.354043   -7342.9163    -6896.576   -663.63165     102002.7      46.7237      46.7237      46.7237 
  329000    90.652103   -7338.1305   -6869.5747   -651.56887     102002.7      46.7237      46.7237      46.7237 
  330000    87.844862   -7348.6197   -6894.5738    -484.2012     102002.7      46.7237      46.7237      46.7237 
  331000    87.183946   -7334.3056   -6883.6758   -652.64031     102002.7      46.7237      46.7237      46.7237 
  332000    91.611097   -7339.0187   -6865.5062   -455.33861     102002.7      46.7237      46.7237      46.7237 
  333000    88.359078   -7346.6863   -6889.9825   -674.16699     102002.7      46.7237      46.7237      46.7237 
  334000    94.907762   -7349.4475   -6858.8954   -530.48967     102002.7      46.7237      46.7237      46.7237 
  335000    89.463553   -7330.1873   -6867.7749   -545.44459     102002.7      46.7237      46.7237      46.7237 
  336000    90.088775   -7345.0067   -6879.3627   -619.99049     102002.7      46.7237      46.7237      46.7237 
  337000    91.240798   -7321.6445    -6850.046   -506.12854     102002.7      46.7237      46.7237      46.7237 
  338000    92.268694   -7360.2389   -6883.3275   -660.29034     102002.7      46.7237      46.7237      46.7237 
  339000    91.749848   -7346.1199   -6871.8902   -498.81102     102002.7      46.7237      46.7237      46.7237 
  340000    89.829678   -7348.0229    -6883.718     -405.961     102002.7      46.7237      46.7237      46.7237 
  341000    93.648254   -7348.9873   -6864.9452    -695.6172     102002.7      46.7237      46.7237      46.7237 
  342000    91.409026   -7358.3385   -6885.8704   -613.99885     102002.7      46.7237      46.7237      46.7237 
  343000     93.39398   -7339.2874   -6856.5597   -741.07722     102002.7      46.7237      46.7237      46.7237 
  344000    89.333287   -7354.4295   -6892.6903   -660.56448     102002.7      46.7237      46.7237      46.7237 
  345000    92.931112   -7342.8971   -6862.5618    -758.3183     102002.7      46.7237      46.7237      46.7237 
  346000    92.556361   -7343.2793   -6864.8809   -618.33727     102002.7      46.7237      46.7237      46.7237 
  347000    91.838219   -7350.9568   -6876.2704   -560.83594     102002.7      46.7237      46.7237      46.7237 
  348000    90.409347   -7337.2595   -6869.9585   -621.61141     102002.7      46.7237      46.7237      46.7237 
  349000    90.562308    -7352.169   -6884.0773   -618.50733     102002.7      46.7237      46.7237      46.7237 
  350000    91.208836   -7331.0026   -6859.5692   -498.01344     102002.7      46.7237      46.7237      46.7237 
  351000    93.853056    -7326.991   -6841.8904   -396.13724     102002.7      46.7237      46.7237      46.7237 
  352000    89.666513   -7343.9304   -6880.4689   -683.50035     102002.7      46.7237      46.7237      46.7237 
  353000    90.032705   -7349.1901   -6883.8358   -798.15453     102002.7      46.7237      46.7237      46.7237 
  354000    93.075679   -7331.2283   -6850.1457   -532.50609     102002.7      46.7237      46.7237      46.7237 
  355000    88.257899   -7337.5509   -6881.3701   -628.35939     102002.7      46.7237      46.7237      46.7237 
  356000    91.686024   -7343.2775   -6869.3777   -879.00528     102002.7      46.7237      46.7237      46.7237 
  357000     90.37262   -7337.6492   -6870.5381   -719.53711     102002.7      46.7237      46.7237      46.7237 
  358000    89.419557   -7348.3999   -6886.2148   -719.22794     102002.7      46.7237      46.7237      46.7237 
  359000    92.255758   -7331.5126    -6854.668   -579.10399     102002.7      46.7237      46.7237      46.7237 
  360000    90.207762   -7348.1898   -6881.9307   -643.27331     102002.7      46.7237      46.7237      46.7237 
  361000    93.433356   -7343.9874   -6861.0561   -491.56206     102002.7      46.7237      46.7237      46.7237 
  362000    93.368461   -7348.8371   -6866.2412   -479.55209     102002.7      46.7237      46.7237      46.7237 
  363000    88.427798   -7341.6345   -6884.5756   -755.41035     102002.7      46.7237      46.7237      46.7237 
  364000    90.525928    -7329.915   -6862.0114   -723.23874     102002.7      46.7237      46.7237      46.7237 
  365000    88.614617   -7356.0153   -6897.9907   -745.10298     102002.7      46.7237      46.7237      46.7237 
  366000    91.633557   -7334.9207   -6861.2921   -707.39623     102002.7      46.7237      46.7237      46.7237 
  367000    94.011076   -7334.3886   -6848.4712   -666.35706     102002.7      46.7237      46.7237      46.7237 
  368000    88.460254   -7336.6074   -6879.3807   -584.92491     102002.7      46.7237      46.7237      46.7237 
  369000    92.526741   -7334.8763   -6856.6311   -750.95791     102002.7      46.7237      46.7237      46.7237 
  370000    90.575983   -7339.8442   -6871.6819   -602.01019     102002.7      46.7237      46.7237      46.7237 
  371000    92.536815   -7342.5849   -6864.2876   -666.00369     102002.7      46.7237      46.7237      46.7237 
  372000    89.271507   -7344.5485   -6883.1287   -793.75385     102002.7      46.7237      46.7237      46.7237 
  373000     92.18508   -7328.9864   -6852.5071   -698.46795     102002.7      46.7237      46.7237      46.7237 
  374000    91.080012   -7348.7823   -6878.0148   -660.13739     102002.7      46.7237      46.7237      46.7237 
  375000    87.705008   -7337.3488   -6884.0258   -560.32571     102002.7      46.7237      46.7237      46.7237 
  376000    88.841891   -7348.4545   -6889.2552   -545.50242     102002.7      46.7237      46.7237      46.7237 
  377000    90.725276   -7343.1972   -6874.2632   -417.08556     102002.7      46.7237      46.7237      46.7237 
  378000    92.707143   -7330.4009   -6851.2232   -314.35406     102002.7      46.7237      46.7237      46.7237 
  379000    88.950434    -7340.842   -6881.0817   -634.60343     102002.7      46.7237      46.7237      46.7237 
  380000    86.149515   -7327.8429   -6882.5598   -657.92214     102002.7      46.7237      46.7237      46.7237 
  381000    93.072157   -7343.4488   -6862.3844   -482.10972     102002.7      46.7237      46.7237      46.7237 
  382000    92.869609    -7343.963   -6863.9456   -426.16915     102002.7      46.7237      46.7237      46.7237 
  383000    92.770574   -7332.6662   -6853.1606   -483.98544     102002.7      46.7237      46.7237      46.7237 
  384000     89.29897   -7331.9755   -6870.4138   -393.58123     102002.7      46.7237      46.7237      46.7237 
  385000    92.507031   -7350.9109   -6872.7675   -307.03766     102002.7      46.7237      46.7237      46.7237 
  386000    94.849444   -7335.9521   -6845.7014   -620.43887     102002.7      46.7237      46.7237      46.7237 
  387000     91.64478   -7343.7596    -6870.073   -850.73495     102002.7      46.7237      46.7237      46.7237 
  388000    90.790113   -7347.7038   -6878.4347   -803.16835     102002.7      46.7237      46.7237      46.7237 
  389000    87.296627   -7344.2608   -6893.0486   -857.22719     102002.7      46.7237      46.7237      46.7237 
  390000    93.050118   -7343.9014    -6862.951   -672.58473     102002.7      46.7237      46.7237      46.7237 
  391000    89.215841   -7350.8534   -6889.7213   -767.07909     102002.7      46.7237      46.7237      46.7237 
  392000    90.043932   -7343.3753   -6877.9631   -727.22715     102002.7      46.7237      46.7237      46.7237 
  393000    91.000441   -7352.5973   -6882.2411   -947.97295     102002.7      46.7237      46.7237      46.7237 
  394000    92.036031   -7343.5742   -6867.8653   -716.88229     102002.7      46.7237      46.7237      46.7237 
  395000    91.751088   -7345.5531    -6871.317   -709.80179     102002.7      46.7237      46.7237      46.7237 
  396000    91.061654   -7368.0961   -6897.4234   -806.65257     102002.7      46.7237      46.7237      46.7237 
  397000    89.225781   -7337.1425   -6875.9591   -722.56929     102002.7      46.7237      46.7237      46.7237 
  398000    91.092361   -7338.4101   -6867.5788   -768.77247     102002.7      46.7237      46.7237      46.7237 
  399000    88.177195    -7340.118   -6884.3544   -591.07861     102002.7      46.7237      46.7237      46.7237 
  400000    92.731123   -7338.0142   -6858.7126   -681.70705     102002.7      46.7237      46.7237      46.7237 
  401000    91.686469   -7338.1897   -6864.2876    -540.4941     102002.7      46.7237      46.7237      46.7237 
  402000    88.983577   -7337.8942   -6877.9626   -700.50238     102002.7      46.7237      46.7237      46.7237 
  403000    89.186079   -7341.7672   -6880.7889   -757.24815     102002.7      46.7237      46.7237      46.7237 
  404000    90.024544    -7331.822   -6866.5099   -585.47144     102002.7      46.7237      46.7237      46.7237 
  405000     92.42593   -7340.1922    -6862.468   -664.36955     102002.7      46.7237      46.7237      46.7237 
  406000    91.132765   -7352.2884   -6881.2483   -553.91166     102002.7      46.7237      46.7237      46.7237 
  407000    95.089833   -7324.6567   -6833.1635   -793.60962     102002.7      46.7237      46.7237      46.7237 
  408000    92.253126   -7358.4389   -6881.6079   -761.56143     102002.7      46.7237      46.7237      46.7237 
  409000    91.694331   -7327.8413   -6853.8986   -684.44227     102002.7      46.7237      46.7237      46.7237 
  410000    89.739187   -7328.7625   -6864.9253   -881.58695     102002.7      46.7237      46.7237      46.7237 
  411000    89.274463   -7355.5899   -6894.1548   -497.84977     102002.7      46.7237      46.7237      46.7237 
  412000    93.892762   -7348.7611   -6863.4552   -696.89199     102002.7      46.7237      46.7237      46.7237 
  413000    90.086095    -7336.387   -6870.7567   -687.37245     102002.7      46.7237      46.7237      46.7237 
  414000    89.571435   -7327.0779   -6864.1078   -649.12993     102002.7      46.7237      46.7237      46.7237 
  415000    88.424889   -7351.7628   -6894.7189   -633.26714     102002.7      46.7237      46.7237      46.7237 
  416000    90.697154   -7348.6068   -6879.8181   -635.14594     102002.7      46.7237      46.7237      46.7237 
  417000    91.115432   -7329.6423   -6858.6917   -635.00411     102002.7      46.7237      46.7237      46.7237 
  418000    91.267969   -7325.7244   -6853.9854   -681.53535     102002.7      46.7237      46.7237      46.7237 
  419000    90.687541   -7341.3809    -6872.642   -572.38998     102002.7      46.7237      46.7237      46.7237 
  420000    91.948801   -7333.6801   -6858.4221   -490.55863     102002.7      46.7237      46.7237      46.7237 
  421000    91.461692   -7345.7167   -6872.9764   -800.23089     102002.7      46.7237      46.7237      46.7237 
  422000    91.466848   -7346.2721   -6873.5051   -739.59065     102002.7      46.7237      46.7237      46.7237 
  423000    90.994729   -7334.9635   -6864.6369   -638.44444     102002.7      46.7237      46.7237      46.7237 
  424000    91.451488   -7339.5856    -6866.898   -852.51333     102002.7      46.7237      46.7237      46.7237 
  425000    90.015047   -7345.5624   -6880.2994   -694.61622     102002.7      46.7237      46.7237      46.7237 
  426000    91.521602   -7350.4344   -6877.3844    -705.2245     102002.7      46.7237      46.7237      46.7237 
  427000    91.292266   -7335.6018   -6863.7373    -805.0472     102002.7      46.7237      46.7237      46.7237 
  428000    87.618476   -7336.3346   -6883.4588   -802.63864     102002.7      46.7237      46.7237      46.7237 
  429000     92.24415   -7324.3103   -6847.5257   -548.19977     102002.7      46.7237      46.7237      46.7237 
  430000    92.270732   -7356.6441   -6879.7221    -654.0881     102002.7      46.7237      46.7237      46.7237 
  431000    90.730776   -7336.9384    -6867.976   -685.84141     102002.7      46.7237      46.7237      46.7237 
  432000    90.752656   -7341.7004   -6872.6249   -722.00373     102002.7      46.7237      46.7237      46.7237 
  433000     91.92584   -7345.4742   -6870.3349   -785.22969     102002.7      46.7237      46.7237      46.7237 
  434000    92.704994   -7345.9749   -6866.8083   -778.26805     102002.7      46.7237      46.7237      46.7237 
  435000    89.527401   -7345.0275   -6882.2851   -838.42575     102002.7      46.7237      46.7237      46.7237 
  436000    92.762719   -7346.5362   -6867.0713   -790.51125     102002.7      46.7237      46.7237      46.7237 
  437000    89.843103   -7348.5579   -6884.1836   -723.67398     102002.7      46.7237      46.7237      46.7237 
  438000    93.349366   -7341.1224   -6858.6252   -948.39658     102002.7      46.7237      46.7237      46.7237 
  439000     90.57854   -7355.9417   -6887.7661   -629.20962     102002.7      46.7237      46.7237      46.7237 
  440000    92.398878   -7330.3404    -6852.756   -677.66483     102002.7      46.7237      46.7237      46.7237 
  441000    89.542159   -7340.9392   -6878.1204   -781.82947     102002.7      46.7237      46.7237      46.7237 
  442000    88.976542   -7337.4852   -6877.5899   -625.36385     102002.7      46.7237      46.7237      46.7237 
  443000    89.482777   -7351.2292   -6888.7174   -792.01665     102002.7      46.7237      46.7237      46.7237 
  444000    90.330494   -7351.2057   -6884.3122   -568.68953     102002.7      46.7237      46.7237      46.7237 
  445000    90.063902   -7336.0578   -6870.5423   -904.88479     102002.7      46.7237      46.7237      46.7237 
  446000    89.113521   -7347.1695   -6886.5663   -586.65315     102002.7      46.7237      46.7237      46.7237 
  447000    90.424639   -7339.2983   -6871.9183   -655.37357     102002.7      46.7237      46.7237      46.7237 
  448000    92.356288   -7339.6033   -6862.2391   -699.63884     102002.7      46.7237      46.7237      46.7237 
  449000    89.593226   -7335.1062   -6872.0235    -454.9444     102002.7      46.7237      46.7237      46.7237 
  450000    95.283085   -7334.6796   -6842.1876   -632.58384     102002.7      46.7237      46.7237      46.7237 
  451000    88.825102   -7344.4648   -6885.3523   -532.59861     102002.7      46.7237      46.7237      46.7237 
  452000    95.384829   -7355.2137   -6862.1958   -516.56367     102002.7      46.7237      46.7237      46.7237 
  453000    91.427437   -7369.5482   -6896.9849   -448.10599     102002.7      46.7237      46.7237      46.7237 
  454000    88.698703   -7341.0491   -6882.5899    -603.6175     102002.7      46.7237      46.7237      46.7237 
  455000    92.005743    -7330.753   -6855.2006   -473.46179     102002.7      46.7237      46.7237      46.7237 
  456000    90.295239    -7347.555   -6880.8438    -428.4887     102002.7      46.7237      46.7237      46.7237 
  457000    92.280006   -7348.0431   -6871.0732   -844.60306     102002.7      46.7237      46.7237      46.7237 
  458000    90.197167   -7329.3319   -6863.1276   -590.66208     102002.7      46.7237      46.7237      46.7237 
  459000    89.695043   -7350.8084   -6887.1994   -741.97069     102002.7      46.7237      46.7237      46.7237 
  460000    89.472854   -7329.7569   -6867.2964   -590.75718     102002.7      46.7237      46.7237      46.7237 
  461000    89.658729    -7334.969   -6871.5478   -764.93318     102002.7      46.7237      46.7237      46.7237 
  462000    89.763058   -7340.2945    -6876.334   -572.12337     102002.7      46.7237      46.7237      46.7237 
  463000    90.120229   -7326.6038   -6860.7971   -531.45258     102002.7      46.7237      46.7237      46.7237 
  464000    92.052638   -7347.9372   -6872.1425    -729.2637     102002.7      46.7237      46.7237      46.7237 
  465000    94.757452   -7334.9405   -6845.1653   -639.18347     102002.7      46.7237      46.7237      46.7237 
  466000    89.693469   -7340.1857   -6876.5849   -818.11825     102002.7      46.7237      46.7237      46.7237 
  467000    91.050571   -7336.8448   -6866.2294   -495.85056     102002.7      46.7237      46.7237      46.7237 
  468000    92.164952   -7328.7275   -6852.3522   -908.29097     102002.7      46.7237      46.7237      46.7237 
  469000    89.189195   -7336.4491   -6875.4547   -931.69367     102002.7      46.7237      46.7237      46.7237 
  470000    90.661302   -7333.8647   -6865.2614   -729.49733     102002.7      46.7237      46.7237      46.7237 
  471000    92.641347   -7346.4225   -6867.5849   -1027.9017     102002.7      46.7237      46.7237      46.7237 
  472000    91.743145   -7326.1231    -6851.928   -607.65789     102002.7      46.7237      46.7237      46.7237 
  473000    93.170332   -7355.4358    -6873.864    -860.6982     102002.7      46.7237      46.7237      46.7237 
  474000    90.523667   -7342.5309    -6874.639   -593.10178     102002.7      46.7237      46.7237      46.7237 
  475000     91.69249   -7345.2404   -6871.3071    -781.8134     102002.7      46.7237      46.7237      46.7237 
  476000     90.10355    -7343.585   -6877.8645   -703.18403     102002.7      46.7237      46.7237      46.7237 
  477000    94.076401   -7343.6334   -6857.3784    -776.3717     102002.7      46.7237      46.7237      46.7237 
  478000    92.058048   -7347.9885   -6872.1658   -706.65944     102002.7      46.7237      46.7237      46.7237 
  479000    88.082372   -7349.9255    -6894.652    -588.9295     102002.7      46.7237      46.7237      46.7237 
  480000    90.363395   -7329.7581   -6862.6946   -743.44681     102002.7      46.7237      46.7237      46.7237 
  481000    89.592621   -7342.3049   -6879.2253   -454.20076     102002.7      46.7237      46.7237      46.7237 
  482000    89.489167   -7349.2854   -6886.7406   -641.33684     102002.7      46.7237      46.7237      46.7237 
  483000     93.06504    -7343.038   -6862.0105   -604.09837     102002.7      46.7237      46.7237      46.7237 
  484000    88.356123   -7338.9605    -6882.272   -668.95952     102002.7      46.7237      46.7237      46.7237 
  485000    93.269518   -7348.4275    -6866.343   -870.35182     102002.7      46.7237      46.7237      46.7237 
  486000    89.510335   -7342.0231   -6879.3688   -596.07648     102002.7      46.7237      46.7237      46.7237 
  487000    93.040333   -7363.3013   -6882.4014   -831.02833     102002.7      46.7237      46.7237      46.7237 
  488000    95.718358   -7349.9696   -6855.2278   -684.54048     102002.7      46.7237      46.7237      46.7237 
  489000    91.343537   -7333.0199   -6860.8903   -603.15453     102002.7      46.7237      46.7237      46.7237 
  490000    90.656385   -7339.3702   -6870.7923    -983.3217     102002.7      46.7237      46.7237      46.7237 
  491000    91.747733    -7341.679   -6867.4602   -734.63403     102002.7      46.7237      46.7237      46.7237 
  492000    91.693096   -7356.9367   -6883.0003   -542.55101     102002.7      46.7237      46.7237      46.7237 
  493000    90.775398   -7369.0992   -6899.9062   -636.45827     102002.7      46.7237      46.7237      46.7237 
  494000    90.501692   -7335.0236   -6867.2453   -836.46472     102002.7      46.7237      46.7237      46.7237 
  495000    90.734801   -7346.9922    -6878.009   -513.39322     102002.7      46.7237      46.7237      46.7237 
  496000    93.088057   -7341.1765   -6860.0299   -399.91269     102002.7      46.7237      46.7237      46.7237 
  497000    92.910355   -7337.9359   -6857.7079   -680.16196     102002.7      46.7237      46.7237      46.7237 
  498000    89.584126   -7341.6437   -6878.6081   -530.73066     102002.7      46.7237      46.7237      46.7237 
  499000    90.408135     -7336.13   -6868.8352   -519.88101     102002.7      46.7237      46.7237      46.7237 
  500000    88.651586   -7353.4162   -6895.2005   -669.77005     102002.7      46.7237      46.7237      46.7237 
  500506      90.6764   -7358.5675   -6889.8861   -629.23541     102002.7      46.7237      46.7237      46.7237 
Loop time of 1271.98 on 16 procs for 500000 steps with 1735 atoms

Performance: 33.963 ns/day, 0.707 hours/ns, 393.088 timesteps/s
99.8% CPU use with 16 MPI tasks x no OpenMP threads

MPI task timing breakdown:
Section |  min time  |  avg time  |  max time  |%varavg| %total
---------------------------------------------------------------
Pair    | 504.82     | 684.15     | 884.69     | 471.8 | 53.79
Bond    | 163.91     | 173.97     | 185.73     |  45.2 | 13.68
Neigh   | 2.9372     | 2.957      | 2.9958     |   1.2 |  0.23
Comm    | 189.56     | 397.85     | 583.72     | 632.6 | 31.28
Output  | 0.020265   | 0.020796   | 0.023313   |   0.5 |  0.00
Modify  | 6.7878     | 7.8058     | 8.2418     |  20.4 |  0.61
Other   |            | 5.226      |            |       |  0.41

Nlocal:    108.438 ave 131 max 85 min
Histogram: 1 2 1 2 0 5 0 2 2 1
Nghost:    2196.69 ave 2226 max 2178 min
Histogram: 3 0 4 3 1 2 0 1 1 1
Neighs:    11454.2 ave 16756 max 7136 min
Histogram: 1 2 3 1 4 0 1 2 1 1

Total # of neighbors = 183268
Ave neighs/atom = 105.63
Ave special neighs/atom = 6.63977
Neighbor list builds = 2595
Dangerous builds = 0
Neighbor list info ...
  update every 1 steps, delay 10 steps, check yes
  max neighbors/atom: 2000, page size: 100000
  master list distance cutoff = 16
  ghost atom cutoff = 16
  binsize = 8, bins = 6 6 6
  3 neighbor lists, perpetual/occasional/extra = 3 0 0
  (1) pair buck6d/coul/gauss/dsf, perpetual, skip from (3)
      attributes: half, newton on
      pair build: skip
      stencil: none
      bin: none
  (2) pair lj/cut, perpetual, skip from (3)
      attributes: half, newton on
      pair build: skip
      stencil: none
      bin: none
  (3) neighbor class addition, perpetual
      attributes: half, newton on
      pair build: half/bin/newton
      stencil: half/bin/3d/newton
      bin: standard
Setting up Verlet run ...
  Unit style    : real
  Current step  : 500506
  Time step     : 1
WARNING: Inconsistent image flags (../domain.cpp:786)
Per MPI rank memory allocation (min/avg/max) = 22.87 | 23.3 | 23.34 Mbytes
Step Time TotEng KinEng PotEng E_mol E_pair Temp Pxx Pyy Pzz Pxy Pxz Pyz Cella Cellb Cellc CellAlpha CellBeta CellGamma Volume Press 
  500506       500000   -6889.8861    468.68134   -7358.5675    4207.1771   -11565.745      90.6764   -731.11994   -587.10235   -569.48395   -122.67428    241.67589    81.864938      46.7237      46.7237      46.7237           90           90           90     102002.7   -629.23541 
  501000       500494   -6862.3889    484.79413    -7347.183    4199.8132   -11546.996    93.793762   -521.95465   -918.69084   -949.97355   -29.227777   -98.008644    133.24615      46.7237      46.7237      46.7237           90           90           90     102002.7   -796.87301 
  502000       501494   -6871.9876    467.47409   -7339.4617    4227.7885    -11567.25    90.442832   -811.77059   -1041.0497   -434.68932   -529.62175   -72.734029   -50.779948      46.7237      46.7237      46.7237           90           90           90     102002.7   -762.50321 
  503000       502494   -6892.0702    458.49189   -7350.5621    4183.3215   -11533.884    88.705034   -877.55629   -762.37398   -838.94312   -86.601392   -78.671162   -295.81652      46.7237      46.7237      46.7237           90           90           90     102002.7   -826.29113 
  504000       503494   -6870.2119    463.72801   -7333.9399    4243.8274   -11577.767    89.718073   -906.34349    -780.3065    -620.5985    150.28828   -466.36096   -45.318553      46.7237      46.7237      46.7237           90           90           90     102002.7   -769.08283 
  505000       504494   -6887.8662    466.31586    -7354.182    4189.8223   -11544.004    90.218748   -322.84259   -605.32528   -818.45163    84.143957   -86.984667    41.460419      46.7237      46.7237      46.7237           90           90           90     102002.7    -582.2065 
  506000       505494   -6859.1947    473.15887   -7332.3535    4230.2772   -11562.631    91.542673   -624.89273   -152.41963   -826.53111   -0.7444134   -29.766456    41.248412      46.7237      46.7237      46.7237           90           90           90     102002.7   -534.61449 
  507000       506494   -6867.0917    455.51598   -7322.6077    4240.2333   -11562.841    88.129281   -857.39737   -769.28547    -663.5666   -37.486509   -69.177207   -324.54312      46.7237      46.7237      46.7237           90           90           90     102002.7   -763.41648 
  508000       507494   -6870.4655    470.81862   -7341.2841     4217.891   -11559.175    91.089902   -486.19528   -839.28845   -739.99779   -68.700892    94.108819   -69.733353      46.7237      46.7237      46.7237           90           90           90     102002.7   -688.49384 
  509000       508494   -6893.7886    469.37392   -7363.1626     4194.408   -11557.571    90.810393   -1030.0567   -487.41744    -464.0319    83.938715    146.57699    239.75562      46.7237      46.7237      46.7237           90           90           90     102002.7     -660.502 
  510000       509494   -6864.3614    481.29475   -7345.6561    4216.5117   -11562.168    93.116733   -511.17886   -743.07937   -947.54448   -168.74222   -39.560069   -166.32023      46.7237      46.7237      46.7237           90           90           90     102002.7   -733.93424 
  511000       510494   -6902.5713    456.96428   -7359.5356    4201.0051   -11560.541    88.409485   -801.95911   -690.04802   -766.09564      207.404   -8.2469182   -51.429796      46.7237      46.7237      46.7237           90           90           90     102002.7   -752.70092 
  512000       511494   -6877.6113    470.11655   -7347.7279    4204.1749   -11551.903    90.954072   -354.88491   -651.74981   -1230.3156   -114.10877   -103.88876    162.08792      46.7237      46.7237      46.7237           90           90           90     102002.7   -745.65011 
  513000       512494   -6855.1281    487.41956   -7342.5477    4203.9711   -11546.519    94.301709   -773.17612   -967.25533   -862.05823   -60.637199   -127.81081   -70.255022      46.7237      46.7237      46.7237           90           90           90     102002.7   -867.49656 
  514000       513494   -6877.2244     478.9668   -7356.1912    4205.0593    -11561.25    92.666341   -635.93194   -537.53539   -969.18139    -206.4477    11.869536   -35.219433      46.7237      46.7237      46.7237           90           90           90     102002.7   -714.21624 
  515000       514494   -6862.6733    478.93366    -7341.607    4239.1861   -11580.793     92.65993   -907.62222   -400.04301   -664.97707   -356.80472    111.71144    194.74117      46.7237      46.7237      46.7237           90           90           90     102002.7   -657.54743 
  516000       515494   -6873.7262    461.05068   -7334.7768    4220.0685   -11554.845    89.200086    -637.4691    -797.8368    -804.3785    168.86698   -129.98931    29.103622      46.7237      46.7237      46.7237           90           90           90     102002.7   -746.56147 
  517000       516494   -6852.8635    475.60068   -7328.4641    4237.9917   -11566.456    92.015093   -824.64518   -886.41688   -799.89387    211.53644    141.61906    -105.6003      46.7237      46.7237      46.7237           90           90           90     102002.7   -836.98531 
  518000       517494    -6860.511    480.83955   -7341.3506    4214.7388   -11556.089    93.028664   -769.10885   -347.86652   -576.38833    324.65156   -45.341955    246.52543      46.7237      46.7237      46.7237           90           90           90     102002.7   -564.45456 
  519000       518494   -6872.7944    473.22443   -7346.0188     4219.133   -11565.152    91.555358    -499.9861   -933.89723    -462.4422   -86.970579   -129.27914    39.193402      46.7237      46.7237      46.7237           90           90           90     102002.7   -632.10851 
  520000       519494   -6838.9087    487.02846   -7325.9371    4235.9881   -11561.925    94.226041   -907.74419   -863.05907   -455.17596    40.391884   -80.633013     44.88229      46.7237      46.7237      46.7237           90           90           90     102002.7   -741.99308 
  521000       520494   -6880.4767    472.92855   -7353.4052    4214.6509   -11568.056    91.498113   -638.93482   -380.98095   -988.31346   -31.361681   -144.82734    296.93341      46.7237      46.7237      46.7237           90           90           90     102002.7   -669.40974 
  522000       521494   -6853.3425    482.45202   -7335.7945    4214.8362   -11550.631    93.340631   -690.03046    -104.0935   -947.09932    60.715919   -32.552018   -17.716488      46.7237      46.7237      46.7237           90           90           90     102002.7   -580.40776 
  523000       522494     -6878.93    463.04839   -7341.9784    4217.0875   -11559.066    89.586585   -822.49896   -660.62827    -1019.537   -144.13637     148.0175   -143.14145      46.7237      46.7237      46.7237           90           90           90     102002.7   -834.22143 
  524000       523494   -6856.2326      460.295   -7316.5276    4235.7467   -11552.274    89.053883   -559.78836   -830.44255   -501.76851    53.454823    129.40781    70.704211      46.7237      46.7237      46.7237           90           90           90     102002.7   -630.66648 
  525000       524494   -6849.5911    483.55351   -7333.1446    4215.8095   -11548.954    93.553738   -438.83096   -205.31963   -726.56399    87.548576    373.39861   -45.181806      46.7237      46.7237      46.7237           90           90           90     102002.7   -456.90486 
  526000       525494   -6875.6564    469.90717   -7345.5635    4205.3121   -11550.876    90.913563   -582.42969   -413.80336   -524.37231    25.175504    36.535409    10.391383      46.7237      46.7237      46.7237           90           90           90     102002.7   -506.86845 
  527000       526494   -6872.0434    462.94929   -7334.9927     4230.394   -11565.387    89.567412    -289.3018   -557.43187   -782.81253      127.889    38.317878     117.6931      46.7237      46.7237      46.7237           90           90           90     102002.7   -543.18207 
  528000       527494   -6859.2012    473.19658   -7332.3978    4244.7916   -11577.189     91.54997   -513.88584   -505.00665   -607.61379    279.39132    119.98948     127.7358      46.7237      46.7237      46.7237           90           90           90     102002.7   -542.16876 
  529000       528494   -6882.7837    470.02606   -7352.8098    4189.4047   -11542.215    90.936565   -346.07659   -447.56039   -529.56705    34.644404   -136.29432   -57.965538      46.7237      46.7237      46.7237           90           90           90     102002.7   -441.06801 
  530000       529494   -6873.5474    472.28937   -7345.8368    4215.5196   -11561.356     91.37445   -856.62734   -592.67988   -603.47828   -7.8248257   -140.44885   -52.918245      46.7237      46.7237      46.7237           90           90           90     102002.7   -684.26183 
  531000       530494   -6875.4368     469.9686   -7345.4054    4216.4675   -11561.873    90.925448   -624.20172   -849.40169   -314.58756    293.22313   -120.62302   -240.31226      46.7237      46.7237      46.7237           90           90           90     102002.7   -596.06366 
  532000       531494   -6872.4875    470.22117   -7342.7087    4219.0983   -11561.807    90.974313   -742.21938   -543.98718   -811.09432   -320.27812   -96.959312    120.28315      46.7237      46.7237      46.7237           90           90           90     102002.7   -699.10029 
  533000       532494   -6887.5687     453.6151   -7341.1838    4235.5499   -11576.734    87.761514   -748.00049   -611.20976    -975.1911    17.382902   -107.63551   -75.827887      46.7237      46.7237      46.7237           90           90           90     102002.7   -778.13378 
  534000       533494   -6870.5517    474.85037   -7345.4021    4218.5731   -11563.975     91.86993   -456.23014   -696.09924   -691.50633     324.7436    -171.5542    59.244412      46.7237      46.7237      46.7237           90           90           90     102002.7    -614.6119 
  535000       534494   -6884.4577    462.41957   -7346.8773    4217.8632    -11564.74    89.464927   -489.39628   -1166.8397   -892.76853    136.23851    109.79058     90.47753      46.7237      46.7237      46.7237           90           90           90     102002.7   -849.66817 
  536000       535494   -6863.5055    470.10009   -7333.6055    4234.9781   -11568.584    90.950886   -911.61326   -720.63524   -865.87167   -2.9110192    113.05315   -124.06293      46.7237      46.7237      46.7237           90           90           90     102002.7   -832.70672 
  537000       536494   -6874.2978    473.91435   -7348.2122    4204.5167   -11552.729    91.688837   -764.31751   -487.51207   -1265.0783    320.81238    178.25292   -129.98037      46.7237      46.7237      46.7237           90           90           90     102002.7    -838.9693 
  538000       537494    -6845.854    485.42276   -7331.2767    4228.4217   -11559.698    93.915384   -846.23477   -445.83253   -390.54125    26.061691   -126.38641    126.47235      46.7237      46.7237      46.7237           90           90           90     102002.7   -560.86951 
  539000       538494   -6889.8441    462.84648   -7352.6906    4208.0052   -11560.696    89.547521   -673.48891    -572.1069   -881.24604    54.022425   -150.02382    64.514321      46.7237      46.7237      46.7237           90           90           90     102002.7   -708.94728 
  540000       539494    -6859.493    473.93953   -7333.4325    4220.6655   -11554.098    91.693708   -537.88304   -705.77527    -1275.929   -129.54701    40.821222    71.088582      46.7237      46.7237      46.7237           90           90           90     102002.7   -839.86245 
  541000       540494   -6903.5309    462.05905     -7365.59    4198.1826   -11563.773    89.395176    -714.3417   -883.43955   -758.49562   -165.52801    208.57817   -77.293087      46.7237      46.7237      46.7237           90           90           90     102002.7   -785.42562 
  542000       541494   -6870.1768    469.01394   -7339.1907    4224.7768   -11563.968    90.740749    -817.2312   -887.02362   -1231.8758    66.819233    37.751684    49.607429      46.7237      46.7237      46.7237           90           90           90     102002.7   -978.71021 
  543000       542494   -6884.1372    469.63345   -7353.7707    4203.6805   -11557.451    90.860606     -496.863   -962.52845   -1019.1942    149.18579     120.6346   -129.17471      46.7237      46.7237      46.7237           90           90           90     102002.7    -826.1952 
  544000       543494   -6874.3033    471.09113   -7345.3945    4222.0767   -11567.471    91.142626   -992.22548   -894.76793   -630.31765    8.3703362    113.28631    3.8029086      46.7237      46.7237      46.7237           90           90           90     102002.7   -839.10369 
  545000       544494   -6899.4783    459.81581   -7359.2941    4193.5512   -11552.845    88.961173   -552.43627   -819.24142   -1131.9394   -2.6678799   -163.95911    25.629274      46.7237      46.7237      46.7237           90           90           90     102002.7   -834.53904 
  546000       545494   -6868.6732    469.92638   -7338.5996    4225.2833   -11563.883    90.917279   -777.20521   -769.58574   -685.63892    156.82356   -46.993032    8.3628275      46.7237      46.7237      46.7237           90           90           90     102002.7   -744.14329 
  547000       546494   -6858.2706    462.26435    -7320.535     4253.164   -11573.699    89.434896   -987.28564   -907.38588   -617.99873    -145.1281   -37.341677    72.474917      46.7237      46.7237      46.7237           90           90           90     102002.7   -837.55675 
  548000       547494   -6886.1704    475.88075   -7362.0511      4197.11   -11559.161     92.06928   -759.29496   -516.69455    -632.7171     30.87382   -82.662395    178.57822      46.7237      46.7237      46.7237           90           90           90     102002.7   -636.23554 
  549000       548494   -6866.0275    471.11862   -7337.1461    4216.0213   -11553.167    91.147943   -554.66292   -732.53561   -659.30204   -218.18657      94.2068    400.62548      46.7237      46.7237      46.7237           90           90           90     102002.7   -648.83352 
  550000       549494   -6870.3663    479.02474   -7349.3911    4222.5838   -11571.975     92.67755   -903.07164   -1037.7835   -851.79859   -20.797024   -59.325091      117.644      46.7237      46.7237      46.7237           90           90           90     102002.7   -930.88459 
  551000       550494    -6893.484     459.8568   -7353.3408     4209.653   -11562.994    88.969104   -814.46283   -1057.5501    -549.8473   -61.348004    65.412313    135.24507      46.7237      46.7237      46.7237           90           90           90     102002.7   -807.28674 
  552000       551494   -6858.1295    472.08565   -7330.2151    4212.4121   -11542.627    91.335036   -582.52326   -627.40893   -616.72548    256.63086   -181.31716   -117.02558      46.7237      46.7237      46.7237           90           90           90     102002.7   -608.88589 
  553000       552494   -6868.2792    479.15812   -7347.4373    4203.4842   -11550.921    92.703357   -679.26626   -342.27074   -606.52341   -72.769877   -92.298393    -78.04446      46.7237      46.7237      46.7237           90           90           90     102002.7    -542.6868 
  554000       553494   -6896.3529    451.27725   -7347.6301    4213.2154   -11560.846    87.309207   -964.84067   -720.64019   -806.99103    148.52628     141.4152    7.9403594      46.7237      46.7237      46.7237           90           90           90     102002.7   -830.82397 
  555000       554494   -6880.0088    478.67455   -7358.6833    4205.3221   -11564.005    92.609799   -541.53594   -745.41107    -973.6642    55.408768   -143.63021   -96.618987      46.7237      46.7237      46.7237           90           90           90     102002.7   -753.53707 
[...]
  936000       935494   -6864.5469    474.32356   -7338.8704    4216.1788   -11555.049    91.768008   -1050.5042    66.389414   -239.77316   -348.69325   -94.448788    10.694004      46.7237      46.7237      46.7237           90           90           90     102002.7   -407.96264 
  937000       936494   -6876.2411    464.34316   -7340.5843    4213.0293   -11553.614    89.837087   -415.16479   -963.24783   -267.74889   -106.93759   -58.092565    98.665063      46.7237      46.7237      46.7237           90           90           90     102002.7    -548.7205 
  938000       937494   -6856.1433     486.1273   -7342.2706    4227.3852   -11569.656    94.051692   -639.44041   -724.04698   -685.50335   -156.44507      2.82426    14.437195      46.7237      46.7237      46.7237           90           90           90     102002.7   -682.99691 
  939000       938494     -6872.07    469.64416   -7341.7142    4226.1645   -11567.879    90.862678   -901.51868    -446.9911   -363.83634     -144.479    67.521386    3.9325113      46.7237      46.7237      46.7237           90           90           90     102002.7   -570.78204 
  940000       939494    -6880.391    464.87386   -7345.2649    4211.3125   -11556.577    89.939761   -788.21338   -1133.2289   -478.56801    23.661873    45.691516   -5.3955199      46.7237      46.7237      46.7237           90           90           90     102002.7   -800.00343 
  941000       940494   -6859.3478    477.10607   -7336.4538    4228.5982   -11565.052    92.306343   -648.56238   -642.01852    -284.6874    33.105802   -157.23647    42.540216      46.7237      46.7237      46.7237           90           90           90     102002.7   -525.08943 
  942000       941494   -6864.9221    471.16631   -7336.0884    4221.7213    -11557.81    91.157169   -716.08215   -563.33134   -662.35926    169.35636     184.6532   -25.420034      46.7237      46.7237      46.7237           90           90           90     102002.7   -647.25758 
  943000       942494   -6861.8259       488.13   -7349.9559    4208.7475   -11558.703    94.439158   -726.92062   -949.18461   -813.50983    225.24831     125.7182   -26.575075      46.7237      46.7237      46.7237           90           90           90     102002.7   -829.87169 
  944000       943494   -6870.2368    471.21319     -7341.45    4219.0246   -11560.475     91.16624   -870.14122   -566.32798   -1074.6387    115.43426    242.50457    23.203647      46.7237      46.7237      46.7237           90           90           90     102002.7   -837.03598 
  945000       944494   -6884.4652    478.36955   -7362.8347    4191.3672   -11554.202     92.55079   -842.39229   -1092.8312   -1205.9343   -73.236318    248.98582    37.381422      46.7237      46.7237      46.7237           90           90           90     102002.7   -1047.0526 
  946000       945494   -6876.9911    461.78538   -7338.7765     4220.424   -11559.201     89.34223   -834.53721    -1406.289   -290.03807    84.357662    143.05773    19.005289      46.7237      46.7237      46.7237           90           90           90     102002.7   -843.62143 
  947000       946494   -6875.3268     470.4394   -7345.7662    4228.0788   -11573.845    91.016534   -891.70835   -1183.9054   -593.58005      14.0929    129.53169    170.78002      46.7237      46.7237      46.7237           90           90           90     102002.7   -889.73126 
  948000       947494   -6866.2156     465.5474    -7331.763    4225.9463   -11557.709    90.070072   -497.24735   -1359.3854   -946.83308   -21.592807    63.051181   -79.032334      46.7237      46.7237      46.7237           90           90           90     102002.7    -934.4886 
  949000       948494   -6887.5401    464.50301   -7352.0431    4209.8627   -11561.906    89.868013   -687.49931   -666.62734   -380.52543    21.390064   -53.744483     347.6945      46.7237      46.7237      46.7237           90           90           90     102002.7   -578.21736 
  950000       949494   -6873.8497    473.91677   -7347.7665    4217.8944   -11565.661    91.689305   -1220.7795   -611.02904   -484.10483     40.67598    185.51219    19.147632      46.7237      46.7237      46.7237           90           90           90     102002.7   -771.97113 
  951000       950494   -6847.0032    473.21031   -7320.2135    4237.7686   -11557.982    91.552625   -1014.2223   -1101.0413   -459.88736   -65.288902    59.483859   -167.12004      46.7237      46.7237      46.7237           90           90           90     102002.7   -858.38364 
  952000       951494   -6863.6154    481.04495   -7344.6603    4220.0872   -11564.748    93.068403   -603.42936   -721.86563   -799.77016   -120.00738   -107.00977    121.97309      46.7237      46.7237      46.7237           90           90           90     102002.7   -708.35505 
  953000       952494   -6853.9805    489.52207   -7343.5026     4206.391   -11549.894    94.708483   -899.71457    -276.0018   -1106.0245    178.69471    213.69962    161.49854      46.7237      46.7237      46.7237           90           90           90     102002.7   -760.58028 
  954000       953494   -6861.1867    482.30394   -7343.4906    4216.7383   -11560.229    93.311983   -624.72696   -410.62065    -440.7774    141.09352   -185.90664   -36.835791      46.7237      46.7237      46.7237           90           90           90     102002.7   -492.04167 
  955000       954494   -6883.2688    461.65613   -7344.9249    4204.5012   -11549.426    89.317223   -735.73297   -553.87774   -1191.4258   -60.231771   -39.381433    8.8651443      46.7237      46.7237      46.7237           90           90           90     102002.7   -827.01216 
  956000       955494   -6864.2837    486.85672   -7351.1404     4207.159   -11558.299    94.192814   -894.16432   -679.50011   -833.58977   -65.752484   -47.726305    86.396867      46.7237      46.7237      46.7237           90           90           90     102002.7   -802.41807 
  957000       956494   -6881.8616    462.03372   -7343.8953    4215.6345    -11559.53    89.390276   -640.97063   -662.18749   -636.73969    87.903601    66.685164    180.84699      46.7237      46.7237      46.7237           90           90           90     102002.7    -646.6326 
  958000       957494   -6859.7024    470.31207   -7330.0144    4235.0325   -11565.047    90.991898   -592.55978   -180.62765   -615.55037   -22.583118    328.77487   -161.58858      46.7237      46.7237      46.7237           90           90           90     102002.7    -462.9126 
  959000       958494   -6888.0685    475.19122   -7363.2597     4199.059   -11562.319    91.935875   -539.15235   -636.53453   -781.25825    268.28568    163.60198   -18.719627      46.7237      46.7237      46.7237           90           90           90     102002.7   -652.31504 
  960000       959494   -6864.4558    483.51573   -7347.9715    4217.4079   -11565.379    93.546428   -994.58381   -514.27344    -1317.703   -65.997574   -84.839279    161.57796      46.7237      46.7237      46.7237           90           90           90     102002.7   -942.18674 
  961000       960494   -6862.4328    477.07329   -7339.5061    4212.0776   -11551.584    92.300002   -735.57068   -487.78645   -681.01447    61.794807    77.755242      146.481      46.7237      46.7237      46.7237           90           90           90     102002.7   -634.79053 
  962000       961494   -6889.7463     458.7202   -7348.4665    4227.6858   -11576.152    88.749205   -863.53342   -937.02462   -1070.4294    145.54788    -118.3016    -108.0529      46.7237      46.7237      46.7237           90           90           90     102002.7   -956.99581 
  963000       962494   -6868.8992     467.8465   -7336.7457    4229.2334   -11565.979    90.514883   -937.87078   -600.21715   -752.20101   -5.8655758   -20.507294    138.01935      46.7237      46.7237      46.7237           90           90           90     102002.7   -763.42965 
  964000       963494   -6855.5355    487.70765   -7343.2431    4226.0497   -11569.293    94.357445   -846.32697   -614.31616   -957.54954    71.430102   -48.143507     165.8989      46.7237      46.7237      46.7237           90           90           90     102002.7   -806.06422 
  965000       964494   -6885.4523    458.85908   -7344.3113    4232.6455   -11576.957    88.776073   -775.25107    -830.6259   -818.22486      70.0559   -25.979163    -160.6404      46.7237      46.7237      46.7237           90           90           90     102002.7   -808.03394 
  966000       965494   -6857.1274    487.38393   -7344.5113    4219.1957   -11563.707    94.294814   -973.96828   -931.42852   -748.64508   -209.85223    35.253836    89.084136      46.7237      46.7237      46.7237           90           90           90     102002.7   -884.68063 
  967000       966494    -6870.851    477.09864   -7347.9496    4218.3871   -11566.337    92.304906   -699.55711   -514.12239   -591.02548    35.905516    177.24434   -204.63927      46.7237      46.7237      46.7237           90           90           90     102002.7   -601.56833 
  968000       967494   -6887.7333    464.52853   -7352.2618    4205.2961   -11557.558    89.872949   -323.67839   -694.28403   -391.97301    -34.55809    -71.01101  0.081966239      46.7237      46.7237      46.7237           90           90           90     102002.7   -469.97848 
  969000       968494   -6876.8545    484.19507   -7361.0496    4207.9065   -11568.956    93.677861   -1047.7873   -1001.4015   -651.70036    172.53933   -113.67019    22.051807      46.7237      46.7237      46.7237           90           90           90     102002.7   -900.29637 
  970000       969494   -6871.8109    457.45095   -7329.2618    4230.5966   -11559.858    88.503641     -714.357   -856.27314   -702.42102    -77.01655    2.3540353   -80.038747      46.7237      46.7237      46.7237           90           90           90     102002.7   -757.68372 
  971000       970494   -6879.9217    451.34868   -7331.2704    4237.7203   -11568.991    87.323027   -516.25661   -1079.7339   -463.84334   -7.8315691   -43.280254    194.51907      46.7237      46.7237      46.7237           90           90           90     102002.7   -686.61128 
  972000       971494   -6853.4208    475.82227   -7329.2431     4224.176   -11553.419    92.057965   -647.20283   -978.11445   -842.52003   -24.486455   -19.231303    46.539671      46.7237      46.7237      46.7237           90           90           90     102002.7   -822.61244 
  973000       972494   -6862.6939    472.40643   -7335.1003      4228.74    -11563.84    91.397097   -709.04091   -852.28777   -723.16117    10.844772    17.993655    2.4960936      46.7237      46.7237      46.7237           90           90           90     102002.7   -761.49662 
  974000       973494   -6912.6505    454.17182   -7366.8223    4199.1978    -11566.02    87.869224   -788.06132   -1070.3658   -571.27696   -95.875402    -221.0008   -113.19801      46.7237      46.7237      46.7237           90           90           90     102002.7   -809.90136 
  975000       974494   -6870.5015    464.88275   -7335.3843    4209.9235   -11545.308    89.941482   -490.79462   -927.82182   -905.55892    21.886168    326.12567    195.52261      46.7237      46.7237      46.7237           90           90           90     102002.7   -774.72512 
  976000       975494    -6862.283    466.22944   -7328.5125     4234.357    -11562.87    90.202028    -622.9472   -1272.4875   -875.61347   -147.04878    132.67041   -116.29234      46.7237      46.7237      46.7237           90           90           90     102002.7   -923.68273 
  977000       976494   -6868.3495    481.14091   -7349.4904    4219.2676   -11568.758     93.08697   -947.49338   -594.28065    -598.8316    -6.778644    12.153781    64.478772      46.7237      46.7237      46.7237           90           90           90     102002.7   -713.53521 
  978000       977494   -6892.9776    463.78517   -7356.7628    4192.8838   -11549.647    89.729132   -468.91773   -1029.0996   -712.57565    387.84758    -66.61306    105.29069      46.7237      46.7237      46.7237           90           90           90     102002.7   -736.86432 
  979000       978494   -6867.5299    472.66866   -7340.1986    4226.8172   -11567.016    91.447832   -411.70953    -1031.591   -931.72243    17.149482     42.50617    106.97703      46.7237      46.7237      46.7237           90           90           90     102002.7   -791.67433 
  980000       979494   -6872.0039    476.43242   -7348.4363     4218.571   -11567.007    92.176012     -739.793   -421.30684   -574.81246    22.711961   -89.757052    76.763741      46.7237      46.7237      46.7237           90           90           90     102002.7   -578.63743 
  981000       980494    -6861.624    468.01659   -7329.6406    4223.4977   -11553.138     90.54779   -917.23374     -152.624   -976.95644    195.32021   -168.18247    98.663576      46.7237      46.7237      46.7237           90           90           90     102002.7   -682.27139 
  982000       981494   -6874.8818    477.21636   -7352.0982    4212.2155   -11564.314    92.327682   -309.56108   -741.14384   -644.84456    -24.83278    170.04142   -10.182286      46.7237      46.7237      46.7237           90           90           90     102002.7   -565.18316 
  983000       982494   -6867.4691     470.6444   -7338.1135    4214.4859   -11552.599    91.056196   -1098.3298   -806.33645   -608.69117   -250.84252   -71.732646    165.01177      46.7237      46.7237      46.7237           90           90           90     102002.7    -837.7858 
  984000       983494   -6853.8748    486.61184   -7340.4867    4217.8311   -11558.318    94.145438   -1014.4858   -605.02968     -809.909   -107.94532    14.091135   -77.024252      46.7237      46.7237      46.7237           90           90           90     102002.7   -809.80818 
  985000       984494   -6870.4603    467.29833   -7337.7587    4216.0209    -11553.78    90.408826   -1103.3782   -823.60621   -800.03008   -132.41561   -192.38797   -53.799066      46.7237      46.7237      46.7237           90           90           90     102002.7   -909.00483 
  986000       985494   -6884.6889    473.86624   -7358.5551    4199.3963   -11557.951    91.679528   -795.22571   -795.23902   -622.74709   -45.026465    108.91368   -18.639067      46.7237      46.7237      46.7237           90           90           90     102002.7   -737.73727 
  987000       986494   -6879.3062    475.59018   -7354.8964    4186.3613   -11541.258    92.013062   -475.63257    -814.2657   -542.03365   -126.98118    -35.50397   -34.256422      46.7237      46.7237      46.7237           90           90           90     102002.7   -610.64397 
  988000       987494   -6857.8189    469.52416    -7327.343     4242.873   -11570.216    90.839462   -863.89435   -887.26255   -911.27899    -115.5539   -118.23524   -82.679731      46.7237      46.7237      46.7237           90           90           90     102002.7   -887.47863 
  989000       988494   -6873.5411    464.16497   -7337.7061    4221.2603   -11558.966    89.802611   -619.53423   -780.90696   -537.83584   -96.838099   -221.03663    232.74161      46.7237      46.7237      46.7237           90           90           90     102002.7   -646.09234 
  990000       989494   -6877.2754    468.91659    -7346.192    4227.2206   -11573.413    90.721915   -888.12406   -723.88999   -1064.4662   -135.42227    30.465568     157.8968      46.7237      46.7237      46.7237           90           90           90     102002.7   -892.16009 
  991000       990494    -6843.678    477.88301    -7321.561    4241.3758   -11562.937    92.456658    -1021.915   -880.58761   -798.09824   -144.33444    257.20689    92.279448      46.7237      46.7237      46.7237           90           90           90     102002.7   -900.20029 
  992000       991494   -6881.0656    464.92597   -7345.9916    4216.2385    -11562.23    89.949843   -593.36249   -762.68246   -288.33892   -8.0760321    147.31153    9.8132924      46.7237      46.7237      46.7237           90           90           90     102002.7   -548.12796 
  993000       992494   -6887.6301    446.88747   -7334.5175    4240.9696   -11575.487     86.45991   -423.88575   -429.19621   -384.14047   -228.74038     112.4653   -218.86035      46.7237      46.7237      46.7237           90           90           90     102002.7   -412.40748 
  994000       993494   -6863.4477    463.83387   -7327.2816    4234.2347   -11561.516    89.738552   -503.46307   -714.73228   -322.97941    157.70894   -255.51222    158.37561      46.7237      46.7237      46.7237           90           90           90     102002.7   -513.72492 
  995000       994494   -6886.0719    460.11662   -7346.1885    4219.6715    -11565.86    89.019372   -348.75873   -887.79565   -95.540353    63.306843    122.51707     104.4571      46.7237      46.7237      46.7237           90           90           90     102002.7   -444.03158 
  996000       995494   -6855.7788    476.89671   -7332.6755    4218.5977   -11551.273    92.265838   -666.70029   -520.12764   -555.42871   -167.94847    139.52065    138.95795      46.7237      46.7237      46.7237           90           90           90     102002.7   -580.75221 
  997000       996494   -6886.9791    473.47987    -7360.459    4199.8621   -11560.321    91.604778   -908.83195   -623.57715   -565.90739   -38.491433   -264.21263   -26.593557      46.7237      46.7237      46.7237           90           90           90     102002.7   -699.43883 
  998000       997494   -6882.3246    469.03233   -7351.3569    4216.0365   -11567.393    90.744307   -845.04098   -630.68121   -1141.5932    172.57703   -81.081504    314.36273      46.7237      46.7237      46.7237           90           90           90     102002.7   -872.43846 
  999000       998494     -6848.45    475.77395   -7324.2239    4247.6904   -11571.914    92.048617   -409.12259   -838.51832   -1068.5206   -36.470346   -73.954076    126.16293      46.7237      46.7237      46.7237           90           90           90     102002.7   -772.05382 
 1000000       999494   -6866.8107    480.12564   -7346.9363     4200.103   -11547.039    92.890544   -962.84351   -116.49533    -470.2153   -175.47483   -35.231983   -54.302329      46.7237      46.7237      46.7237           90           90           90     102002.7   -516.51805 
 1000506      1000000   -6880.9759    463.44296   -7344.4188    4199.8436   -11544.262    89.662923   -392.04117   -708.45048   -722.47585   -252.22183   -142.47836    -66.46205      46.7237      46.7237      46.7237           90           90           90     102002.7   -607.65583 
Loop time of 1413.9 on 16 procs for 500000 steps with 1735 atoms

Performance: 30.554 ns/day, 0.785 hours/ns, 353.633 timesteps/s
99.8% CPU use with 16 MPI tasks x no OpenMP threads

MPI task timing breakdown:
Section |  min time  |  avg time  |  max time  |%varavg| %total
---------------------------------------------------------------
Pair    | 571.54     | 768.65     | 979.64     | 478.6 | 54.36
Bond    | 172.29     | 183.24     | 193.68     |  40.9 | 12.96
Neigh   | 3.038      | 3.0632     | 3.1147     |   1.7 |  0.22
Comm    | 214.4      | 431.48     | 635.57     | 646.9 | 30.52
Output  | 0.096729   | 0.10167    | 0.10205    |   0.4 |  0.01
Modify  | 20.853     | 22.104     | 22.686     |  15.0 |  1.56
Other   |            | 5.263      |            |       |  0.37

Nlocal:    108.438 ave 133 max 76 min
Histogram: 2 0 0 2 2 3 1 2 2 2
Nghost:    2211.81 ave 2241 max 2183 min
Histogram: 1 2 1 2 2 3 2 1 0 2
Neighs:    11447.6 ave 16952 max 7892 min
Histogram: 1 2 7 0 1 2 0 1 0 2

Total # of neighbors = 183162
Ave neighs/atom = 105.569
Ave special neighs/atom = 6.63977
Neighbor list builds = 2685
Dangerous builds = 0
Total wall time: 0:44:48
