LAMMPS (30 Mar 2018)
Reading data file ...
  orthogonal box = (0 0 0) to (46.7237 46.7237 46.7237)
  2 by 2 by 4 MPI processor grid
  reading atoms ...
  1757 atoms
  scanning bonds ...
  5 = max bonds/atom
  scanning angles ...
  10 = max angles/atom
  scanning dihedrals ...
  32 = max dihedrals/atom
  scanning impropers ...
  3 = max impropers/atom
  reading bonds ...
  2064 bonds
  reading angles ...
  3696 angles
  reading dihedrals ...
  6240 dihedrals
  reading impropers ...
  1008 impropers
Finding 1-2 1-3 1-4 neighbors ...
  special bond factors lj:   0          0          0         
  special bond factors coul: 0          0          0         
  5 = max # of 1-2 neighbors
  8 = max # of 1-3 neighbors
  20 = max # of 1-4 neighbors
  19 = max # of special neighbors
Finding 1-2 1-3 1-4 neighbors ...
  special bond factors lj:   0          0          1         
  special bond factors coul: 1          1          1         
  5 = max # of 1-2 neighbors
  8 = max # of 1-3 neighbors
  19 = max # of special neighbors
WARNING: Using 'neigh_modify every 1 delay 0 check yes' setting during minimization (../min.cpp:168)
Neighbor list info ...
  update every 1 steps, delay 0 steps, check yes
  max neighbors/atom: 2000, page size: 100000
  master list distance cutoff = 16
  ghost atom cutoff = 16
  binsize = 8, bins = 6 6 6
  3 neighbor lists, perpetual/occasional/extra = 3 0 0
  (1) pair buck6d/coul/gauss/dsf, perpetual, skip from (3)
      attributes: half, newton on
      pair build: skip
      stencil: none
      bin: none
  (2) pair lj/cut, perpetual, skip from (3)
      attributes: half, newton on
      pair build: skip
      stencil: none
      bin: none
  (3) neighbor class addition, perpetual
      attributes: half, newton on
      pair build: half/bin/newton
      stencil: half/bin/3d/newton
      bin: standard
Setting up cg style minimization ...
  Unit style    : real
  Current step  : 0
WARNING: Inconsistent image flags (../domain.cpp:786)
Per MPI rank memory allocation (min/avg/max) = 22.89 | 23.35 | 23.79 Mbytes
Step Temp E_pair E_mol TotEng Press 
       0            0   -11589.148    6482.8914   -5106.2562    6258.6841 
     507            0   -11609.323    3723.8261   -7885.4974    -471.6098 
Loop time of 2.7589 on 16 procs for 507 steps with 1757 atoms

99.9% CPU use with 16 MPI tasks x no OpenMP threads

Minimization stats:
  Stopping criterion = max force evaluations
  Energy initial, next-to-last, final = 
        -5106.25615054     -7885.48766492     -7885.49736215
  Force two-norm initial, final = 2576.83 4.5563
  Force max component initial, final = 151.981 0.569898
  Final line search alpha, max atom move = 0.0122417 0.00697654
  Iterations, force evaluations = 507 1000

MPI task timing breakdown:
Section |  min time  |  avg time  |  max time  |%varavg| %total
---------------------------------------------------------------
Pair    | 1.2166     | 1.5801     | 2.0778     |  20.2 | 57.27
Bond    | 0.30825    | 0.36074    | 0.42171    |   5.7 | 13.08
Neigh   | 0.01658    | 0.016685   | 0.016865   |   0.1 |  0.60
Comm    | 0.24353    | 0.7624     | 1.1604     |  29.5 | 27.63
Output  | 0          | 0          | 0          |   0.0 |  0.00
Modify  | 0          | 0          | 0          |   0.0 |  0.00
Other   |            | 0.03899    |            |       |  1.41

Nlocal:    109.812 ave 127 max 88 min
Histogram: 1 0 0 4 2 3 0 3 1 2
Nghost:    2213.69 ave 2235 max 2195 min
Histogram: 1 2 3 0 0 3 4 2 0 1
Neighs:    11458.4 ave 16509 max 7804 min
Histogram: 3 2 1 2 1 2 1 2 1 1

Total # of neighbors = 183335
Ave neighs/atom = 104.345
Ave special neighs/atom = 6.55663
Neighbor list builds = 14
Dangerous builds = 0
Neighbor list info ...
  update every 1 steps, delay 10 steps, check yes
  max neighbors/atom: 2000, page size: 100000
  master list distance cutoff = 16
  ghost atom cutoff = 16
  binsize = 8, bins = 6 6 6
  3 neighbor lists, perpetual/occasional/extra = 3 0 0
  (1) pair buck6d/coul/gauss/dsf, perpetual, skip from (3)
      attributes: half, newton on
      pair build: skip
      stencil: none
      bin: none
  (2) pair lj/cut, perpetual, skip from (3)
      attributes: half, newton on
      pair build: skip
      stencil: none
      bin: none
  (3) neighbor class addition, perpetual
      attributes: half, newton on
      pair build: half/bin/newton
      stencil: half/bin/3d/newton
      bin: standard
Setting up Verlet run ...
  Unit style    : real
  Current step  : 507
  Time step     : 1
WARNING: Inconsistent image flags (../domain.cpp:786)
Per MPI rank memory allocation (min/avg/max) = 22.54 | 22.61 | 22.67 Mbytes
Step Temp PotEng TotEng Press Volume Lx Ly Lz 
     507          130   -7885.4974    -7205.038   -166.66352     102002.7      46.7237      46.7237      46.7237 
    1000    110.32892   -7262.4636   -6684.9686   -676.84628     102002.7      46.7237      46.7237      46.7237 
    2000    128.70737   -7155.5943    -6481.901   -760.61851     102002.7      46.7237      46.7237      46.7237 
    3000    126.36292   -7192.8782   -6531.4565   -938.46484     102002.7      46.7237      46.7237      46.7237 
    4000    131.33391   -7204.8717   -6517.4303   -560.06828     102002.7      46.7237      46.7237      46.7237 
    5000    128.41483   -7173.0737   -6500.9116   -548.52935     102002.7      46.7237      46.7237      46.7237 
    6000    128.96054   -7196.6417   -6521.6232   -590.44443     102002.7      46.7237      46.7237      46.7237 
    7000    130.20815   -7190.9944   -6509.4456   -579.68531     102002.7      46.7237      46.7237      46.7237 
    8000    128.81033   -7192.8494   -6518.6172   -976.94444     102002.7      46.7237      46.7237      46.7237 
    9000    131.39805   -7166.5723   -6478.7951    -694.1515     102002.7      46.7237      46.7237      46.7237 
   10000    133.72423   -7219.7833   -6519.8302   -839.58453     102002.7      46.7237      46.7237      46.7237 
   11000    128.68084   -7188.8114   -6515.2569   -807.17162     102002.7      46.7237      46.7237      46.7237 
   12000    132.72793   -7206.0312   -6511.2931   -946.02045     102002.7      46.7237      46.7237      46.7237 
   13000    132.10206   -7205.3708   -6513.9086   -658.49561     102002.7      46.7237      46.7237      46.7237 
   14000    125.66725   -7182.2682   -6524.4878   -851.99436     102002.7      46.7237      46.7237      46.7237 
   15000    131.73227    -7195.167   -6505.6404   -644.33243     102002.7      46.7237      46.7237      46.7237 
   16000     131.1489   -7197.5663   -6511.0933   -798.19084     102002.7      46.7237      46.7237      46.7237 
   17000    127.74662    -7198.855   -6530.1905   -693.06025     102002.7      46.7237      46.7237      46.7237 
   18000     131.2689   -7178.8625   -6491.7614   -497.05083     102002.7      46.7237      46.7237      46.7237 
   19000    128.41788   -7188.7843   -6516.6063   -772.41314     102002.7      46.7237      46.7237      46.7237 
   20000    131.78184    -7182.499    -6492.713    -774.4117     102002.7      46.7237      46.7237      46.7237 
   21000    130.23175   -7192.4244    -6510.752   -555.91506     102002.7      46.7237      46.7237      46.7237 
   22000    129.28633   -7195.4486   -6518.7249   -548.88843     102002.7      46.7237      46.7237      46.7237 
   23000    129.02079   -7157.9162   -6482.5824   -881.46391     102002.7      46.7237      46.7237      46.7237 
   24000    124.83541   -7218.7572    -6565.331   -671.48802     102002.7      46.7237      46.7237      46.7237 
   25000    131.18541   -7180.4427   -6493.7786   -777.59242     102002.7      46.7237      46.7237      46.7237 
   26000    131.10392   -7199.9028   -6513.6652   -653.00169     102002.7      46.7237      46.7237      46.7237 
   27000      128.008   -7185.6896    -6515.657    -635.3481     102002.7      46.7237      46.7237      46.7237 
   28000    132.82717   -7187.2699   -6492.0123   -904.78153     102002.7      46.7237      46.7237      46.7237 
   29000    134.10027   -7197.1466   -6495.2252   -624.74067     102002.7      46.7237      46.7237      46.7237 
   30000    129.14771   -7187.7586   -6511.7604   -657.15748     102002.7      46.7237      46.7237      46.7237 
   31000    129.50741   -7191.3923   -6513.5113   -857.95326     102002.7      46.7237      46.7237      46.7237 
   32000    132.66219   -7218.9004   -6524.5064   -756.40706     102002.7      46.7237      46.7237      46.7237 
   33000    127.65641   -7212.6924   -6544.5001    -736.8528     102002.7      46.7237      46.7237      46.7237 
   34000    133.31724   -7209.8587    -6512.036   -848.57407     102002.7      46.7237      46.7237      46.7237 
   35000    135.43641   -7177.5992    -6468.684   -705.67272     102002.7      46.7237      46.7237      46.7237 
   36000    128.88815   -7194.2171   -6519.5775   -633.61221     102002.7      46.7237      46.7237      46.7237 
   37000    130.71006   -7181.7583   -6497.5823   -677.46138     102002.7      46.7237      46.7237      46.7237 
   38000    131.74495   -7209.1101   -6519.5172   -547.76582     102002.7      46.7237      46.7237      46.7237 
   39000    128.10106    -7188.984   -6518.4643   -533.13495     102002.7      46.7237      46.7237      46.7237 
   40000    131.02509   -7167.2084   -6481.3834   -642.66737     102002.7      46.7237      46.7237      46.7237 
   41000    129.75512   -7198.5797   -6519.4021    -785.2071     102002.7      46.7237      46.7237      46.7237 
   42000    127.01384   -7213.6258    -6548.797   -637.61676     102002.7      46.7237      46.7237      46.7237 
   43000    129.17536   -7196.2273   -6520.0843   -528.81097     102002.7      46.7237      46.7237      46.7237 
   44000    132.22129   -7188.6459   -6496.5597   -882.53694     102002.7      46.7237      46.7237      46.7237 
   45000    127.01197   -7199.5723   -6534.7533   -576.08117     102002.7      46.7237      46.7237      46.7237 
   46000    131.46002   -7202.1472   -6514.0457   -620.05339     102002.7      46.7237      46.7237      46.7237 
   47000    131.79787   -7188.5604   -6498.6905   -491.29214     102002.7      46.7237      46.7237      46.7237 
   48000    128.73911   -7224.2082   -6550.3487    -695.0414     102002.7      46.7237      46.7237      46.7237 
   49000    130.11417   -7183.2882   -6502.2312   -554.96364     102002.7      46.7237      46.7237      46.7237 
   50000    126.68008   -7195.0056   -6531.9237   -640.32583     102002.7      46.7237      46.7237      46.7237 
   51000    130.46386   -7187.9298   -6505.0425   -662.89452     102002.7      46.7237      46.7237      46.7237 
   52000    130.55705   -7190.9526   -6507.5775   -554.51181     102002.7      46.7237      46.7237      46.7237 
   53000     128.4841     -7182.72   -6510.1954   -532.52198     102002.7      46.7237      46.7237      46.7237 
   54000    128.09793   -7191.3465   -6520.8431   -309.73042     102002.7      46.7237      46.7237      46.7237 
   55000    134.13346   -7205.6802   -6503.5851   -529.84711     102002.7      46.7237      46.7237      46.7237 
   56000    129.81565   -7220.7981   -6541.3037   -560.34385     102002.7      46.7237      46.7237      46.7237 
   57000     130.7011   -7173.1681   -6489.0391   -510.80478     102002.7      46.7237      46.7237      46.7237 
   58000    125.92163   -7202.5945   -6543.4827     -896.702     102002.7      46.7237      46.7237      46.7237 
   59000    131.43741   -7194.4893   -6506.5062    -1011.916     102002.7      46.7237      46.7237      46.7237 
   60000    127.33997   -7188.7838   -6522.2479   -415.17413     102002.7      46.7237      46.7237      46.7237 
   61000    130.04199   -7202.7879   -6522.1088   -679.18468     102002.7      46.7237      46.7237      46.7237 
   62000    125.96802   -7168.2268   -6508.8721   -376.63272     102002.7      46.7237      46.7237      46.7237 
   63000    127.85677   -7196.1589   -6526.9179   -613.02043     102002.7      46.7237      46.7237      46.7237 
   64000    131.95429   -7196.2714   -6505.5827   -539.13235     102002.7      46.7237      46.7237      46.7237 
   65000     128.7523   -7213.2288   -6539.3003   -743.79967     102002.7      46.7237      46.7237      46.7237 
   66000    135.08039    -7188.032   -6480.9804   -688.39206     102002.7      46.7237      46.7237      46.7237 
   67000    130.61766   -7206.1981   -6522.5058   -419.30724     102002.7      46.7237      46.7237      46.7237 
   68000    132.62656   -7174.3327   -6480.1251   -665.15198     102002.7      46.7237      46.7237      46.7237 
   69000    129.29009   -7176.2914    -6499.548   -549.00785     102002.7      46.7237      46.7237      46.7237 
   70000    124.22685   -7189.2211   -6538.9801   -439.72741     102002.7      46.7237      46.7237      46.7237 
   71000    133.31082    -7192.394   -6494.6049   -1107.2965     102002.7      46.7237      46.7237      46.7237 
   72000    135.24936   -7187.4439   -6479.5078   -705.38667     102002.7      46.7237      46.7237      46.7237 
   73000    133.02424   -7226.8854   -6530.5963   -768.77854     102002.7      46.7237      46.7237      46.7237 
   74000    130.91598   -7188.0613   -6502.8074   -686.25632     102002.7      46.7237      46.7237      46.7237 
   75000    133.31646   -7206.5987   -6508.7801   -521.17857     102002.7      46.7237      46.7237      46.7237 
   76000    126.32283   -7194.2493   -6533.0374   -488.13758     102002.7      46.7237      46.7237      46.7237 
   77000    130.14491   -7204.1305   -6522.9127    -500.6506     102002.7      46.7237      46.7237      46.7237 
   78000    127.13027   -7192.8413    -6527.403   -721.40732     102002.7      46.7237      46.7237      46.7237 
   79000    132.61794   -7177.8243   -6483.6619   -453.04757     102002.7      46.7237      46.7237      46.7237 
   80000    130.18033   -7184.6044   -6503.2012   -709.09505     102002.7      46.7237      46.7237      46.7237 
   81000    127.91728   -7213.1112   -6543.5534   -810.84661     102002.7      46.7237      46.7237      46.7237 
   82000    129.87636    -7179.267   -6499.4549   -585.35163     102002.7      46.7237      46.7237      46.7237 
   83000    132.22268   -7183.8496   -6491.7561   -871.75221     102002.7      46.7237      46.7237      46.7237 
   84000    132.79191   -7207.6804   -6512.6074   -575.97709     102002.7      46.7237      46.7237      46.7237 
   85000    132.43857   -7187.7038   -6494.4803   -899.67301     102002.7      46.7237      46.7237      46.7237 
   86000    131.15608   -7194.4026   -6507.8921    -798.5029     102002.7      46.7237      46.7237      46.7237 
   87000    128.58278    -7210.666   -6537.6248   -908.92854     102002.7      46.7237      46.7237      46.7237 
   88000    127.22532   -7171.4688    -6505.533   -994.83174     102002.7      46.7237      46.7237      46.7237 
   89000    130.59998    -7194.309   -6510.7092   -715.56188     102002.7      46.7237      46.7237      46.7237 
   90000    132.04918   -7216.1528   -6524.9674   -621.01862     102002.7      46.7237      46.7237      46.7237 
   91000    126.89584   -7196.3632    -6532.152   -1059.4935     102002.7      46.7237      46.7237      46.7237 
   92000    129.74836   -7178.0912    -6498.949   -411.94374     102002.7      46.7237      46.7237      46.7237 
   93000    132.68133   -7211.5382    -6517.044   -658.46949     102002.7      46.7237      46.7237      46.7237 
   94000    126.28554    -7179.028   -6518.0113   -562.65635     102002.7      46.7237      46.7237      46.7237 
   95000    130.59201   -7190.1713   -6506.6132   -812.55533     102002.7      46.7237      46.7237      46.7237 
   96000    129.34319   -7189.2506   -6512.2293   -739.72961     102002.7      46.7237      46.7237      46.7237 
   97000    124.62732   -7207.1453   -6554.8082   -870.99644     102002.7      46.7237      46.7237      46.7237 
   98000    131.73575   -7192.9687   -6503.4239   -981.64011     102002.7      46.7237      46.7237      46.7237 
   99000    124.73934   -7204.1477   -6551.2243   -816.76938     102002.7      46.7237      46.7237      46.7237 
  100000    129.99932   -7187.3697    -6506.914   -610.52186     102002.7      46.7237      46.7237      46.7237 
  101000    128.89517   -7166.5442   -6491.8678   -618.36599     102002.7      46.7237      46.7237      46.7237 
  102000    128.12932   -7207.7483   -6537.0807   -921.54093     102002.7      46.7237      46.7237      46.7237 
  103000    126.82914   -7191.1277   -6527.2656    -477.0379     102002.7      46.7237      46.7237      46.7237 
  104000    125.77563   -7189.5045   -6531.1568   -721.36156     102002.7      46.7237      46.7237      46.7237 
  105000    129.37475   -7193.4972   -6516.3106   -980.30198     102002.7      46.7237      46.7237      46.7237 
  106000    130.11702   -7185.7739    -6504.702   -646.14893     102002.7      46.7237      46.7237      46.7237 
  107000     137.0677   -7189.5496   -6472.0958   -570.57534     102002.7      46.7237      46.7237      46.7237 
  108000    125.43102   -7194.3712   -6537.8273   -778.55762     102002.7      46.7237      46.7237      46.7237 
  109000    130.36783   -7210.1144   -6527.7298   -656.35455     102002.7      46.7237      46.7237      46.7237 
  110000    132.19401   -7188.3188   -6496.3754     -508.341     102002.7      46.7237      46.7237      46.7237 
  111000    127.26017   -7186.5411   -6520.4228   -761.90603     102002.7      46.7237      46.7237      46.7237 
  112000    128.93958   -7194.4302   -6519.5215   -725.73799     102002.7      46.7237      46.7237      46.7237 
  113000    130.33915    -7195.593   -6513.3585    -713.8031     102002.7      46.7237      46.7237      46.7237 
  114000    129.52149   -7186.3753   -6508.4206   -825.47408     102002.7      46.7237      46.7237      46.7237 
  115000    125.68931   -7201.7878   -6543.8919   -622.38223     102002.7      46.7237      46.7237      46.7237 
  116000    129.96033   -7193.7453   -6513.4936   -417.92247     102002.7      46.7237      46.7237      46.7237 
  117000     134.7063   -7190.5605    -6485.467   -473.91005     102002.7      46.7237      46.7237      46.7237 
  118000    131.42899   -7187.2891     -6499.35   -542.74033     102002.7      46.7237      46.7237      46.7237 
  119000    129.70478   -7213.1528   -6534.2388   -632.19169     102002.7      46.7237      46.7237      46.7237 
  120000    126.52067   -7173.9802   -6511.7327   -835.45122     102002.7      46.7237      46.7237      46.7237 
  121000    132.95035   -7191.9542   -6496.0519   -776.18908     102002.7      46.7237      46.7237      46.7237 
  122000    131.63882   -7202.9629   -6513.9255   -885.58587     102002.7      46.7237      46.7237      46.7237 
  123000    135.00277    -7191.545   -6484.8996   -896.48441     102002.7      46.7237      46.7237      46.7237 
  124000    126.85191   -7195.8099   -6531.8286   -620.63255     102002.7      46.7237      46.7237      46.7237 
  125000    128.58662   -7201.8109   -6528.7497    -748.2057     102002.7      46.7237      46.7237      46.7237 
  126000    130.11004   -7178.9125   -6497.8772   -530.29749     102002.7      46.7237      46.7237      46.7237 
  127000    127.24818   -7200.8536   -6534.7981   -540.96521     102002.7      46.7237      46.7237      46.7237 
  128000    134.11701   -7204.5287   -6502.5197   -683.66992     102002.7      46.7237      46.7237      46.7237 
  129000    131.63234   -7204.4857   -6515.4822   -696.50117     102002.7      46.7237      46.7237      46.7237 
  130000    129.18823   -7178.8059   -6502.5956   -369.10654     102002.7      46.7237      46.7237      46.7237 
  131000    127.14638    -7198.151   -6532.6284   -442.90351     102002.7      46.7237      46.7237      46.7237 
  132000    134.13627   -7210.0777   -6507.9679   -759.67839     102002.7      46.7237      46.7237      46.7237 
  133000    130.44675   -7210.9783   -6528.1805   -515.16303     102002.7      46.7237      46.7237      46.7237 
  134000    133.95731   -7199.4087   -6498.2357   -504.08209     102002.7      46.7237      46.7237      46.7237 
  135000    126.77859    -7196.446   -6532.8485   -523.49521     102002.7      46.7237      46.7237      46.7237 
  136000    129.67742   -7203.4287   -6524.6579    -811.7033     102002.7      46.7237      46.7237      46.7237 
  137000    127.73765   -7176.5636   -6507.9461   -803.55359     102002.7      46.7237      46.7237      46.7237 
  138000    121.09301   -7206.0067   -6572.1693    -375.2916     102002.7      46.7237      46.7237      46.7237 
  139000    132.44772   -7192.4314     -6499.16   -586.66361     102002.7      46.7237      46.7237      46.7237 
  140000    130.24341   -7190.3242   -6508.5907   -581.17429     102002.7      46.7237      46.7237      46.7237 
  141000     128.0252   -7198.1795   -6528.0568   -689.13884     102002.7      46.7237      46.7237      46.7237 
  142000     128.7453   -7198.2271   -6524.3352   -905.71245     102002.7      46.7237      46.7237      46.7237 
  143000    131.19915   -7205.3612   -6518.6252   -471.75195     102002.7      46.7237      46.7237      46.7237 
  144000     131.4125   -7178.4198   -6490.5671   -506.09707     102002.7      46.7237      46.7237      46.7237 
  145000    127.11514   -7174.0421    -6508.683   -720.26487     102002.7      46.7237      46.7237      46.7237 
  146000    125.31063   -7221.7079   -6565.7942   -511.06611     102002.7      46.7237      46.7237      46.7237 
  147000    129.97675   -7179.5505   -6499.2129   -624.75764     102002.7      46.7237      46.7237      46.7237 
  148000    128.99546   -7196.2798   -6521.0786   -808.84804     102002.7      46.7237      46.7237      46.7237 
  149000    130.83919   -7199.8933   -6515.0414   -708.17736     102002.7      46.7237      46.7237      46.7237 
  150000    130.66697    -7171.862   -6487.9116   -785.64017     102002.7      46.7237      46.7237      46.7237 
  151000    130.49451   -7202.2898   -6519.2421   -856.29973     102002.7      46.7237      46.7237      46.7237 
  152000    130.56322   -7170.1044   -6486.6971   -829.23973     102002.7      46.7237      46.7237      46.7237 
  153000    129.96771   -7189.8379   -6509.5476   -593.11146     102002.7      46.7237      46.7237      46.7237 
  154000    127.79874    -7184.994   -6516.0568   -840.76221     102002.7      46.7237      46.7237      46.7237 
  155000    131.93322   -7196.7351   -6506.1567   -548.01691     102002.7      46.7237      46.7237      46.7237 
  156000    132.01629   -7219.2429   -6528.2297   -525.07944     102002.7      46.7237      46.7237      46.7237 
  157000    133.89045   -7197.9825   -6497.1594   -1028.7522     102002.7      46.7237      46.7237      46.7237 
  158000    130.17553   -7198.8159   -6517.4379   -789.93595     102002.7      46.7237      46.7237      46.7237 
  159000    129.70957    -7197.744   -6518.8049   -425.10743     102002.7      46.7237      46.7237      46.7237 
  160000    130.64671   -7177.8324    -6493.988   -761.57426     102002.7      46.7237      46.7237      46.7237 
  161000    126.17629   -7194.5258   -6534.0809   -865.51034     102002.7      46.7237      46.7237      46.7237 
  162000    125.41643   -7173.2254   -6516.7579   -938.98905     102002.7      46.7237      46.7237      46.7237 
  163000    133.41683   -7184.2475   -6485.9034    -603.1091     102002.7      46.7237      46.7237      46.7237 
  164000    127.94222   -7186.0998   -6516.4115   -359.87034     102002.7      46.7237      46.7237      46.7237 
  165000    129.80959   -7185.5548   -6506.0922   -610.44234     102002.7      46.7237      46.7237      46.7237 
  166000    133.90968   -7186.5643   -6485.6406   -652.27219     102002.7      46.7237      46.7237      46.7237 
  167000    128.53607   -7188.3628   -6515.5662   -917.41688     102002.7      46.7237      46.7237      46.7237 
  168000    126.45841   -7180.5265   -6518.6049   -645.30488     102002.7      46.7237      46.7237      46.7237 
  169000    130.12687    -7189.781   -6508.6576   -928.29646     102002.7      46.7237      46.7237      46.7237 
  170000    131.32194   -7176.9685   -6489.5898   -788.74944     102002.7      46.7237      46.7237      46.7237 
  171000    125.18602   -7183.8822   -6528.6207   -585.83574     102002.7      46.7237      46.7237      46.7237 
  172000    131.39896   -7185.6122   -6497.8303   -810.76489     102002.7      46.7237      46.7237      46.7237 
  173000    132.22479   -7193.1953   -6501.0907   -425.17561     102002.7      46.7237      46.7237      46.7237 
  174000    129.80395   -7211.0075   -6531.5743   -918.36524     102002.7      46.7237      46.7237      46.7237 
  175000    128.66728   -7184.2551   -6510.7717   -694.18323     102002.7      46.7237      46.7237      46.7237 
  176000    130.34201   -7186.7182   -6504.4687    -726.8655     102002.7      46.7237      46.7237      46.7237 
  177000    125.15316   -7194.1149   -6539.0254   -573.55434     102002.7      46.7237      46.7237      46.7237 
  178000    127.14158   -7193.2876   -6527.7901   -530.76625     102002.7      46.7237      46.7237      46.7237 
  179000    133.40928   -7169.6206   -6471.3161   -302.77564     102002.7      46.7237      46.7237      46.7237 
  180000    126.53907   -7197.7644   -6535.4206   -508.03765     102002.7      46.7237      46.7237      46.7237 
  181000    134.38818    -7197.056   -6493.6276   -527.38169     102002.7      46.7237      46.7237      46.7237 
  182000    130.51663   -7221.2903   -6538.1267   -269.07071     102002.7      46.7237      46.7237      46.7237 
  183000    134.51935    -7205.834    -6501.719   -799.12598     102002.7      46.7237      46.7237      46.7237 
  184000    128.68043    -7223.309   -6549.7567   -840.36647     102002.7      46.7237      46.7237      46.7237 
  185000    128.58416   -7200.1067   -6527.0584   -944.31032     102002.7      46.7237      46.7237      46.7237 
  186000     128.7657   -7180.6106    -6506.612   -737.56384     102002.7      46.7237      46.7237      46.7237 
  187000     133.6889   -7185.8936   -6486.1254   -807.85515     102002.7      46.7237      46.7237      46.7237 
  188000    128.00444   -7193.5943   -6523.5804   -899.65363     102002.7      46.7237      46.7237      46.7237 
  189000     126.4164   -7206.0801   -6544.3785   -710.39553     102002.7      46.7237      46.7237      46.7237 
  190000    132.36995   -7196.0139   -6503.1496   -766.19225     102002.7      46.7237      46.7237      46.7237 
  191000    129.68999   -7217.4748   -6538.6381   -1032.0111     102002.7      46.7237      46.7237      46.7237 
  192000    132.72595    -7194.169   -6499.4412   -886.36247     102002.7      46.7237      46.7237      46.7237 
  193000    130.28834    -7189.992   -6508.0234   -854.01469     102002.7      46.7237      46.7237      46.7237 
  194000    126.86683   -7186.8016   -6522.7423   -727.13229     102002.7      46.7237      46.7237      46.7237 
  195000    131.25192   -7175.2624   -6488.2501   -687.92792     102002.7      46.7237      46.7237      46.7237 
  196000    128.02796   -7181.9271     -6511.79   -748.11093     102002.7      46.7237      46.7237      46.7237 
  197000     125.6618   -7175.1651   -6517.4132   -1026.6293     102002.7      46.7237      46.7237      46.7237 
  198000    134.30469   -7184.2833   -6481.2919   -607.30741     102002.7      46.7237      46.7237      46.7237 
  199000    131.99978   -7205.2718    -6514.345   -760.41726     102002.7      46.7237      46.7237      46.7237 
  200000    129.98669   -7192.7638   -6512.3742   -506.29837     102002.7      46.7237      46.7237      46.7237 
  201000    130.53394   -7181.8346   -6498.5805   -803.85959     102002.7      46.7237      46.7237      46.7237 
  202000    125.30978    -7197.452   -6541.5427   -712.32407     102002.7      46.7237      46.7237      46.7237 
  203000    133.65556   -7185.2009   -6485.6072   -547.36818     102002.7      46.7237      46.7237      46.7237 
  204000    129.70011   -7195.8292   -6516.9396   -754.14865     102002.7      46.7237      46.7237      46.7237 
  205000    126.29368   -7207.8993     -6546.84   -705.65193     102002.7      46.7237      46.7237      46.7237 
  206000    130.08247   -7173.7347   -6492.8437   -680.00329     102002.7      46.7237      46.7237      46.7237 
  207000    129.15257   -7192.9576    -6516.934   -488.67305     102002.7      46.7237      46.7237      46.7237 
  208000    130.21397   -7164.4555   -6482.8762   -490.15056     102002.7      46.7237      46.7237      46.7237 
  209000     132.7478   -7193.2494   -6498.4073   -528.97096     102002.7      46.7237      46.7237      46.7237 
  210000    126.77241   -7202.0065   -6538.4413   -895.79193     102002.7      46.7237      46.7237      46.7237 
  211000    129.03079   -7196.7215   -6521.3353   -839.74254     102002.7      46.7237      46.7237      46.7237 
  212000    129.32996   -7173.2112    -6496.259   -1045.4153     102002.7      46.7237      46.7237      46.7237 
  213000    128.51787   -7200.9903    -6528.289   -748.71261     102002.7      46.7237      46.7237      46.7237 
  214000    131.48633   -7162.4223   -6474.1831   -977.90535     102002.7      46.7237      46.7237      46.7237 
  215000    132.18841   -7218.9964   -6527.0822   -862.77169     102002.7      46.7237      46.7237      46.7237 
  216000    134.19426    -7214.273   -6511.8597   -840.22123     102002.7      46.7237      46.7237      46.7237 
  217000    134.30635   -7202.4536   -6499.4535   -403.98777     102002.7      46.7237      46.7237      46.7237 
  218000    128.83272     -7207.11   -6532.7605   -575.02802     102002.7      46.7237      46.7237      46.7237 
  219000    132.61559   -7172.7062   -6478.5561   -538.75419     102002.7      46.7237      46.7237      46.7237 
  220000    132.21568   -7172.9346   -6480.8778   -779.39765     102002.7      46.7237      46.7237      46.7237 
  221000    131.45968    -7190.307   -6502.2073   -801.26035     102002.7      46.7237      46.7237      46.7237 
  222000    130.41986   -7188.1889   -6505.5319   -910.54736     102002.7      46.7237      46.7237      46.7237 
  223000    135.25357   -7187.9902   -6480.0321   -735.20277     102002.7      46.7237      46.7237      46.7237 
  224000    131.36874     -7203.39   -6515.7663   -952.55659     102002.7      46.7237      46.7237      46.7237 
  225000    130.05437   -7182.9117   -6502.1678   -779.88867     102002.7      46.7237      46.7237      46.7237 
  226000    130.03374   -7184.5084   -6503.8725   -631.11697     102002.7      46.7237      46.7237      46.7237 
  227000    126.21708   -7204.9801   -6544.3218   -736.04912     102002.7      46.7237      46.7237      46.7237 
  228000    129.91521   -7207.4936   -6527.4781   -667.65841     102002.7      46.7237      46.7237      46.7237 
  229000    127.11768   -7175.0514    -6509.679   -685.78137     102002.7      46.7237      46.7237      46.7237 
  230000    128.19147   -7198.8059   -6527.8129   -791.74433     102002.7      46.7237      46.7237      46.7237 
  231000    131.49762   -7169.7222   -6481.4239   -758.54851     102002.7      46.7237      46.7237      46.7237 
  232000    129.66071    -7200.626   -6521.9426   -670.39069     102002.7      46.7237      46.7237      46.7237 
  233000    130.21868   -7212.3775   -6530.7735    -633.8416     102002.7      46.7237      46.7237      46.7237 
  234000    128.88086   -7185.5155   -6510.9141   -853.01193     102002.7      46.7237      46.7237      46.7237 
  235000    127.71297   -7205.9104   -6537.4222   -441.91763     102002.7      46.7237      46.7237      46.7237 
  236000    132.46256   -7199.1556   -6505.8064   -519.07327     102002.7      46.7237      46.7237      46.7237 
  237000    132.29188   -7198.4127   -6505.9569   -923.93863     102002.7      46.7237      46.7237      46.7237 
  238000    130.77469   -7167.7878   -6483.2736   -725.20427     102002.7      46.7237      46.7237      46.7237 
  239000    133.12166   -7195.7881   -6498.9891   -766.40432     102002.7      46.7237      46.7237      46.7237 
  240000    125.36443   -7221.4151   -6565.2197   -728.44595     102002.7      46.7237      46.7237      46.7237 
  241000    131.74157   -7198.2748   -6508.6996   -609.07876     102002.7      46.7237      46.7237      46.7237 
  242000     131.3262   -7168.3955   -6480.9945   -281.63658     102002.7      46.7237      46.7237      46.7237 
  243000    129.83111   -7199.3545   -6519.7792    -531.9783     102002.7      46.7237      46.7237      46.7237 
  244000    127.12228   -7208.5372   -6543.1408   -817.46714     102002.7      46.7237      46.7237      46.7237 
  245000     129.2863   -7201.4736     -6524.75   -747.09076     102002.7      46.7237      46.7237      46.7237 
  246000    134.82045   -7198.6148   -6492.9238   -691.56994     102002.7      46.7237      46.7237      46.7237 
  247000    132.12464   -7186.1725   -6494.5921   -672.38907     102002.7      46.7237      46.7237      46.7237 
  248000    128.89602   -7198.0779   -6523.3971   -493.95404     102002.7      46.7237      46.7237      46.7237 
  249000    130.94132   -7185.8244   -6500.4379   -632.50554     102002.7      46.7237      46.7237      46.7237 
  250000    126.11565   -7177.5253   -6517.3979   -309.24299     102002.7      46.7237      46.7237      46.7237 
  251000    130.80942   -7190.6522   -6505.9561   -845.10421     102002.7      46.7237      46.7237      46.7237 
  252000    130.57444    -7203.806   -6520.3399   -630.29052     102002.7      46.7237      46.7237      46.7237 
  253000    123.52729   -7180.3351   -6533.7559   -722.42033     102002.7      46.7237      46.7237      46.7237 
  254000    128.03275   -7206.8683   -6536.7062   -857.65681     102002.7      46.7237      46.7237      46.7237 
  255000    131.64764   -7190.9061   -6501.8225   -641.96037     102002.7      46.7237      46.7237      46.7237 
  256000    131.50888   -7201.4123   -6513.0551   -539.57449     102002.7      46.7237      46.7237      46.7237 
  257000    131.81774   -7204.6061   -6514.6322   -519.44721     102002.7      46.7237      46.7237      46.7237 
  258000    122.28834   -7168.9886   -6528.8945   -518.40054     102002.7      46.7237      46.7237      46.7237 
  259000    130.29283   -7192.5691    -6510.577   -498.78426     102002.7      46.7237      46.7237      46.7237 
  260000    133.20181   -7184.3816    -6487.163   -539.52817     102002.7      46.7237      46.7237      46.7237 
  261000    129.16295    -7208.791    -6532.713   -643.19675     102002.7      46.7237      46.7237      46.7237 
  262000    130.09111   -7188.1706   -6507.2343   -463.02698     102002.7      46.7237      46.7237      46.7237 
  263000    128.15707   -7188.1257   -6517.3128   -667.43849     102002.7      46.7237      46.7237      46.7237 
  264000    129.38644   -7178.7748    -6501.527   -862.12647     102002.7      46.7237      46.7237      46.7237 
  265000    131.72326   -7181.3813   -6491.9019   -599.61035     102002.7      46.7237      46.7237      46.7237 
  266000    133.24757   -7176.9334   -6479.4754    -649.1136     102002.7      46.7237      46.7237      46.7237 
  267000    129.19423   -7204.2166   -6527.9749    -872.3294     102002.7      46.7237      46.7237      46.7237 
  268000    136.10438   -7178.9323   -6466.5208   -954.31017     102002.7      46.7237      46.7237      46.7237 
  269000    131.19059   -7208.1826   -6521.4914   -1038.3574     102002.7      46.7237      46.7237      46.7237 
  270000    128.16436    -7202.569    -6531.718   -856.53616     102002.7      46.7237      46.7237      46.7237 
  271000    129.29102   -7162.5171   -6485.7688   -762.56633     102002.7      46.7237      46.7237      46.7237 
  272000    127.50598   -7182.0468    -6514.642   -798.19109     102002.7      46.7237      46.7237      46.7237 
  273000    127.86932   -7188.1317   -6518.8249    -727.4388     102002.7      46.7237      46.7237      46.7237 
  274000    125.40827   -7206.3155   -6549.8907   -644.00611     102002.7      46.7237      46.7237      46.7237 
  275000    129.29663   -7185.9189   -6509.1412   -751.31523     102002.7      46.7237      46.7237      46.7237 
  276000     131.3548   -7171.2543   -6483.7035   -953.37208     102002.7      46.7237      46.7237      46.7237 
  277000    128.14167   -7182.8696   -6512.1373   -712.07093     102002.7      46.7237      46.7237      46.7237 
  278000    128.41049   -7195.3524   -6523.2131   -1118.6179     102002.7      46.7237      46.7237      46.7237 
  279000    132.79072   -7180.9551   -6485.8883   -517.36907     102002.7      46.7237      46.7237      46.7237 
  280000    131.22989   -7190.7084   -6503.8115   -857.43569     102002.7      46.7237      46.7237      46.7237 
  281000    130.10842   -7205.7627   -6524.7359   -864.08832     102002.7      46.7237      46.7237      46.7237 
  282000    128.99308   -7173.9533   -6498.7645   -444.24325     102002.7      46.7237      46.7237      46.7237 
  283000    127.48454   -7191.9034   -6524.6108   -956.05193     102002.7      46.7237      46.7237      46.7237 
  284000    129.26347    -7194.689   -6518.0849   -382.00432     102002.7      46.7237      46.7237      46.7237 
  285000    129.63005   -7190.8567   -6512.3337     -781.603     102002.7      46.7237      46.7237      46.7237 
  286000    126.70202   -7203.8991   -6540.7025   -571.56205     102002.7      46.7237      46.7237      46.7237 
  287000     132.7451   -7197.7728   -6502.9448   -766.97547     102002.7      46.7237      46.7237      46.7237 
  288000     132.9113   -7174.6867   -6478.9888   -604.91971     102002.7      46.7237      46.7237      46.7237 
  289000    127.94345   -7198.8152   -6529.1205   -660.82682     102002.7      46.7237      46.7237      46.7237 
  290000    129.62775   -7176.3547   -6497.8438   -857.46524     102002.7      46.7237      46.7237      46.7237 
  291000    129.36071   -7178.8151    -6501.702   -628.10068     102002.7      46.7237      46.7237      46.7237 
  292000    132.10713   -7191.3403   -6499.8516   -998.44731     102002.7      46.7237      46.7237      46.7237 
  293000    130.75429   -7190.6225   -6506.2151   -683.14375     102002.7      46.7237      46.7237      46.7237 
  294000    130.13633   -7194.6893   -6513.5163   -826.86645     102002.7      46.7237      46.7237      46.7237 
  295000    132.58405   -7182.3405   -6488.3555    -692.1375     102002.7      46.7237      46.7237      46.7237 
  296000    129.48229   -7180.0268   -6502.2773   -470.03139     102002.7      46.7237      46.7237      46.7237 
  297000    128.53847   -7171.7385   -6498.9292   -647.00923     102002.7      46.7237      46.7237      46.7237 
  298000    128.19896   -7197.4904   -6526.4583   -795.59213     102002.7      46.7237      46.7237      46.7237 
  299000    131.04809   -7200.3742   -6514.4289   -874.42619     102002.7      46.7237      46.7237      46.7237 
  300000    129.74166   -7209.3474   -6530.2403    -783.9997     102002.7      46.7237      46.7237      46.7237 
  301000     131.4292   -7187.7305   -6499.7903   -939.49035     102002.7      46.7237      46.7237      46.7237 
  302000    130.24279   -7184.4346   -6502.7045   -744.40953     102002.7      46.7237      46.7237      46.7237 
  303000    126.26762   -7197.6449    -6536.722   -755.72582     102002.7      46.7237      46.7237      46.7237 
  304000     132.1697   -7176.1163   -6484.3001   -727.55052     102002.7      46.7237      46.7237      46.7237 
  305000    131.09031   -7178.6057   -6492.4394   -673.63089     102002.7      46.7237      46.7237      46.7237 
  306000    129.60432   -7189.6265   -6511.2383    -932.7685     102002.7      46.7237      46.7237      46.7237 
  307000    130.37485   -7178.6869   -6496.2655   -1089.7001     102002.7      46.7237      46.7237      46.7237 
  308000    128.67924   -7186.8831   -6513.3371   -917.50999     102002.7      46.7237      46.7237      46.7237 
  309000    129.49018   -7175.1668    -6497.376   -843.98001     102002.7      46.7237      46.7237      46.7237 
  310000    132.02135   -7178.4225   -6487.3828   -869.34737     102002.7      46.7237      46.7237      46.7237 
  311000    131.20797   -7172.4049   -6485.6227   -878.04825     102002.7      46.7237      46.7237      46.7237 
  312000    131.15771   -7212.2145   -6525.6953   -798.33346     102002.7      46.7237      46.7237      46.7237 
  313000    132.99697   -7186.9012   -6490.7548   -598.87252     102002.7      46.7237      46.7237      46.7237 
  314000    132.10064   -7185.1271   -6493.6723   -557.59176     102002.7      46.7237      46.7237      46.7237 
  315000    126.69109   -7190.8101   -6527.6706   -715.08913     102002.7      46.7237      46.7237      46.7237 
  316000     130.6022   -7203.0043   -6519.3928   -543.69571     102002.7      46.7237      46.7237      46.7237 
  317000    133.74822     -7193.54   -6493.4613   -886.64405     102002.7      46.7237      46.7237      46.7237 
  318000    126.24215   -7187.5433   -6526.7537   -858.83331     102002.7      46.7237      46.7237      46.7237 
  319000    134.53652   -7206.7716   -6502.5668   -574.82055     102002.7      46.7237      46.7237      46.7237 
  320000    131.39533   -7191.6965   -6503.9336   -739.44799     102002.7      46.7237      46.7237      46.7237 
  321000     133.6647   -7206.8608   -6507.2193   -321.45486     102002.7      46.7237      46.7237      46.7237 
  322000    126.15756   -7191.5035   -6531.1566   -556.68572     102002.7      46.7237      46.7237      46.7237 
  323000    132.21091   -7214.4284   -6522.3965   -605.75892     102002.7      46.7237      46.7237      46.7237 
  324000    131.19639    -7189.377   -6502.6554    -521.2876     102002.7      46.7237      46.7237      46.7237 
  325000    131.36609   -7218.5654   -6530.9556   -522.61678     102002.7      46.7237      46.7237      46.7237 
  326000    126.54838   -7186.1373   -6523.7448   -1154.4505     102002.7      46.7237      46.7237      46.7237 
  327000     133.3723   -7175.2881   -6477.1772   -843.18957     102002.7      46.7237      46.7237      46.7237 
  328000    129.18312   -7193.8554   -6517.6719   -445.20533     102002.7      46.7237      46.7237      46.7237 
  329000    133.87738   -7167.7262   -6466.9715    -592.2427     102002.7      46.7237      46.7237      46.7237 
  330000     125.0389   -7174.9168   -6520.4254   -476.98817     102002.7      46.7237      46.7237      46.7237 
  331000     133.0514   -7192.9292   -6496.4979    -700.9679     102002.7      46.7237      46.7237      46.7237 
  332000    125.67387   -7209.1114   -6551.2964   -541.94651     102002.7      46.7237      46.7237      46.7237 
  333000    132.40566   -7203.9025   -6510.8512   -624.28269     102002.7      46.7237      46.7237      46.7237 
  334000    131.17701   -7193.6446   -6507.0244   -708.63462     102002.7      46.7237      46.7237      46.7237 
  335000    125.01745   -7194.3269   -6539.9478   -813.38334     102002.7      46.7237      46.7237      46.7237 
  336000    128.82394   -7186.2899   -6511.9864   -956.57885     102002.7      46.7237      46.7237      46.7237 
  337000    129.75466   -7184.6949   -6505.5198   -583.70924     102002.7      46.7237      46.7237      46.7237 
  338000    126.90346   -7184.3892   -6520.1381   -852.05646     102002.7      46.7237      46.7237      46.7237 
  339000    125.34188   -7205.2819   -6549.2045   -791.85568     102002.7      46.7237      46.7237      46.7237 
  340000    129.19056   -7182.8744   -6506.6519   -742.50047     102002.7      46.7237      46.7237      46.7237 
  341000    129.49946     -7188.01   -6510.1707    -832.3484     102002.7      46.7237      46.7237      46.7237 
  342000    129.77223   -7213.6522   -6534.3851   -613.45313     102002.7      46.7237      46.7237      46.7237 
  343000    130.92396   -7175.3249   -6490.0293   -718.06372     102002.7      46.7237      46.7237      46.7237 
  344000    129.13056    -7207.554   -6531.6455   -739.13817     102002.7      46.7237      46.7237      46.7237 
  345000    130.55163   -7186.1139   -6502.7672   -741.91628     102002.7      46.7237      46.7237      46.7237 
  346000    135.32477   -7205.2784   -6496.9476   -647.42868     102002.7      46.7237      46.7237      46.7237 
  347000    127.52372    -7186.553   -6519.0553   -716.51228     102002.7      46.7237      46.7237      46.7237 
  348000    132.02535   -7181.6144   -6490.5537   -638.78305     102002.7      46.7237      46.7237      46.7237 
  349000    129.68863    -7195.681   -6516.8514   -341.26306     102002.7      46.7237      46.7237      46.7237 
  350000    132.57516   -7173.4127   -6479.4742   -839.35284     102002.7      46.7237      46.7237      46.7237 
  351000    128.45682   -7183.2881   -6510.9063   -950.18589     102002.7      46.7237      46.7237      46.7237 
  352000    131.79211   -7187.3973   -6497.5576   -741.12504     102002.7      46.7237      46.7237      46.7237 
  353000     128.8598    -7206.271   -6531.7799   -748.46889     102002.7      46.7237      46.7237      46.7237 
  354000    134.03608   -7196.6508   -6495.0654   -566.81785     102002.7      46.7237      46.7237      46.7237 
  355000     128.8564   -7173.2731   -6498.7997   -630.73834     102002.7      46.7237      46.7237      46.7237 
  356000    127.15414   -7197.0819   -6531.5187   -551.96891     102002.7      46.7237      46.7237      46.7237 
  357000    127.73113   -7203.6626   -6535.0793   -533.42343     102002.7      46.7237      46.7237      46.7237 
  358000    127.59568   -7188.0694   -6520.1951   -771.02354     102002.7      46.7237      46.7237      46.7237 
  359000    131.08849   -7197.3976   -6511.2408   -1019.1134     102002.7      46.7237      46.7237      46.7237 
  360000    126.85115   -7204.0565   -6540.0792   -650.32563     102002.7      46.7237      46.7237      46.7237 
  361000    134.15937   -7193.4965   -6491.2658   -852.94013     102002.7      46.7237      46.7237      46.7237 
  362000    131.81192   -7194.1118   -6504.1684   -726.32195     102002.7      46.7237      46.7237      46.7237 
  363000    130.27513   -7212.4767   -6530.5773   -401.66873     102002.7      46.7237      46.7237      46.7237 
  364000    131.72511   -7179.2353   -6489.7462   -549.14572     102002.7      46.7237      46.7237      46.7237 
  365000    124.18691   -7211.6176   -6561.5857   -809.64697     102002.7      46.7237      46.7237      46.7237 
  366000     132.3351   -7191.3225   -6498.6406   -491.24012     102002.7      46.7237      46.7237      46.7237 
  367000    126.51075   -7194.3064   -6532.1109   -523.97631     102002.7      46.7237      46.7237      46.7237 
  368000    133.13352   -7194.8088   -6497.9476   -1075.2376     102002.7      46.7237      46.7237      46.7237 
  369000     129.8894   -7203.5352   -6523.6547   -489.21155     102002.7      46.7237      46.7237      46.7237 
  370000    133.97586   -7182.0183   -6480.7481   -749.41614     102002.7      46.7237      46.7237      46.7237 
  371000    131.35678   -7202.4269   -6514.8658   -731.55269     102002.7      46.7237      46.7237      46.7237 
  372000    128.70264   -7201.3024   -6527.6339   -425.81828     102002.7      46.7237      46.7237      46.7237 
  373000    133.45238   -7181.2545   -6482.7244   -393.41531     102002.7      46.7237      46.7237      46.7237 
  374000     134.8303   -7210.6308   -6504.8882   -770.24204     102002.7      46.7237      46.7237      46.7237 
  375000    130.17904   -7207.6329   -6526.2364   -700.21823     102002.7      46.7237      46.7237      46.7237 
  376000    129.10917   -7184.7349   -6508.9384   -758.16168     102002.7      46.7237      46.7237      46.7237 
  377000     135.9572   -7180.7572   -6469.1161   -1108.0202     102002.7      46.7237      46.7237      46.7237 
  378000    125.85991   -7182.9055   -6524.1166   -972.86801     102002.7      46.7237      46.7237      46.7237 
  379000     127.0589   -7196.6889   -6531.6242   -881.18916     102002.7      46.7237      46.7237      46.7237 
  380000    128.46977   -7184.4406    -6511.991   -958.34792     102002.7      46.7237      46.7237      46.7237 
  381000    127.44098   -7216.6752   -6549.6106   -475.83118     102002.7      46.7237      46.7237      46.7237 
  382000    132.01916   -7193.8536   -6502.8254    -772.9086     102002.7      46.7237      46.7237      46.7237 
  383000    132.19311   -7194.5922   -6502.6534   -526.38248     102002.7      46.7237      46.7237      46.7237 
  384000    126.87664   -7187.2795   -6523.1689   -750.77262     102002.7      46.7237      46.7237      46.7237 
  385000      133.233   -7211.5736   -6514.1918   -602.29409     102002.7      46.7237      46.7237      46.7237 
  386000    129.53282   -7194.2938   -6516.2798   -799.06933     102002.7      46.7237      46.7237      46.7237 
  387000    125.55179   -7192.6633   -6535.4873   -738.86759     102002.7      46.7237      46.7237      46.7237 
  388000    128.80393   -7179.2996   -6505.1009   -803.28892     102002.7      46.7237      46.7237      46.7237 
  389000    127.05475   -7204.3083   -6539.2653   -822.05993     102002.7      46.7237      46.7237      46.7237 
  390000    129.56357   -7202.8316   -6524.6567   -669.64207     102002.7      46.7237      46.7237      46.7237 
  391000    132.12179   -7196.6477   -6505.0823   -905.84004     102002.7      46.7237      46.7237      46.7237 
  392000    125.75171   -7193.4713   -6535.2488   -694.57604     102002.7      46.7237      46.7237      46.7237 
  393000     134.8235   -7176.2532   -6470.5462   -783.29115     102002.7      46.7237      46.7237      46.7237 
  394000    131.48747   -7204.6186   -6516.3734   -1132.9178     102002.7      46.7237      46.7237      46.7237 
  395000    128.68563   -7180.5722   -6506.9927   -909.25858     102002.7      46.7237      46.7237      46.7237 
  396000    129.95405   -7190.4431   -6510.2243   -869.21767     102002.7      46.7237      46.7237      46.7237 
  397000    131.53895   -7183.5128   -6494.9982   -681.09168     102002.7      46.7237      46.7237      46.7237 
  398000    132.22471     -7210.56   -6518.4559   -909.16727     102002.7      46.7237      46.7237      46.7237 
  399000    130.22272   -7175.3701    -6493.745   -698.97359     102002.7      46.7237      46.7237      46.7237 
  400000    128.36785   -7184.2009   -6512.2848   -732.48658     102002.7      46.7237      46.7237      46.7237 
  401000    124.31865   -7215.4871   -6564.7657   -790.81462     102002.7      46.7237      46.7237      46.7237 
  402000    131.37145   -7168.1159    -6480.478   -963.69839     102002.7      46.7237      46.7237      46.7237 
  403000    131.51048   -7202.4927   -6514.1271   -1092.0687     102002.7      46.7237      46.7237      46.7237 
  404000    128.95879   -7180.8854   -6505.8762     -688.019     102002.7      46.7237      46.7237      46.7237 
  405000    131.53059   -7201.8912   -6513.4204   -977.06741     102002.7      46.7237      46.7237      46.7237 
  406000    125.26716   -7198.2569   -6542.5707   -885.37243     102002.7      46.7237      46.7237      46.7237 
  407000    131.36536   -7193.4421   -6505.8361   -728.36012     102002.7      46.7237      46.7237      46.7237 
  408000    124.63086   -7182.6252   -6530.2696   -1082.2933     102002.7      46.7237      46.7237      46.7237 
  409000     133.5889    -7190.552   -6491.3072   -672.30756     102002.7      46.7237      46.7237      46.7237 
  410000    126.99693   -7187.7782   -6523.0379   -640.42588     102002.7      46.7237      46.7237      46.7237 
  411000    132.72324    -7169.481   -6474.7674   -720.48639     102002.7      46.7237      46.7237      46.7237 
  412000    127.59714   -7173.6562   -6505.7742   -782.90643     102002.7      46.7237      46.7237      46.7237 
  413000    132.02571   -7212.1404   -6521.0779   -919.36742     102002.7      46.7237      46.7237      46.7237 
  414000    126.69431   -7191.7688   -6528.6125    -935.2322     102002.7      46.7237      46.7237      46.7237 
  415000    130.79522   -7185.2756   -6500.6539   -420.46159     102002.7      46.7237      46.7237      46.7237 
  416000    130.24602    -7208.436   -6526.6889    -657.3774     102002.7      46.7237      46.7237      46.7237 
  417000    128.05865   -7182.1226   -6511.8249    -935.6111     102002.7      46.7237      46.7237      46.7237 
  418000    130.73199   -7192.8966   -6508.6058   -914.02542     102002.7      46.7237      46.7237      46.7237 
  419000    129.28159    -7200.496   -6523.7971   -664.13037     102002.7      46.7237      46.7237      46.7237 
  420000    128.49244   -7174.8201   -6502.2518   -678.09017     102002.7      46.7237      46.7237      46.7237 
  421000    126.79776   -7181.0175   -6517.3197   -776.84761     102002.7      46.7237      46.7237      46.7237 
  422000    130.81476   -7185.5694   -6500.8454   -627.55512     102002.7      46.7237      46.7237      46.7237 
  423000    132.21427   -7211.5108   -6519.4613    -431.5292     102002.7      46.7237      46.7237      46.7237 
  424000    129.92069   -7196.8431   -6516.7989   -814.47939     102002.7      46.7237      46.7237      46.7237 
  425000    129.98069   -7197.4363   -6517.0781   -864.00415     102002.7      46.7237      46.7237      46.7237 
  426000    131.08939   -7176.6165    -6490.455   -801.64932     102002.7      46.7237      46.7237      46.7237 
  427000    133.89806   -7184.8954   -6484.0325   -783.85266     102002.7      46.7237      46.7237      46.7237 
  428000    127.59282   -7186.1107   -6518.2513   -524.64928     102002.7      46.7237      46.7237      46.7237 
  429000    130.57805   -7188.0957   -6504.6107   -673.20155     102002.7      46.7237      46.7237      46.7237 
  430000    124.22276    -7189.606   -6539.3865    -509.7442     102002.7      46.7237      46.7237      46.7237 
  431000    133.84469   -7179.6197   -6479.0361   -637.83797     102002.7      46.7237      46.7237      46.7237 
  432000    129.89724   -7191.3383   -6511.4168   -706.19229     102002.7      46.7237      46.7237      46.7237 
  433000    134.48002    -7215.305   -6511.3959   -759.17176     102002.7      46.7237      46.7237      46.7237 
  434000     128.3356   -7156.9741   -6485.2268    -956.8674     102002.7      46.7237      46.7237      46.7237 
  435000    125.31535   -7189.1851   -6533.2467   -790.52393     102002.7      46.7237      46.7237      46.7237 
  436000    132.70514    -7185.034   -6490.4152   -824.39959     102002.7      46.7237      46.7237      46.7237 
  437000     128.7386   -7191.3218    -6517.465   -537.94502     102002.7      46.7237      46.7237      46.7237 
  438000    130.91516    -7188.637   -6503.3874   -1060.5229     102002.7      46.7237      46.7237      46.7237 
  439000    133.14683   -7189.4314   -6492.5006   -805.06013     102002.7      46.7237      46.7237      46.7237 
  440000    127.39118     -7184.76    -6517.956   -911.15283     102002.7      46.7237      46.7237      46.7237 
  441000     130.5242   -7183.0719   -6499.8687   -755.92936     102002.7      46.7237      46.7237      46.7237 
  442000    131.89744   -7178.1254   -6487.7343   -788.49245     102002.7      46.7237      46.7237      46.7237 
  443000     127.4478    -7213.729   -6546.6287   -584.00557     102002.7      46.7237      46.7237      46.7237 
  444000    130.57246   -7185.9526   -6502.4969   -276.41729     102002.7      46.7237      46.7237      46.7237 
  445000    132.39023   -7182.1732   -6489.2027   -622.32303     102002.7      46.7237      46.7237      46.7237 
  446000    126.09273   -7180.9401   -6520.9326   -516.59783     102002.7      46.7237      46.7237      46.7237 
  447000    125.92779   -7184.2402    -6525.096   -575.16911     102002.7      46.7237      46.7237      46.7237 
  448000    132.73564   -7206.5994   -6511.8209   -940.01013     102002.7      46.7237      46.7237      46.7237 
  449000    134.73955   -7179.1989   -6473.9313   -491.74623     102002.7      46.7237      46.7237      46.7237 
  450000    129.12146   -7205.4651   -6529.6043   -1035.3341     102002.7      46.7237      46.7237      46.7237 
  451000    124.97584   -7190.2145   -6536.0531   -951.11173     102002.7      46.7237      46.7237      46.7237 
  452000    128.14437   -7168.5984    -6497.852   -951.60691     102002.7      46.7237      46.7237      46.7237 
  453000    124.83011   -7211.7891   -6558.3906   -472.00078     102002.7      46.7237      46.7237      46.7237 
  454000    132.14033   -7185.8474   -6494.1849   -708.68478     102002.7      46.7237      46.7237      46.7237 
  455000    130.14875   -7201.4577   -6520.2198   -657.37567     102002.7      46.7237      46.7237      46.7237 
  456000    128.44473   -7201.6273   -6529.3087   -398.12926     102002.7      46.7237      46.7237      46.7237 
  457000    128.48993   -7199.8322    -6527.277    -225.0154     102002.7      46.7237      46.7237      46.7237 
  458000    130.29065   -7177.9656   -6495.9849   -600.49207     102002.7      46.7237      46.7237      46.7237 
  459000    127.43272   -7197.6927   -6530.6713   -795.17275     102002.7      46.7237      46.7237      46.7237 
  460000    125.87101   -7185.1641   -6526.3172   -584.02252     102002.7      46.7237      46.7237      46.7237 
  461000    134.97511   -7193.9708   -6487.4703   -621.09145     102002.7      46.7237      46.7237      46.7237 
  462000    125.80342   -7191.3476   -6532.8545   -522.13194     102002.7      46.7237      46.7237      46.7237 
  463000    130.78792   -7196.6047   -6512.0212    -456.0043     102002.7      46.7237      46.7237      46.7237 
  464000    126.99493   -7170.8676   -6506.1377   -603.83107     102002.7      46.7237      46.7237      46.7237 
  465000    130.13971   -7204.7462   -6523.5556   -797.69114     102002.7      46.7237      46.7237      46.7237 
  466000    127.03951   -7201.8099   -6536.8466   -787.28304     102002.7      46.7237      46.7237      46.7237 
  467000    132.52287   -7202.1928    -6508.528   -547.89772     102002.7      46.7237      46.7237      46.7237 
  468000     126.7999   -7176.8439   -6513.1349   -786.53567     102002.7      46.7237      46.7237      46.7237 
  469000    125.49909   -7198.9728   -6542.0726   -479.00423     102002.7      46.7237      46.7237      46.7237 
  470000    133.65845   -7183.0083   -6483.3996   -747.96566     102002.7      46.7237      46.7237      46.7237 
  471000    130.00896   -7190.4333   -6509.9271   -503.99348     102002.7      46.7237      46.7237      46.7237 
  472000    126.79982   -7221.1121   -6557.4035   -797.09755     102002.7      46.7237      46.7237      46.7237 
  473000    126.41912    -7185.321   -6523.6051   -614.19747     102002.7      46.7237      46.7237      46.7237 
  474000    131.46215   -7162.7368   -6474.6242   -764.55463     102002.7      46.7237      46.7237      46.7237 
  475000    135.03135   -7197.1283   -6490.3334   -433.56186     102002.7      46.7237      46.7237      46.7237 
  476000    128.79085   -7196.1236   -6521.9933   -835.45178     102002.7      46.7237      46.7237      46.7237 
  477000    125.74553   -7208.4673   -6550.2772   -666.95378     102002.7      46.7237      46.7237      46.7237 
  478000    131.28959   -7189.8656   -6502.6561   -761.65417     102002.7      46.7237      46.7237      46.7237 
  479000    131.03859   -7208.0476    -6522.152   -808.20786     102002.7      46.7237      46.7237      46.7237 
  480000    130.37929   -7182.6651   -6500.2204   -822.18289     102002.7      46.7237      46.7237      46.7237 
  481000    133.63344   -7186.7496   -6487.2717   -852.35841     102002.7      46.7237      46.7237      46.7237 
  482000    128.26672   -7186.0904   -6514.7036   -781.60085     102002.7      46.7237      46.7237      46.7237 
  483000    128.26914    -7205.377   -6533.9776   -520.52804     102002.7      46.7237      46.7237      46.7237 
  484000    129.34914   -7172.8879   -6495.8354   -762.48604     102002.7      46.7237      46.7237      46.7237 
  485000    131.90732   -7202.0005   -6511.5577   -836.51489     102002.7      46.7237      46.7237      46.7237 
  486000    128.64097   -7198.3805   -6525.0347   -586.65448     102002.7      46.7237      46.7237      46.7237 
  487000    133.16178   -7200.7751   -6503.7661   -840.63209     102002.7      46.7237      46.7237      46.7237 
  488000    133.37961   -7182.5969   -6484.4477    -484.2707     102002.7      46.7237      46.7237      46.7237 
  489000    129.06598   -7194.0607   -6518.4903   -922.34803     102002.7      46.7237      46.7237      46.7237 
  490000    133.03655   -7169.7152   -6473.3616   -672.09782     102002.7      46.7237      46.7237      46.7237 
  491000    131.24972   -7195.8695   -6508.8687   -837.27679     102002.7      46.7237      46.7237      46.7237 
  492000    133.83531   -7184.7842   -6484.2497   -728.58233     102002.7      46.7237      46.7237      46.7237 
  493000    129.17553   -7177.2649    -6501.121   -452.75258     102002.7      46.7237      46.7237      46.7237 
  494000    129.50432    -7212.673   -6534.8082   -302.75973     102002.7      46.7237      46.7237      46.7237 
  495000    132.66416   -7185.8247   -6491.4203   -513.31719     102002.7      46.7237      46.7237      46.7237 
  496000    128.90533   -7207.7013   -6532.9718   -768.63565     102002.7      46.7237      46.7237      46.7237 
  497000    133.44961   -7194.8689   -6496.3532   -775.92136     102002.7      46.7237      46.7237      46.7237 
  498000    131.84957   -7202.2625   -6512.1219   -511.02159     102002.7      46.7237      46.7237      46.7237 
  499000    131.31324   -7191.9039   -6504.5706    -517.6355     102002.7      46.7237      46.7237      46.7237 
  500000    124.87502   -7203.6458   -6550.0122   -628.30479     102002.7      46.7237      46.7237      46.7237 
  500507    130.03666   -7214.5699   -6533.9187   -372.60241     102002.7      46.7237      46.7237      46.7237 
Loop time of 1280.41 on 16 procs for 500000 steps with 1757 atoms

Performance: 33.739 ns/day, 0.711 hours/ns, 390.499 timesteps/s
99.8% CPU use with 16 MPI tasks x no OpenMP threads

MPI task timing breakdown:
Section |  min time  |  avg time  |  max time  |%varavg| %total
---------------------------------------------------------------
Pair    | 514.65     | 691.18     | 870.36     | 476.0 | 53.98
Bond    | 165.64     | 174.04     | 178.75     |  30.3 | 13.59
Neigh   | 4.898      | 4.9304     | 4.9923     |   1.5 |  0.39
Comm    | 214.9      | 396.95     | 576.3      | 632.6 | 31.00
Output  | 0.020513   | 0.020913   | 0.023855   |   0.5 |  0.00
Modify  | 7.2502     | 7.8973     | 8.4625     |  15.1 |  0.62
Other   |            | 5.399      |            |       |  0.42

Nlocal:    109.812 ave 131 max 80 min
Histogram: 1 0 0 2 2 3 3 3 1 1
Nghost:    2251.06 ave 2283 max 2217 min
Histogram: 1 1 0 1 1 7 3 1 0 1
Neighs:    11467.6 ave 15332 max 6894 min
Histogram: 1 1 3 1 2 0 2 1 4 1

Total # of neighbors = 183481
Ave neighs/atom = 104.429
Ave special neighs/atom = 6.55663
Neighbor list builds = 4126
Dangerous builds = 0
Neighbor list info ...
  update every 1 steps, delay 10 steps, check yes
  max neighbors/atom: 2000, page size: 100000
  master list distance cutoff = 16
  ghost atom cutoff = 16
  binsize = 8, bins = 6 6 6
  3 neighbor lists, perpetual/occasional/extra = 3 0 0
  (1) pair buck6d/coul/gauss/dsf, perpetual, skip from (3)
      attributes: half, newton on
      pair build: skip
      stencil: none
      bin: none
  (2) pair lj/cut, perpetual, skip from (3)
      attributes: half, newton on
      pair build: skip
      stencil: none
      bin: none
  (3) neighbor class addition, perpetual
      attributes: half, newton on
      pair build: half/bin/newton
      stencil: half/bin/3d/newton
      bin: standard
Setting up Verlet run ...
  Unit style    : real
  Current step  : 500507
  Time step     : 1
WARNING: Inconsistent image flags (../domain.cpp:786)
Per MPI rank memory allocation (min/avg/max) = 23.07 | 23.32 | 23.34 Mbytes
Step Time TotEng KinEng PotEng E_mol E_pair Temp Pxx Pyy Pzz Pxy Pxz Pyz Cella Cellb Cellc CellAlpha CellBeta CellGamma Volume Press 
  500507       500000   -6533.9187     680.6512   -7214.5699    4372.9233   -11587.493    130.03666   -403.82292   -257.74029   -456.24404    47.076035   -83.111583    30.167132      46.7237      46.7237      46.7237           90           90           90     102002.7   -372.60241 
  501000       500493   -6525.0192    671.81975   -7196.8389     4388.564   -11585.403    128.34943   -1035.0628   -413.50172   -550.86071   -32.149197   -219.87695   -165.13136      46.7237      46.7237      46.7237           90           90           90     102002.7   -666.47507 
  502000       501493   -6517.8759    668.37982   -7186.2557    4421.5481   -11607.804    127.69224   -636.73283   -1002.7873   -423.22822    164.25441    66.380191    183.01244      46.7237      46.7237      46.7237           90           90           90     102002.7   -687.58279 
  503000       502493   -6509.9282    668.90276    -7178.831    4412.5523   -11591.383    127.79215   -703.24283    -1072.639   -1009.7453    175.78404   -26.490683    172.50891      46.7237      46.7237      46.7237           90           90           90     102002.7   -928.54237 
  504000       503493   -6520.3585    666.54534   -7186.9038    4402.1818   -11589.086    127.34177    -518.3681   -460.46186   -561.03792    -41.78553   -127.00709   -386.16769      46.7237      46.7237      46.7237           90           90           90     102002.7   -513.28929 
  505000       504493   -6527.4993    672.61216   -7200.1114    4385.1179   -11585.229    128.50082   -591.19479   -852.04192   -729.06461   -194.74531   -35.601054    227.34441      46.7237      46.7237      46.7237           90           90           90     102002.7   -724.10044 
  506000       505493   -6491.7425    678.41888   -7170.1614    4425.0485    -11595.21    129.61018   -910.87672   -639.72798   -1016.5103    181.29798    -3.921996    163.30461      46.7237      46.7237      46.7237           90           90           90     102002.7   -855.70499 
  507000       506493   -6486.5402    681.70325   -7168.2435    4423.6704   -11591.914    130.23765   -323.59737   -479.35235   -689.15604     94.19184    -102.6169   -353.68484      46.7237      46.7237      46.7237           90           90           90     102002.7   -497.36859 
  508000       507493   -6527.3009    669.52996   -7196.8308    4411.0662   -11607.897    127.91197   -1037.6626   -347.48116    -906.2632   -262.63606   -44.006754   -153.28695      46.7237      46.7237      46.7237           90           90           90     102002.7   -763.80233 
  509000       508493   -6520.4172    694.16244   -7214.5796    4383.2334   -11597.813    132.61795   -597.03854   -468.68478    -735.5843    54.106762    179.46371    -288.8881      46.7237      46.7237      46.7237           90           90           90     102002.7   -600.43587 
  510000       509493    -6494.772    675.34233   -7170.1143    4420.3739   -11590.488    129.02241   -459.38928   -967.62815   -486.24568    238.57691   -67.272234    308.03733      46.7237      46.7237      46.7237           90           90           90     102002.7   -637.75437 
  511000       510493   -6497.8995    687.02313   -7184.9226    4417.9075    -11602.83      131.254   -506.78373   -857.38404   -533.70335   -304.32086   -287.40881    103.55743      46.7237      46.7237      46.7237           90           90           90     102002.7   -632.62371 
  512000       511493   -6523.0174    668.84851   -7191.8659    4412.1904   -11604.056    127.78178   -835.57833    -489.1185   -792.11255   -25.745789    198.81833    -135.4927      46.7237      46.7237      46.7237           90           90           90     102002.7   -705.60313 
  513000       512493   -6519.4185    677.78357   -7197.2021    4410.0809   -11607.283     129.4888   -586.12073   -534.87108   -953.19715    211.66105   -6.2278771    439.61443      46.7237      46.7237      46.7237           90           90           90     102002.7   -691.39632 
  514000       513493   -6507.5254    689.35704   -7196.8825    4398.0408   -11594.923    131.69989   -767.34655   -875.87798   -374.40115    60.477525   -385.37172    80.219069      46.7237      46.7237      46.7237           90           90           90     102002.7   -672.54189 
  515000       514493   -6518.7104    676.00929   -7194.7197    4388.9842   -11583.704    129.14983   -436.32605   -533.08992    -596.2008    12.725239    68.210061      14.1446      46.7237      46.7237      46.7237           90           90           90     102002.7   -521.87226 
  516000       515493   -6465.3433    708.43611   -7173.7794    4428.1636   -11601.943    135.34489   -490.75835   -654.22353   -624.33008   -83.673433   -10.224875   -365.84728      46.7237      46.7237      46.7237           90           90           90     102002.7   -589.77065 
  517000       516493   -6531.7381    661.18168   -7192.9198    4386.7858   -11579.706    126.31706   -218.72601   -888.49318   -621.87814    49.576567    214.23649   -81.689638      46.7237      46.7237      46.7237           90           90           90     102002.7   -576.36578 
  518000       517493   -6499.3941    685.65276   -7185.0469    4405.2104   -11590.257    130.99219   -644.41375   -554.80722    -695.9965    -55.82041    -58.59633    418.06076      46.7237      46.7237      46.7237           90           90           90     102002.7   -631.73916 
  519000       518493   -6507.0593     697.0498   -7204.1091    4382.9319   -11587.041    133.16957   -448.56149   -465.55581   -506.36106   -222.80935 -0.0011026883   -76.586876      46.7237      46.7237      46.7237           90           90           90     102002.7   -473.49279 
  520000       519493   -6498.1725    694.84145    -7193.014    4378.3876   -11571.402    132.74767   -663.05033    -936.3962   -454.91762    -438.6598    4.6411729   -368.20267      46.7237      46.7237      46.7237           90           90           90     102002.7   -684.78805 
  521000       520493   -6533.1303    660.72242   -7193.8528    4403.4762   -11597.329    126.22932   -449.46862   -609.07773   -586.50351    9.5143489    -9.585004    128.39413      46.7237      46.7237      46.7237           90           90           90     102002.7   -548.34995 
  522000       521493   -6527.8678    671.25963   -7199.1274      4400.46   -11599.587    128.24242   -610.48381   -673.68433   -949.97605   -78.580564   -87.636426    203.43153      46.7237      46.7237      46.7237           90           90           90     102002.7   -744.71473 
  523000       522493   -6531.9491    647.36544   -7179.3145    4411.0408   -11590.355     123.6775   -703.55866   -767.08184   -545.25375   -88.601683   0.56160966    276.11706      46.7237      46.7237      46.7237           90           90           90     102002.7   -671.96475 
  524000       523493   -6486.5028    694.75505   -7181.2579    4385.9934   -11567.251    132.73116    -469.3385   -351.58971   -426.50525    145.37369   -92.448096   -88.028646      46.7237      46.7237      46.7237           90           90           90     102002.7   -415.81116 
  525000       524493   -6519.7733    668.89762    -7188.671    4399.2661   -11587.937    127.79117   -385.46908   -598.26226   -267.14932    101.63806    37.155289    24.369265      46.7237      46.7237      46.7237           90           90           90     102002.7   -416.96022 
  526000       525493   -6544.9706    672.86005   -7217.8307    4379.8874   -11597.718    128.54818   -940.57797   -780.13657   -626.88459    38.540235   -12.569164    99.741649      46.7237      46.7237      46.7237           90           90           90     102002.7   -782.53305 
  527000       526493   -6502.9308    691.48288   -7194.4136    4410.4355   -11604.849    132.10602   -918.20549   -517.89522   -821.03869    171.55876   -170.37701   -65.106158      46.7237      46.7237      46.7237           90           90           90     102002.7    -752.3798 
  528000       527493   -6506.0745    689.79551     -7195.87    4390.6071   -11586.477    131.78365   -472.73087   -502.61927   -785.98843    59.215291    131.86134   -208.32457      46.7237      46.7237      46.7237           90           90           90     102002.7   -587.11286 
  529000       528493   -6478.4399     701.5749   -7180.0148    4408.0351    -11588.05    134.03408   -311.03463   -785.99613   -969.39214    -394.3761    202.31391   -155.10789      46.7237      46.7237      46.7237           90           90           90     102002.7   -688.80763 
  530000       529493   -6507.7198    671.30433   -7179.0241    4390.9305   -11569.955    128.25096   -826.49099   -568.72463   -495.29054   -7.3339716   -119.74448   -18.758601      46.7237      46.7237      46.7237           90           90           90     102002.7   -630.16872 
  531000       530493   -6499.8223    687.23233   -7187.0547    4410.2242   -11597.279    131.29397   -496.26831   -792.18428    -1138.752    103.02119    99.090226   -47.707022      46.7237      46.7237      46.7237           90           90           90     102002.7   -809.06821 
  532000       531493   -6507.0732    683.83926   -7190.9125    4386.1023   -11577.015    130.64573   -293.66529   -598.22538   -354.93963   -37.548412    46.960326    -201.1354      46.7237      46.7237      46.7237           90           90           90     102002.7    -415.6101 
  533000       532493   -6511.5915    697.41632   -7209.0078     4380.401   -11589.409    133.23959   -934.68092   -543.21093   -630.45901   -101.64329   -226.73992    82.426424      46.7237      46.7237      46.7237           90           90           90     102002.7   -702.78362 
  534000       533493   -6537.7437     668.1708   -7205.9145    4389.3266   -11595.241    127.65231   -1059.1226   -431.93753   -632.10759   -55.121117    43.085837    156.98409      46.7237      46.7237      46.7237           90           90           90     102002.7   -707.72256 
  535000       534493   -6506.9994    675.08889   -7182.0882     4399.842    -11581.93    128.97399   -261.99312   -911.91032   -639.60761    60.675848   -59.929891    232.42193      46.7237      46.7237      46.7237           90           90           90     102002.7   -604.50369 
  536000       535493   -6500.1021    675.70966   -7175.8117    4421.4413   -11597.253    129.09259   -847.46226   -929.88384   -423.50641   -109.34802   -237.43577    48.785989      46.7237      46.7237      46.7237           90           90           90     102002.7   -733.61751 
  537000       536493   -6532.1737     679.8607   -7212.0344    4383.1211   -11595.156    129.88564   -490.95901   -566.80209   -623.51615   -355.62165    91.671192   -100.37685      46.7237      46.7237      46.7237           90           90           90     102002.7   -560.42575 
  538000       537493   -6516.2481    671.23698   -7187.4851    4415.9629   -11603.448     128.2381   -769.70544   -811.81235   -475.25545   -212.92793    20.857385    230.89663      46.7237      46.7237      46.7237           90           90           90     102002.7   -685.59108 
  539000       538493   -6498.0471    691.35902   -7189.4061    4411.3209   -11600.727    132.08236   -612.09597   -794.56824   -819.54919      1.97034   -4.1665655    165.13518      46.7237      46.7237      46.7237           90           90           90     102002.7   -742.07113 
  540000       539493   -6519.0105    689.80885   -7208.8193     4395.153   -11603.972     131.7862   -886.06272   -623.44359   -519.23817   -52.834084    18.700579    204.17671      46.7237      46.7237      46.7237           90           90           90     102002.7   -676.24816 
  541000       540493   -6499.5422    718.89372   -7218.4359    4385.4432   -11603.879    137.34279   -618.01198   -976.70714   -593.21652     7.752675   -20.675526    51.367133      46.7237      46.7237      46.7237           90           90           90     102002.7   -729.31188 
  542000       541493   -6522.4015    689.35317   -7211.7546    4399.3265   -11611.081    131.69915    -1137.057    -685.4442   -726.54207    -56.30786    62.203581   -67.081961      46.7237      46.7237      46.7237           90           90           90     102002.7    -849.6811 
  543000       542493   -6500.2707    693.77838   -7194.0491    4389.1814    -11583.23    132.54457   -625.57811   -500.09291   -731.68679    74.784195    53.779759    25.183827      46.7237      46.7237      46.7237           90           90           90     102002.7   -619.11927 
  544000       543493   -6497.8108    692.82825   -7190.6391    4407.9224   -11598.561    132.36305   -887.31044   -963.91272   -830.93605     74.38082     121.7557   -60.082978      46.7237      46.7237      46.7237           90           90           90     102002.7   -894.05307 
  545000       544493   -6510.9667    666.08214   -7177.0488    4401.0315    -11578.08    127.25328   -1003.1574   -1013.0399   -522.26266    66.860471     292.1921   -219.39752      46.7237      46.7237      46.7237           90           90           90     102002.7   -846.15331 
  546000       545493   -6506.2226    665.87144    -7172.094    4429.6511   -11601.745    127.21302   -461.42202   -661.24543   -476.85282   -494.64994    43.760539    191.09003      46.7237      46.7237      46.7237           90           90           90     102002.7   -533.17343 
  547000       546493   -6518.1183    670.73285   -7188.8511    4408.4706   -11597.322    128.14178   -808.36429    -459.7403   -783.12784    61.980725    29.677309    364.00348      46.7237      46.7237      46.7237           90           90           90     102002.7   -683.74415 
  548000       547493   -6480.2378    693.14194   -7173.3797    4424.1458   -11597.526    132.42298   -500.83061   -688.76788   -616.54106    77.882582    132.12901     130.3964      46.7237      46.7237      46.7237           90           90           90     102002.7   -602.04652 
  549000       548493   -6517.8881    668.64295   -7186.5311    4425.9832   -11612.514    127.74251   -459.62634   -258.00591    -544.2479   -231.81165    131.44681   -204.46394      46.7237      46.7237      46.7237           90           90           90     102002.7   -420.62672 
  550000       549493   -6482.6626    693.99955   -7176.6621    4413.1103   -11589.772    132.58683   -637.04986    -793.0608   -813.88313   -160.13179    25.417169    94.461235      46.7237      46.7237      46.7237           90           90           90     102002.7   -747.99793 
  551000       550493   -6514.2865    672.78369   -7187.0702    4415.5646   -11602.635    128.53359   -1088.1665   -672.40908   -678.02362     98.18842    118.72066    8.4228452      46.7237      46.7237      46.7237           90           90           90     102002.7   -812.86641 
  552000       551493   -6495.7735    699.82865   -7195.6021    4404.6595   -11600.262    133.70046    -838.9792    -1105.262    -621.2253   -174.23066    293.31379    52.023123      46.7237      46.7237      46.7237           90           90           90     102002.7    -855.1555 
  553000       552493   -6521.8176    683.04163   -7204.8593    4397.8307    -11602.69    130.49334   -1236.0377   -746.20395   -1079.0717   -1.4800093    66.165363   -84.355296      46.7237      46.7237      46.7237           90           90           90     102002.7   -1020.4378 
  554000       553493   -6492.0784    697.99303   -7190.0714    4391.4969   -11581.568    133.34977   -699.15114   -914.51843   -514.87027    53.315653    272.30118   -232.64281      46.7237      46.7237      46.7237           90           90           90     102002.7   -709.51328 
  555000       554493   -6523.4425    667.84033   -7191.2828    4415.9158   -11607.199    127.58917   -616.23853   -1152.2798    -674.7533     2.213642     224.2268    5.5158959      46.7237      46.7237      46.7237           90           90           90     102002.7   -814.42387 
[...]
  936000       935493   -6530.9074    663.89621   -7194.8036    4398.4326   -11593.236    126.83566    -846.1172   -584.45962   -827.43479   -203.90114   -81.479628   -94.481005      46.7237      46.7237      46.7237           90           90           90     102002.7   -752.67053 
  937000       936493   -6494.2803    689.28145   -7183.5618    4433.0259   -11616.588    131.68545   -1362.5951   -1055.4906   -938.44685    288.07844    191.27815    142.07251      46.7237      46.7237      46.7237           90           90           90     102002.7   -1118.8442 
  938000       937493   -6543.2004    659.38021   -7202.5806    4397.6742   -11600.255    125.97289   -1077.9634   -568.21193   -288.68395    52.935325   -263.75177   -50.578195      46.7237      46.7237      46.7237           90           90           90     102002.7   -644.95309 
  939000       938493   -6512.6582    685.31418   -7197.9724    4372.2459   -11570.218    130.92751   -966.88904   -620.89595   -301.98489    65.992816   -14.790729   -72.298698      46.7237      46.7237      46.7237           90           90           90     102002.7   -629.92329 
  940000       939493   -6502.5501    690.71198   -7193.2621    4401.3054   -11594.567    131.95874   -454.66818   -817.58166   -392.27945    94.109222    115.52269    -277.6522      46.7237      46.7237      46.7237           90           90           90     102002.7    -554.8431 
  941000       940493   -6491.6352    704.95341   -7196.5886    4397.9559   -11594.544    134.67953    -838.1751   -645.21031   -352.39377   -140.29005    123.09624    108.81449      46.7237      46.7237      46.7237           90           90           90     102002.7   -611.92639 
  942000       941493   -6520.8778    671.61417   -7192.4919    4405.5493   -11598.041    128.31016   -1276.5491      -543.76   -465.72546    111.74923   -112.62511   -83.069679      46.7237      46.7237      46.7237           90           90           90     102002.7   -762.01152 
  943000       942493   -6528.2037     676.2832   -7204.4869    4382.3161   -11586.803    129.20216   -904.49913   -560.09343   -250.33397   -225.86188   -82.490349   -169.32684      46.7237      46.7237      46.7237           90           90           90     102002.7   -571.64218 
  944000       943493   -6518.8254    686.05328   -7204.8786     4407.027   -11611.906    131.06871   -719.08681   -561.53304   -613.77798    268.86654   -46.385276    102.59164      46.7237      46.7237      46.7237           90           90           90     102002.7   -631.46594 
  945000       944493   -6507.1069     685.0737   -7192.1806    4402.1774   -11594.358    130.88157   -825.42702   -835.74323   -591.82942    150.81891   -13.763891    -84.30735      46.7237      46.7237      46.7237           90           90           90     102002.7   -750.99989 
  946000       945493   -6488.1988      686.318   -7174.5168    4410.2854   -11584.802    131.11929   -1117.7629   -336.23979   -450.63875   -178.27655   -170.46086    314.83464      46.7237      46.7237      46.7237           90           90           90     102002.7   -634.88049 
  947000       946493   -6511.5842    690.49177   -7202.0759    4383.9054   -11585.981    131.91667   -929.88533   -116.17344   -737.78663   -97.616775   -102.35714   -174.23551      46.7237      46.7237      46.7237           90           90           90     102002.7   -594.61513 
  948000       947493    -6522.534    668.55176   -7191.0858    4396.9749   -11588.061    127.72509    -292.2998   -804.03677   -1079.8831     -306.563   -59.022423    255.79842      46.7237      46.7237      46.7237           90           90           90     102002.7   -725.40656 
  949000       948493   -6505.5577    677.37697   -7182.9347    4425.4142   -11608.349    129.41113   -1210.1586   -792.10098   -375.57682   -116.51719   -254.04977   -63.310874      46.7237      46.7237      46.7237           90           90           90     102002.7   -792.61213 
  950000       949493   -6509.9689    671.47373   -7181.4427    4418.7907   -11600.233    128.28333   -897.29508   -844.62273   -312.76745    263.73494    17.839501   -428.92971      46.7237      46.7237      46.7237           90           90           90     102002.7   -684.89509 
  951000       950493   -6531.4893    661.31722   -7192.8065     4408.148   -11600.955    126.34295   -383.64839    -700.5976   -882.59442   -18.185009    78.053696    113.44901      46.7237      46.7237      46.7237           90           90           90     102002.7   -655.61347 
  952000       951493   -6530.1619    666.57724   -7196.7391    4393.5999   -11590.339    127.34786   -589.62441   -502.31994   -482.44923   -62.029227   -27.355239   -420.36929      46.7237      46.7237      46.7237           90           90           90     102002.7   -524.79786 
  953000       952493   -6506.4693    673.76005   -7180.2294    4420.1109    -11600.34    128.72012   -543.99746   -1070.4724   -685.05368    124.81731    239.23456   -27.067666      46.7237      46.7237      46.7237           90           90           90     102002.7   -766.50786 
  954000       953493    -6536.799    666.63261   -7203.4316    4372.7373   -11576.169    127.35844   -953.48291   -440.75103    -775.1585    14.974527    277.02297    291.58234      46.7237      46.7237      46.7237           90           90           90     102002.7   -723.13081 
  955000       954493   -6504.7906    683.81088   -7188.6015    4428.5488    -11617.15    130.64031   -1239.3837   -230.05598   -765.03735   -19.459614   -171.14822    135.58567      46.7237      46.7237      46.7237           90           90           90     102002.7   -744.82569 
  956000       955493   -6504.0897    674.04303   -7178.1327    4420.2724   -11598.405    128.77418   -814.22907   -1040.1167   -1220.1263   -210.93205   -20.009631    33.382104      46.7237      46.7237      46.7237           90           90           90     102002.7    -1024.824 
  957000       956493   -6545.9631    662.47383   -7208.4369    4385.8215   -11594.258    126.56392   -901.90727   -881.64577   -541.19292   -193.81711    78.310953   -83.234518      46.7237      46.7237      46.7237           90           90           90     102002.7   -774.91532 
  958000       957493   -6508.4066    691.81343   -7200.2201    4386.0887   -11586.309    132.16917   -682.58202   -389.01684   -651.18625    52.340319    160.79997    212.29148      46.7237      46.7237      46.7237           90           90           90     102002.7    -574.2617 
  959000       958493   -6511.2369    671.04484   -7182.2818    4411.4779    -11593.76    128.20139   -909.28342   -920.91211   -555.03889   -19.085387    106.99329   -174.26908      46.7237      46.7237      46.7237           90           90           90     102002.7   -795.07814 
  960000       959493   -6502.6714    681.37055   -7184.0419    4423.6144   -11607.656    130.17409   -761.08556   -549.53226    -756.7037      198.556    60.789113   -103.08857      46.7237      46.7237      46.7237           90           90           90     102002.7   -689.10717 
  961000       960493    -6505.471     666.3136   -7171.7846    4406.8508   -11578.635     127.2975   -576.35974   -742.40772   -319.84507    33.299145     -86.6628    164.14891      46.7237      46.7237      46.7237           90           90           90     102002.7   -546.20418 
  962000       961493   -6491.1259    697.42534   -7188.5512    4393.8947   -11582.446    133.24132   -380.57613   -420.83492   -643.39794    6.5046353    62.434496    152.52925      46.7237      46.7237      46.7237           90           90           90     102002.7     -481.603 
  963000       962493   -6499.1063    655.22655   -7154.3328    4434.0762   -11588.409    125.17934   -329.10054   -851.39068   -692.60845   -170.83487   -136.61058   -174.90088      46.7237      46.7237      46.7237           90           90           90     102002.7   -624.36656 
  964000       963493   -6536.2536    683.88086   -7220.1345    4401.0565   -11621.191    130.65368   -205.81541   -1122.4506   -687.65902   -80.080179   -29.196386    69.805544      46.7237      46.7237      46.7237           90           90           90     102002.7     -671.975 
  965000       964493   -6510.3967    702.66221   -7213.0589    4387.8229   -11600.882    134.24181   -870.89827   -939.85449   -959.21525   -193.89598    44.245175     46.66724      46.7237      46.7237      46.7237           90           90           90     102002.7   -923.32267 
  966000       965493   -6546.9676     674.0947   -7221.0623    4391.9454   -11613.008    128.78406   -461.27094   -565.11286   -714.07258    13.232162    169.24371   -38.363495      46.7237      46.7237      46.7237           90           90           90     102002.7   -580.15213 
  967000       966493   -6525.3554    688.10544   -7213.4608    4391.2666   -11604.727    131.46077   -1040.1985   -271.99005   -585.08992      20.6281    4.3020485   -193.50563      46.7237      46.7237      46.7237           90           90           90     102002.7   -632.42615 
  968000       967493   -6499.0141    690.42451   -7189.4386    4413.6298   -11603.068    131.90383   -848.94567   -603.61865   -884.87722    146.25172    137.26004    88.524408      46.7237      46.7237      46.7237           90           90           90     102002.7   -779.14718 
  969000       968493   -6502.1692    670.16109   -7172.3303    4431.8199    -11604.15    128.03255   -272.32601   -1056.0093   -728.27833    281.68542   -23.559554   -55.247584      46.7237      46.7237      46.7237           90           90           90     102002.7   -685.53787 
  970000       969493   -6515.7469    664.81551   -7180.5624    4414.0681   -11594.631    127.01129   -615.37303   -682.62556   -996.37929    74.352852   -59.173696    156.05074      46.7237      46.7237      46.7237           90           90           90     102002.7   -764.79262 
  971000       970493   -6498.5314    671.53876   -7170.0701    4424.7432   -11594.813    128.29575   -458.51925   -676.12645   -1001.6305     95.01599    73.812261   -372.96423      46.7237      46.7237      46.7237           90           90           90     102002.7   -712.09207 
  972000       971493   -6533.0389     651.8868   -7184.9257    4421.1768   -11606.103    124.54129   -1156.3807   -732.00428   -830.92034     10.07022    60.855674   -199.79098      46.7237      46.7237      46.7237           90           90           90     102002.7    -906.4351 
  973000       972493   -6513.7376    686.55657   -7200.2942    4413.6606   -11613.955    131.16486   -613.23655   -945.45034   -814.18787     69.14922   -189.49063   -40.263207      46.7237      46.7237      46.7237           90           90           90     102002.7   -790.95825 
  974000       973493   -6509.3831    693.93325   -7203.3164    4391.7724   -11595.089    132.57416   -734.36565   -343.20753   -1076.4229   -5.9056241    167.18763   -213.38806      46.7237      46.7237      46.7237           90           90           90     102002.7   -717.99869 
  975000       974493   -6530.5642    654.43792   -7185.0021    4407.5702   -11592.572    125.02868   -918.78535   -640.40088   -606.67893    80.727237    231.86192   -207.05128      46.7237      46.7237      46.7237           90           90           90     102002.7   -721.95506 
  976000       975493   -6511.5491    678.65755   -7190.2066    4407.6675   -11597.874    129.65578   -887.74336   -629.79668   -463.94613   -4.8503025    93.369135    169.56835      46.7237      46.7237      46.7237           90           90           90     102002.7   -660.49539 
  977000       976493   -6495.5687    693.41918   -7188.9879     4413.267   -11602.255    132.47595   -177.05556   -610.92584   -1038.6196   -16.559303    -147.1641    39.846135      46.7237      46.7237      46.7237           90           90           90     102002.7   -608.86699 
  978000       977493   -6506.6345     698.8415    -7205.476    4401.5863   -11607.062    133.51187   -941.62037    -934.9533   -765.99441    104.90991   -54.253082    31.224465      46.7237      46.7237      46.7237           90           90           90     102002.7   -880.85603 
  979000       978493   -6512.3682    691.34607   -7203.7143    4387.6667   -11591.381    132.07989   -263.58173   -600.78412   -782.37896    120.13008   -131.20185    47.457804      46.7237      46.7237      46.7237           90           90           90     102002.7   -548.91493 
  980000       979493   -6513.0857    688.43666   -7201.5224    4392.6943   -11594.217    131.52405   -1075.6951    -973.6853   -429.69354   -97.266406     87.65934    10.309298      46.7237      46.7237      46.7237           90           90           90     102002.7   -826.35797 
  981000       980493   -6480.6856    675.03812   -7155.7237      4457.18   -11612.904    128.96429   -677.44137    -744.2451   -908.08681   -75.515456    2.8951909   -65.025491      46.7237      46.7237      46.7237           90           90           90     102002.7   -776.59109 
  982000       981493   -6509.3227    664.68517   -7174.0079    4425.9075   -11599.915    126.98639   -964.98859   -1305.7873   -649.25738    20.697735   -16.726648   -54.240757      46.7237      46.7237      46.7237           90           90           90     102002.7   -973.34443 
  983000       982493   -6521.3389    685.21375   -7206.5527     4383.782   -11590.335    130.90832   -883.37686    -961.1509     -451.958    304.96374    240.88774    51.906486      46.7237      46.7237      46.7237           90           90           90     102002.7   -765.49525 
  984000       983493   -6510.9763    680.82176   -7191.7981    4417.1993   -11608.997    130.06924   -930.85039   -632.11596   -437.86516   -185.66461   -48.039922   -47.610584      46.7237      46.7237      46.7237           90           90           90     102002.7   -666.94383 
  985000       984493   -6520.2948    678.23202   -7198.5268    4402.9269   -11601.454    129.57448    -892.6572   -902.83398     -906.147    7.3569165   -3.1610837    173.72162      46.7237      46.7237      46.7237           90           90           90     102002.7   -900.54606 
  986000       985493   -6468.9543    714.23607   -7183.1904    4407.0675   -11590.258    136.45296    -1022.422    -647.3955   -232.91716    222.77698   -50.798976   -21.539015      46.7237      46.7237      46.7237           90           90           90     102002.7    -634.2449 
  987000       986493   -6496.9468    657.65736   -7154.6042    4434.8262    -11589.43    125.64374   -1103.7798   -1196.7547   -1222.6527   -5.4815408    81.352453       348.49      46.7237      46.7237      46.7237           90           90           90     102002.7   -1174.3957 
  988000       987493   -6540.8057    673.02676   -7213.8324    4363.8486   -11577.681    128.58003    -1033.314    -964.9026    -384.6133    2.0670459   -222.53716   -132.23538      46.7237      46.7237      46.7237           90           90           90     102002.7   -794.27664 
  989000       988493   -6518.6609    677.45733   -7196.1182     4407.127   -11603.245    129.42648   -624.70073   -888.83367   -292.48254   -91.524019    -52.25771    118.75393      46.7237      46.7237      46.7237           90           90           90     102002.7   -602.00565 
  990000       989493   -6523.7284    676.07853   -7199.8069    4389.5218   -11589.329    129.16306   -636.10854   -684.75565   -1157.7648   -144.12541    22.868732   -78.791317      46.7237      46.7237      46.7237           90           90           90     102002.7   -826.20965 
  991000       990493   -6523.6376    667.17817   -7190.8157    4387.4267   -11578.242    127.46267   -820.67522   -480.24535    -348.9337    161.80854    38.151126    34.092986      46.7237      46.7237      46.7237           90           90           90     102002.7   -549.95142 
  992000       991493   -6477.7749    707.82979   -7185.6047    4429.0931   -11614.698    135.22906   -972.29638   -633.18538   -1042.7342    203.00247    167.35195    160.50472      46.7237      46.7237      46.7237           90           90           90     102002.7   -882.73865 
  993000       992493   -6510.0075    679.16061   -7189.1681    4398.5343   -11587.702    129.75188   -923.08878   -684.45777   -748.94667    -39.01473    344.95219   -167.85496      46.7237      46.7237      46.7237           90           90           90     102002.7   -785.49774 
  994000       993493   -6531.6976    662.00585   -7193.7034    4393.1299   -11586.833    126.47451   -740.80171   -462.15768   -1107.3422    134.67069    85.271403    67.771496      46.7237      46.7237      46.7237           90           90           90     102002.7   -770.10054 
  995000       994493   -6488.8997    697.21137    -7186.111    4400.9115   -11587.023    133.20044   -636.78414   -636.80067   -21.292051    249.87857    8.1415363   -104.54723      46.7237      46.7237      46.7237           90           90           90     102002.7   -431.62562 
  996000       995493   -6525.6716    680.34784   -7206.0194    4369.9145   -11575.934     129.9787       -456.9   -841.60729   -448.73865    58.351835    262.17209   -22.967462      46.7237      46.7237      46.7237           90           90           90     102002.7   -582.41531 
  997000       996493   -6472.2981    709.04913   -7181.3473    4422.4059   -11603.753    135.46201   -1165.3048   -846.53133   -667.51399   -14.705686    108.53288   -159.57129      46.7237      46.7237      46.7237           90           90           90     102002.7   -893.11671 
  998000       997493    -6516.447    679.60613   -7196.0532    4405.8018   -11601.855      129.837   -1126.7684   -996.64979   -1118.3686    236.21185   -7.3385883   -65.360627      46.7237      46.7237      46.7237           90           90           90     102002.7   -1080.5956 
  999000       998493   -6527.1665    683.99414   -7211.1607    4397.7618   -11608.922    130.67532   -479.33759   -599.24147   -568.85907   -79.496584   -69.358457   -60.694662      46.7237      46.7237      46.7237           90           90           90     102002.7   -549.14604 
 1000000       999493   -6490.0988    692.06765   -7182.1665    4398.6523   -11580.819    132.21774    -1302.443   -829.24441   -360.33743   -286.67663     205.4571    -87.84103      46.7237      46.7237      46.7237           90           90           90     102002.7   -830.67493 
 1000507      1000000    -6511.006    660.78539   -7171.7914    4416.6938   -11588.485    126.24135   -287.18634   -443.05449   -940.85741   -366.18907    289.08794    23.884196      46.7237      46.7237      46.7237           90           90           90     102002.7   -557.03274 
Loop time of 1418.78 on 16 procs for 500000 steps with 1757 atoms

Performance: 30.449 ns/day, 0.788 hours/ns, 352.416 timesteps/s
99.8% CPU use with 16 MPI tasks x no OpenMP threads

MPI task timing breakdown:
Section |  min time  |  avg time  |  max time  |%varavg| %total
---------------------------------------------------------------
Pair    | 556.56     | 776.93     | 983.63     | 534.1 | 54.76
Bond    | 167.3      | 183.11     | 198.2      |  63.5 | 12.91
Neigh   | 4.7526     | 4.7838     | 4.8466     |   1.6 |  0.34
Comm    | 204.42     | 426.47     | 656.67     | 744.0 | 30.06
Output  | 0.096718   | 0.10151    | 0.10193    |   0.4 |  0.01
Modify  | 21.434     | 22.147     | 22.786     |  10.3 |  1.56
Other   |            | 5.237      |            |       |  0.37

Nlocal:    109.812 ave 136 max 67 min
Histogram: 1 0 1 0 1 4 4 2 1 2
Nghost:    2253.31 ave 2290 max 2222 min
Histogram: 1 1 1 2 4 4 1 0 1 1
Neighs:    11471.4 ave 16101 max 4808 min
Histogram: 1 0 2 2 2 0 1 4 3 1

Total # of neighbors = 183542
Ave neighs/atom = 104.463
Ave special neighs/atom = 6.55663
Neighbor list builds = 4088
Dangerous builds = 0
Total wall time: 0:45:02
