LAMMPS (30 Mar 2018)
Reading data file ...
  orthogonal box = (0 0 0) to (46.7237 46.7237 46.7237)
  2 by 3 by 4 MPI processor grid
  reading atoms ...
  1729 atoms
  scanning bonds ...
  5 = max bonds/atom
  scanning angles ...
  10 = max angles/atom
  scanning dihedrals ...
  32 = max dihedrals/atom
  scanning impropers ...
  3 = max impropers/atom
  reading bonds ...
  2064 bonds
  reading angles ...
  3696 angles
  reading dihedrals ...
  6240 dihedrals
  reading impropers ...
  1008 impropers
Finding 1-2 1-3 1-4 neighbors ...
  special bond factors lj:   0          0          0         
  special bond factors coul: 0          0          0         
  5 = max # of 1-2 neighbors
  8 = max # of 1-3 neighbors
  20 = max # of 1-4 neighbors
  19 = max # of special neighbors
Finding 1-2 1-3 1-4 neighbors ...
  special bond factors lj:   0          0          1         
  special bond factors coul: 1          1          1         
  5 = max # of 1-2 neighbors
  8 = max # of 1-3 neighbors
  19 = max # of special neighbors
WARNING: Using 'neigh_modify every 1 delay 0 check yes' setting during minimization (../min.cpp:168)
Neighbor list info ...
  update every 1 steps, delay 0 steps, check yes
  max neighbors/atom: 2000, page size: 100000
  master list distance cutoff = 16
  ghost atom cutoff = 16
  binsize = 8, bins = 6 6 6
  3 neighbor lists, perpetual/occasional/extra = 3 0 0
  (1) pair buck6d/coul/gauss/dsf, perpetual, skip from (3)
      attributes: half, newton on
      pair build: skip
      stencil: none
      bin: none
  (2) pair lj/cut, perpetual, skip from (3)
      attributes: half, newton on
      pair build: skip
      stencil: none
      bin: none
  (3) neighbor class addition, perpetual
      attributes: half, newton on
      pair build: half/bin/newton
      stencil: half/bin/3d/newton
      bin: standard
Setting up cg style minimization ...
  Unit style    : real
  Current step  : 0
WARNING: Inconsistent image flags (../domain.cpp:786)
Per MPI rank memory allocation (min/avg/max) = 22.87 | 23.28 | 24.42 Mbytes
Step Temp E_pair E_mol TotEng Press 
       0            0   -11515.842    6482.8914   -5032.9505    6291.8847 
     505            0    -11538.01    3743.0641   -7794.9459    -473.6235 
Loop time of 1.21262 on 24 procs for 505 steps with 1729 atoms

99.8% CPU use with 24 MPI tasks x no OpenMP threads

Minimization stats:
  Stopping criterion = max force evaluations
  Energy initial, next-to-last, final = 
        -5032.95049788     -7794.84163921     -7794.94585104
  Force two-norm initial, final = 2577 14.8767
  Force max component initial, final = 151.992 2.3502
  Final line search alpha, max atom move = 0.0109345 0.0256982
  Iterations, force evaluations = 505 1000

MPI task timing breakdown:
Section |  min time  |  avg time  |  max time  |%varavg| %total
---------------------------------------------------------------
Pair    | 0.47021    | 0.60102    | 0.7385     |  10.8 | 49.56
Bond    | 0.13269    | 0.15857    | 0.19856    |   4.1 | 13.08
Neigh   | 0.0087402  | 0.0089453  | 0.0090678  |   0.1 |  0.74
Comm    | 0.29872    | 0.42329    | 0.53704    |  12.0 | 34.91
Output  | 0          | 0          | 0          |   0.0 |  0.00
Modify  | 0          | 0          | 0          |   0.0 |  0.00
Other   |            | 0.0208     |            |       |  1.72

Nlocal:    72.0417 ave 100 max 49 min
Histogram: 1 2 1 3 9 3 3 1 0 1
Nghost:    1965.25 ave 2141 max 1874 min
Histogram: 16 0 0 0 0 0 0 0 3 5
Neighs:    7637.33 ave 10803 max 4455 min
Histogram: 3 2 1 4 3 1 3 3 2 2

Total # of neighbors = 183296
Ave neighs/atom = 106.013
Ave special neighs/atom = 6.66281
Neighbor list builds = 17
Dangerous builds = 0
Neighbor list info ...
  update every 1 steps, delay 10 steps, check yes
  max neighbors/atom: 2000, page size: 100000
  master list distance cutoff = 16
  ghost atom cutoff = 16
  binsize = 8, bins = 6 6 6
  3 neighbor lists, perpetual/occasional/extra = 3 0 0
  (1) pair buck6d/coul/gauss/dsf, perpetual, skip from (3)
      attributes: half, newton on
      pair build: skip
      stencil: none
      bin: none
  (2) pair lj/cut, perpetual, skip from (3)
      attributes: half, newton on
      pair build: skip
      stencil: none
      bin: none
  (3) neighbor class addition, perpetual
      attributes: half, newton on
      pair build: half/bin/newton
      stencil: half/bin/3d/newton
      bin: standard
Setting up Verlet run ...
  Unit style    : real
  Current step  : 505
  Time step     : 1
WARNING: Inconsistent image flags (../domain.cpp:786)
Per MPI rank memory allocation (min/avg/max) = 22.52 | 22.7 | 23.29 Mbytes
Step Temp PotEng TotEng Press Volume Lx Ly Lz 
     505          110   -7794.9459   -7228.3535   -219.70643     102002.7      46.7237      46.7237      46.7237 
    1000    98.049954   -7297.6911   -6792.6515   -830.28752     102002.7      46.7237      46.7237      46.7237 
    2000    105.48556   -7183.0847   -6639.7455   -769.00355     102002.7      46.7237      46.7237      46.7237 
    3000    106.90732   -7223.6435   -6672.9811   -862.29379     102002.7      46.7237      46.7237      46.7237 
    4000    107.37987   -7218.5302   -6665.4336   -486.95732     102002.7      46.7237      46.7237      46.7237 
    5000     111.7241   -7223.6896   -6648.2167   -781.17297     102002.7      46.7237      46.7237      46.7237 
    6000    104.55146   -7240.7474   -6702.2195   -632.67563     102002.7      46.7237      46.7237      46.7237 
    7000    116.33905   -7236.6055   -6637.3617   -663.59428     102002.7      46.7237      46.7237      46.7237 
    8000    106.81329   -7228.2182     -6678.04   -770.20883     102002.7      46.7237      46.7237      46.7237 
    9000     111.9236   -7243.1309   -6666.6304   -744.24474     102002.7      46.7237      46.7237      46.7237 
   10000    111.61254   -7220.1091   -6645.2108   -849.16986     102002.7      46.7237      46.7237      46.7237 
   11000    114.28638   -7214.3285   -6625.6577   -646.56356     102002.7      46.7237      46.7237      46.7237 
   12000    111.04808   -7229.8481   -6657.8572   -600.17102     102002.7      46.7237      46.7237      46.7237 
   13000    112.03488   -7204.0467    -6626.973   -884.53131     102002.7      46.7237      46.7237      46.7237 
   14000    107.70769   -7233.6374   -6678.8524   -909.71298     102002.7      46.7237      46.7237      46.7237 
   15000    111.31324   -7215.4203   -6642.0637   -856.13431     102002.7      46.7237      46.7237      46.7237 
   16000     109.9133   -7227.3546   -6661.2089    -585.3382     102002.7      46.7237      46.7237      46.7237 
   17000    110.66559   -7222.4189   -6652.3982   -480.25632     102002.7      46.7237      46.7237      46.7237 
   18000    110.29068   -7230.0024   -6661.9128   -590.87228     102002.7      46.7237      46.7237      46.7237 
   19000    112.89789    -7227.816   -6646.2971   -563.44754     102002.7      46.7237      46.7237      46.7237 
   20000    108.53606   -7208.7536   -6649.7017   -580.47042     102002.7      46.7237      46.7237      46.7237 
   21000    105.47401   -7224.5672   -6681.2875   -777.13673     102002.7      46.7237      46.7237      46.7237 
   22000    113.81164   -7228.4656     -6642.24   -685.53782     102002.7      46.7237      46.7237      46.7237 
   23000    112.10418   -7222.2108   -6644.7802   -654.96281     102002.7      46.7237      46.7237      46.7237 
   24000    108.02783   -7225.5712   -6669.1372   -918.63286     102002.7      46.7237      46.7237      46.7237 
   25000     109.9379   -7230.1703   -6663.8978   -723.83461     102002.7      46.7237      46.7237      46.7237 
   26000    110.60698   -7229.9959   -6660.2771   -718.60734     102002.7      46.7237      46.7237      46.7237 
   27000    111.26277   -7201.9391   -6628.8424   -900.23957     102002.7      46.7237      46.7237      46.7237 
   28000    113.01301   -7241.8858   -6659.7739   -630.68598     102002.7      46.7237      46.7237      46.7237 
   29000    112.46668   -7220.7418    -6641.444   -646.84313     102002.7      46.7237      46.7237      46.7237 
   30000    113.21202   -7233.9511   -6650.8142    -668.0053     102002.7      46.7237      46.7237      46.7237 
   31000    109.47078    -7208.256   -6644.3896   -791.87911     102002.7      46.7237      46.7237      46.7237 
   32000    109.57001   -7229.5128   -6665.1352   -738.45955     102002.7      46.7237      46.7237      46.7237 
   33000    109.78771   -7214.9452   -6649.4463   -643.06355     102002.7      46.7237      46.7237      46.7237 
   34000    107.38198   -7220.0186   -6666.9113   -484.09751     102002.7      46.7237      46.7237      46.7237 
   35000    112.89308   -7245.7048   -6664.2106   -756.50257     102002.7      46.7237      46.7237      46.7237 
   36000     108.6428    -7214.089   -6654.4873   -770.74261     102002.7      46.7237      46.7237      46.7237 
   37000    112.14291    -7217.387   -6639.7568   -417.11277     102002.7      46.7237      46.7237      46.7237 
   38000     111.0556   -7215.2219   -6643.1923   -643.22661     102002.7      46.7237      46.7237      46.7237 
   39000    110.23952   -7229.8381    -6662.012    -441.3686     102002.7      46.7237      46.7237      46.7237 
   40000    111.66673   -7198.1894   -6623.0119   -728.24956     102002.7      46.7237      46.7237      46.7237 
   41000    106.72866   -7215.6666   -6665.9244   -561.48995     102002.7      46.7237      46.7237      46.7237 
   42000    114.29174   -7224.6284   -6635.9299   -518.82422     102002.7      46.7237      46.7237      46.7237 
   43000    108.55955   -7228.4166   -6669.2438   -656.89364     102002.7      46.7237      46.7237      46.7237 
   44000    109.17069   -7217.2078   -6654.8871   -769.16417     102002.7      46.7237      46.7237      46.7237 
   45000    107.64587   -7244.1103   -6689.6437   -867.31284     102002.7      46.7237      46.7237      46.7237 
   46000    109.28663   -7235.4536   -6672.5357   -731.13179     102002.7      46.7237      46.7237      46.7237 
   47000    107.55052   -7218.8052   -6664.8297   -521.97673     102002.7      46.7237      46.7237      46.7237 
   48000     106.6326   -7215.4854   -6666.2379   -525.19253     102002.7      46.7237      46.7237      46.7237 
   49000    118.68171   -7239.5901   -6628.2797   -598.88698     102002.7      46.7237      46.7237      46.7237 
   50000    108.65463   -7224.0695    -6664.407   -830.48461     102002.7      46.7237      46.7237      46.7237 
   51000    106.51164   -7235.5652   -6686.9408   -904.87314     102002.7      46.7237      46.7237      46.7237 
   52000     108.8851   -7218.6429   -6657.7932   -736.60812     102002.7      46.7237      46.7237      46.7237 
   53000    113.85319   -7213.9412   -6627.5017   -699.58202     102002.7      46.7237      46.7237      46.7237 
   54000    106.68974   -7225.4829   -6675.9411   -781.09151     102002.7      46.7237      46.7237      46.7237 
   55000    111.22854   -7219.1411   -6646.2207   -565.49001     102002.7      46.7237      46.7237      46.7237 
   56000    104.78344   -7222.2689   -6682.5462   -683.60011     102002.7      46.7237      46.7237      46.7237 
   57000    108.07338   -7210.1016    -6653.433   -325.08468     102002.7      46.7237      46.7237      46.7237 
   58000    109.44943   -7217.5793   -6653.8228   -578.43167     102002.7      46.7237      46.7237      46.7237 
   59000    110.07329   -7229.1779    -6662.208   -822.38102     102002.7      46.7237      46.7237      46.7237 
   60000    111.98173   -7200.8819   -6624.0819   -688.91384     102002.7      46.7237      46.7237      46.7237 
   61000    108.08864   -7210.6368   -6653.8895   -915.68139     102002.7      46.7237      46.7237      46.7237 
   62000    108.74397    -7247.612   -6687.4892   -628.86412     102002.7      46.7237      46.7237      46.7237 
   63000    110.00352   -7211.3695    -6644.759    -985.7479     102002.7      46.7237      46.7237      46.7237 
   64000    105.34698   -7216.3574    -6673.732   -739.97802     102002.7      46.7237      46.7237      46.7237 
   65000    112.93188   -7238.8866   -6657.1926   -817.25212     102002.7      46.7237      46.7237      46.7237 
   66000    106.32489   -7245.3752   -6697.7127   -760.77511     102002.7      46.7237      46.7237      46.7237 
   67000    111.24359   -7222.5466   -6649.5487   -600.35454     102002.7      46.7237      46.7237      46.7237 
   68000    113.08416   -7210.7147   -6628.2363   -987.43636     102002.7      46.7237      46.7237      46.7237 
   69000    112.01642   -7243.5833   -6666.6047   -591.95922     102002.7      46.7237      46.7237      46.7237 
   70000    109.12417   -7242.5315   -6680.4504   -939.26469     102002.7      46.7237      46.7237      46.7237 
   71000    109.52867   -7215.7372   -6651.5726   -730.36828     102002.7      46.7237      46.7237      46.7237 
   72000    109.19266   -7222.8876   -6660.4537   -972.42714     102002.7      46.7237      46.7237      46.7237 
   73000    110.48838   -7199.1004   -6629.9925   -461.98575     102002.7      46.7237      46.7237      46.7237 
   74000    112.83698   -7234.4004   -6653.1951   -879.99666     102002.7      46.7237      46.7237      46.7237 
   75000    107.21364   -7234.0038   -6681.7635   -627.54556     102002.7      46.7237      46.7237      46.7237 
   76000    113.14952   -7239.1785   -6656.3635    -504.3354     102002.7      46.7237      46.7237      46.7237 
   77000    110.76899   -7226.1153    -6655.562   -496.16833     102002.7      46.7237      46.7237      46.7237 
   78000    105.06011   -7218.4031   -6677.2553   -522.24641     102002.7      46.7237      46.7237      46.7237 
   79000    112.63356   -7241.0122   -6660.8548   -576.57898     102002.7      46.7237      46.7237      46.7237 
   80000    108.06907   -7208.5457   -6651.8992   -709.13426     102002.7      46.7237      46.7237      46.7237 
   81000     110.0928    -7234.216   -6667.1456   -535.63573     102002.7      46.7237      46.7237      46.7237 
   82000     113.4944    -7215.795   -6631.2035   -605.13039     102002.7      46.7237      46.7237      46.7237 
   83000    109.05775   -7232.9452   -6671.2062    -703.3663     102002.7      46.7237      46.7237      46.7237 
   84000    112.23221   -7218.6081   -6640.5179   -710.35126     102002.7      46.7237      46.7237      46.7237 
   85000    106.14558   -7200.1155   -6653.3766   -629.49853     102002.7      46.7237      46.7237      46.7237 
   86000     111.7045   -7211.2996   -6635.9276   -766.30834     102002.7      46.7237      46.7237      46.7237 
   87000    108.33048    -7228.636    -6670.643    -700.1833     102002.7      46.7237      46.7237      46.7237 
   88000    115.82625   -7220.8598   -6624.2573   -822.34352     102002.7      46.7237      46.7237      46.7237 
   89000    112.27284   -7219.0151   -6640.7157   -975.76126     102002.7      46.7237      46.7237      46.7237 
   90000    112.17106   -7236.7274   -6658.9522   -752.48941     102002.7      46.7237      46.7237      46.7237 
   91000    112.64077   -7209.3966    -6629.202   -899.81761     102002.7      46.7237      46.7237      46.7237 
   92000    112.09433   -7230.7936   -6653.4136   -471.47647     102002.7      46.7237      46.7237      46.7237 
   93000    111.43262   -7245.6226    -6671.651   -736.97241     102002.7      46.7237      46.7237      46.7237 
   94000    114.10102   -7237.0492   -6649.3331   -887.84451     102002.7      46.7237      46.7237      46.7237 
   95000     108.1142   -7238.9397   -6682.0608   -571.70403     102002.7      46.7237      46.7237      46.7237 
   96000      109.571    -7230.068   -6665.6854    -614.7778     102002.7      46.7237      46.7237      46.7237 
   97000    112.15905   -7207.1572    -6629.444   -441.51491     102002.7      46.7237      46.7237      46.7237 
   98000    107.50148   -7218.7574   -6665.0345   -643.59626     102002.7      46.7237      46.7237      46.7237 
   99000    110.95661   -7224.9606   -6653.4409   -782.52748     102002.7      46.7237      46.7237      46.7237 
  100000     108.0251   -7240.2752   -6683.8552   -741.54741     102002.7      46.7237      46.7237      46.7237 
  101000    109.65342   -7228.4925   -6663.6853   -784.06124     102002.7      46.7237      46.7237      46.7237 
  102000    114.69477   -7215.3006   -6624.5263   -721.07539     102002.7      46.7237      46.7237      46.7237 
  103000     112.2134   -7250.2329   -6672.2397   -1087.4118     102002.7      46.7237      46.7237      46.7237 
  104000    112.82628   -7221.8643   -6640.7142   -564.65662     102002.7      46.7237      46.7237      46.7237 
  105000    112.36807   -7216.1588   -6637.3688   -786.67748     102002.7      46.7237      46.7237      46.7237 
  106000    106.39874   -7217.2947   -6669.2518   -847.52804     102002.7      46.7237      46.7237      46.7237 
  107000    109.22031   -7244.0875   -6681.5112   -638.20583     102002.7      46.7237      46.7237      46.7237 
  108000    107.49839   -7223.8215   -6670.1145   -795.94955     102002.7      46.7237      46.7237      46.7237 
  109000    106.31961   -7238.8965   -6691.2613   -643.49402     102002.7      46.7237      46.7237      46.7237 
  110000    111.33312   -7221.2911    -6647.832   -901.97808     102002.7      46.7237      46.7237      46.7237 
  111000    108.46493   -7238.6533   -6679.9679   -579.19276     102002.7      46.7237      46.7237      46.7237 
  112000    110.92704   -7218.4012   -6647.0338   -722.90133     102002.7      46.7237      46.7237      46.7237 
  113000    107.99932   -7228.9876   -6672.7004   -637.73991     102002.7      46.7237      46.7237      46.7237 
  114000    107.24592   -7231.0445   -6678.6379    -564.0024     102002.7      46.7237      46.7237      46.7237 
  115000    111.08083   -7218.3029   -6646.1433   -480.11276     102002.7      46.7237      46.7237      46.7237 
  116000    110.27721   -7246.3833   -6678.3631   -485.74963     102002.7      46.7237      46.7237      46.7237 
  117000    107.10854   -7216.4427   -6664.7438   -704.09727     102002.7      46.7237      46.7237      46.7237 
  118000    109.80849   -7214.4609    -6648.855   -348.13157     102002.7      46.7237      46.7237      46.7237 
  119000    106.70623   -7227.4911   -6677.8644   -629.59219     102002.7      46.7237      46.7237      46.7237 
  120000    109.16146   -7220.6238   -6658.3506     -469.317     102002.7      46.7237      46.7237      46.7237 
  121000     107.6154   -7198.5869   -6644.2772   -304.08592     102002.7      46.7237      46.7237      46.7237 
  122000    109.70696   -7213.3459    -6648.263   -789.56874     102002.7      46.7237      46.7237      46.7237 
  123000    106.98937    -7232.237   -6681.1519   -859.20904     102002.7      46.7237      46.7237      46.7237 
  124000    111.24905    -7208.969    -6635.943   -623.43336     102002.7      46.7237      46.7237      46.7237 
  125000    106.96275   -7229.2141   -6678.2661   -761.00626     102002.7      46.7237      46.7237      46.7237 
  126000    110.48171   -7223.1731   -6654.0995   -445.20218     102002.7      46.7237      46.7237      46.7237 
  127000     108.3968   -7222.8328   -6664.4983   -710.14742     102002.7      46.7237      46.7237      46.7237 
  128000    113.88734   -7216.7523   -6630.1369   -827.97141     102002.7      46.7237      46.7237      46.7237 
  129000    110.46294   -7229.7971   -6660.8202   -596.20581     102002.7      46.7237      46.7237      46.7237 
  130000    110.04438   -7219.1306   -6652.3096   -955.73552     102002.7      46.7237      46.7237      46.7237 
  131000    111.29455    -7227.237   -6653.9766    -721.8612     102002.7      46.7237      46.7237      46.7237 
  132000    107.16164   -7234.1097   -6682.1372   -515.09374     102002.7      46.7237      46.7237      46.7237 
  133000    111.12748   -7213.0908   -6640.6909   -644.96222     102002.7      46.7237      46.7237      46.7237 
  134000    109.62553   -7230.8968   -6666.2333   -712.12438     102002.7      46.7237      46.7237      46.7237 
  135000    108.43245   -7217.8572    -6659.339   -923.51866     102002.7      46.7237      46.7237      46.7237 
  136000    114.55121   -7230.6627   -6640.6278   -727.48731     102002.7      46.7237      46.7237      46.7237 
  137000    111.98934   -7227.5369   -6650.6977   -554.27875     102002.7      46.7237      46.7237      46.7237 
  138000    111.15962   -7242.1778   -6669.6124   -749.89003     102002.7      46.7237      46.7237      46.7237 
  139000    111.88007   -7213.3674   -6637.0911    -850.6786     102002.7      46.7237      46.7237      46.7237 
  140000    113.23023   -7242.4976   -6659.2668   -747.54585     102002.7      46.7237      46.7237      46.7237 
  141000    109.36609   -7227.6607   -6664.3335   -758.60707     102002.7      46.7237      46.7237      46.7237 
  142000     110.0107   -7200.3156   -6633.6681   -718.38484     102002.7      46.7237      46.7237      46.7237 
  143000    110.73897    -7227.885   -6657.4863   -699.59555     102002.7      46.7237      46.7237      46.7237 
  144000    109.68588   -7229.9255   -6664.9511   -682.79076     102002.7      46.7237      46.7237      46.7237 
  145000    108.81991   -7204.9636   -6644.4497   -589.88667     102002.7      46.7237      46.7237      46.7237 
  146000    110.53964   -7204.4412   -6635.0693   -567.94231     102002.7      46.7237      46.7237      46.7237 
  147000    111.57533   -7224.0384   -6649.3318   -580.54594     102002.7      46.7237      46.7237      46.7237 
  148000    104.94064   -7226.7061   -6686.1736   -640.77624     102002.7      46.7237      46.7237      46.7237 
  149000    109.85752   -7215.3229   -6649.4644   -509.69514     102002.7      46.7237      46.7237      46.7237 
  150000    111.32402   -7231.1606   -6657.7484   -768.85704     102002.7      46.7237      46.7237      46.7237 
  151000    106.16312   -7225.5048   -6678.6756     -722.241     102002.7      46.7237      46.7237      46.7237 
  152000    109.95796   -7220.6888    -6654.313   -608.53098     102002.7      46.7237      46.7237      46.7237 
  153000    110.30746   -7216.1479   -6647.9718   -653.81255     102002.7      46.7237      46.7237      46.7237 
  154000    107.07437   -7230.8114   -6679.2885   -508.21747     102002.7      46.7237      46.7237      46.7237 
  155000    108.72482   -7214.2103   -6654.1862    -622.8577     102002.7      46.7237      46.7237      46.7237 
  156000    107.58637   -7246.7675   -6692.6074   -698.59146     102002.7      46.7237      46.7237      46.7237 
  157000    110.48219   -7217.0879   -6648.0119   -495.01596     102002.7      46.7237      46.7237      46.7237 
  158000    112.70654   -7219.9158   -6639.3825   -247.44182     102002.7      46.7237      46.7237      46.7237 
  159000    110.70674   -7230.8393   -6660.6066   -632.58588     102002.7      46.7237      46.7237      46.7237 
  160000    111.33594   -7193.1439   -6619.6703   -613.95031     102002.7      46.7237      46.7237      46.7237 
  161000    108.60541   -7211.2747   -6651.8656   -557.04999     102002.7      46.7237      46.7237      46.7237 
  162000    109.06739   -7229.8856   -6668.0969   -774.00699     102002.7      46.7237      46.7237      46.7237 
  163000    111.11842    -7219.785   -6647.4318    -715.7822     102002.7      46.7237      46.7237      46.7237 
  164000    110.67495   -7244.6596   -6674.5907   -731.29546     102002.7      46.7237      46.7237      46.7237 
  165000    109.66759   -7206.8736   -6641.9934   -763.15389     102002.7      46.7237      46.7237      46.7237 
  166000    107.82293   -7230.7267   -6675.3481   -723.00886     102002.7      46.7237      46.7237      46.7237 
  167000    111.72714   -7234.1133   -6658.6247   -763.48072     102002.7      46.7237      46.7237      46.7237 
  168000    109.97686   -7239.2818   -6672.8086   -740.21754     102002.7      46.7237      46.7237      46.7237 
  169000    106.45982   -7221.4715    -6673.114   -818.70902     102002.7      46.7237      46.7237      46.7237 
  170000    108.55071    -7209.285   -6650.1577   -769.35794     102002.7      46.7237      46.7237      46.7237 
  171000    115.17592   -7235.4748   -6642.2221   -545.86427     102002.7      46.7237      46.7237      46.7237 
  172000    106.36805   -7242.8868    -6695.002   -565.46966     102002.7      46.7237      46.7237      46.7237 
  173000    112.22055   -7238.2943   -6660.2642   -772.47182     102002.7      46.7237      46.7237      46.7237 
  174000     108.7324   -7218.4543   -6658.3911   -1044.4806     102002.7      46.7237      46.7237      46.7237 
  175000     109.1736   -7224.4396   -6662.1039   -889.38739     102002.7      46.7237      46.7237      46.7237 
  176000    111.89484   -7234.6505   -6658.2981   -845.64401     102002.7      46.7237      46.7237      46.7237 
  177000    107.55788   -7224.7922   -6670.7788   -642.80085     102002.7      46.7237      46.7237      46.7237 
  178000    114.35552   -7227.3751   -6638.3481   -801.98542     102002.7      46.7237      46.7237      46.7237 
  179000    110.49001   -7229.3253   -6660.2089   -866.83375     102002.7      46.7237      46.7237      46.7237 
  180000    109.30494    -7233.851   -6670.8388    -510.1566     102002.7      46.7237      46.7237      46.7237 
  181000    116.27863   -7228.8218   -6629.8892    -653.2884     102002.7      46.7237      46.7237      46.7237 
  182000    107.20332   -7228.1238   -6675.9367   -698.90274     102002.7      46.7237      46.7237      46.7237 
  183000    110.53104   -7204.3164   -6634.9887   -827.45932     102002.7      46.7237      46.7237      46.7237 
  184000    108.46871   -7233.8861   -6675.1811   -638.74427     102002.7      46.7237      46.7237      46.7237 
  185000    112.94199   -7209.3327   -6627.5866   -660.66521     102002.7      46.7237      46.7237      46.7237 
  186000    109.38761   -7218.6217   -6655.1836   -490.71529     102002.7      46.7237      46.7237      46.7237 
  187000    107.56993   -7220.9456   -6666.8701   -862.52104     102002.7      46.7237      46.7237      46.7237 
  188000    108.18368    -7214.853   -6657.6162   -712.12742     102002.7      46.7237      46.7237      46.7237 
  189000    114.11593   -7226.3003   -6638.5074   -772.28605     102002.7      46.7237      46.7237      46.7237 
  190000       107.87   -7216.2628   -6660.6417    -644.4012     102002.7      46.7237      46.7237      46.7237 
  191000    109.53222   -7261.5389    -6697.356   -836.57681     102002.7      46.7237      46.7237      46.7237 
  192000    108.36336   -7207.6678   -6649.5055   -825.34353     102002.7      46.7237      46.7237      46.7237 
  193000    108.68348   -7225.6128   -6665.8016     -874.008     102002.7      46.7237      46.7237      46.7237 
  194000    111.04082   -7210.8975    -6638.944   -770.60767     102002.7      46.7237      46.7237      46.7237 
  195000    108.70768   -7226.9222   -6666.9864   -684.29873     102002.7      46.7237      46.7237      46.7237 
  196000    105.77816    -7231.652   -6686.8057   -945.05007     102002.7      46.7237      46.7237      46.7237 
  197000     110.6886   -7224.5026   -6654.3634   -528.86461     102002.7      46.7237      46.7237      46.7237 
  198000    107.69704   -7221.9192    -6667.189   -859.68445     102002.7      46.7237      46.7237      46.7237 
  199000    109.14756   -7206.7608   -6644.5592   -742.79495     102002.7      46.7237      46.7237      46.7237 
  200000    110.30357   -7239.4553   -6671.2993   -676.24321     102002.7      46.7237      46.7237      46.7237 
  201000    110.44555   -7209.4931   -6640.6057   -725.54599     102002.7      46.7237      46.7237      46.7237 
  202000    106.13089   -7228.5752    -6681.912    -548.4196     102002.7      46.7237      46.7237      46.7237 
  203000    110.52706   -7225.7402    -6656.433   -567.70392     102002.7      46.7237      46.7237      46.7237 
  204000    111.72589   -7248.2253   -6672.7432   -236.94466     102002.7      46.7237      46.7237      46.7237 
  205000    111.78885    -7205.505   -6629.6985   -526.67699     102002.7      46.7237      46.7237      46.7237 
  206000    108.34939   -7205.7104   -6647.6201    -578.5269     102002.7      46.7237      46.7237      46.7237 
  207000    111.33014     -7232.35   -6658.9063   -576.59726     102002.7      46.7237      46.7237      46.7237 
  208000    112.08294   -7240.1589   -6662.8377   -531.49051     102002.7      46.7237      46.7237      46.7237 
  209000    114.54998   -7219.2721   -6629.2435   -684.24043     102002.7      46.7237      46.7237      46.7237 
  210000    108.62206   -7219.8072   -6660.3124   -759.33893     102002.7      46.7237      46.7237      46.7237 
  211000    108.51383    -7243.858   -6684.9206   -652.45428     102002.7      46.7237      46.7237      46.7237 
  212000    111.69406   -7234.3284   -6659.0102   -857.14732     102002.7      46.7237      46.7237      46.7237 
  213000    112.79666   -7222.8387   -6641.8412   -510.54116     102002.7      46.7237      46.7237      46.7237 
  214000    110.26026   -7235.3592   -6667.4263   -720.41283     102002.7      46.7237      46.7237      46.7237 
  215000    106.02114   -7212.8705   -6666.7726   -369.45506     102002.7      46.7237      46.7237      46.7237 
  216000    117.08629    -7224.935   -6621.8423   -629.06229     102002.7      46.7237      46.7237      46.7237 
  217000    109.04154   -7225.5728   -6663.9173   -723.64731     102002.7      46.7237      46.7237      46.7237 
  218000    114.95182   -7226.1518   -6634.0535    -232.2734     102002.7      46.7237      46.7237      46.7237 
  219000    110.64434   -7224.0469   -6654.1356    -635.1034     102002.7      46.7237      46.7237      46.7237 
  220000    112.00563   -7228.7647   -6651.8417   -258.04478     102002.7      46.7237      46.7237      46.7237 
  221000    108.98391   -7242.2645   -6680.9059   -450.31822     102002.7      46.7237      46.7237      46.7237 
  222000    111.87843   -7233.8576   -6657.5897   -421.79029     102002.7      46.7237      46.7237      46.7237 
  223000    110.35073   -7213.6032   -6645.2043   -769.81848     102002.7      46.7237      46.7237      46.7237 
  224000    110.36745   -7238.4508   -6669.9658   -418.22723     102002.7      46.7237      46.7237      46.7237 
  225000    108.52071   -7207.1895   -6648.2167   -912.15216     102002.7      46.7237      46.7237      46.7237 
  226000    110.25152   -7230.2815   -6662.3937   -673.49904     102002.7      46.7237      46.7237      46.7237 
  227000     110.7901   -7213.0673   -6642.4053   -845.09384     102002.7      46.7237      46.7237      46.7237 
  228000    109.28817   -7238.4676   -6675.5417    -439.6545     102002.7      46.7237      46.7237      46.7237 
  229000    109.82087   -7226.7205   -6661.0508    -661.4747     102002.7      46.7237      46.7237      46.7237 
  230000    111.34029   -7232.6281   -6659.1322   -617.17976     102002.7      46.7237      46.7237      46.7237 
  231000    108.40611   -7212.9267   -6654.5442   -762.55969     102002.7      46.7237      46.7237      46.7237 
  232000     109.8431   -7234.4941   -6668.7099   -650.48163     102002.7      46.7237      46.7237      46.7237 
  233000    110.66937   -7218.8274   -6648.7872   -979.50941     102002.7      46.7237      46.7237      46.7237 
  234000    110.85608   -7228.3608   -6657.3589   -624.47933     102002.7      46.7237      46.7237      46.7237 
  235000    110.31771   -7239.6893   -6671.4604   -385.48782     102002.7      46.7237      46.7237      46.7237 
  236000    112.62632   -7232.6258   -6652.5057   -557.83687     102002.7      46.7237      46.7237      46.7237 
  237000    111.59312   -7223.0887   -6648.2904    -1007.909     102002.7      46.7237      46.7237      46.7237 
  238000     109.4233   -7247.4089    -6683.787   -809.67198     102002.7      46.7237      46.7237      46.7237 
  239000    110.43046   -7221.2997   -6652.4901   -729.38339     102002.7      46.7237      46.7237      46.7237 
  240000    113.37352   -7234.9677   -6650.9988   -739.12569     102002.7      46.7237      46.7237      46.7237 
  241000    108.55577   -7223.3891   -6664.2357   -707.05375     102002.7      46.7237      46.7237      46.7237 
  242000    114.53297   -7223.7186   -6633.7776    -512.4907     102002.7      46.7237      46.7237      46.7237 
  243000    107.93571   -7203.6336   -6647.6741   -675.98847     102002.7      46.7237      46.7237      46.7237 
  244000    112.02847   -7237.3155   -6660.2748   -400.10682     102002.7      46.7237      46.7237      46.7237 
  245000    110.99604   -7242.5571   -6670.8343   -520.22975     102002.7      46.7237      46.7237      46.7237 
  246000      111.794   -7209.4885   -6633.6555   -619.01916     102002.7      46.7237      46.7237      46.7237 
  247000    108.96436   -7230.0696   -6668.8117   -857.17241     102002.7      46.7237      46.7237      46.7237 
  248000    108.95619   -7204.6229    -6643.407   -609.06516     102002.7      46.7237      46.7237      46.7237 
  249000    110.35839   -7213.0687   -6644.6303   -886.01623     102002.7      46.7237      46.7237      46.7237 
  250000    109.85422   -7225.2723   -6659.4308   -703.25297     102002.7      46.7237      46.7237      46.7237 
  251000    114.01359   -7226.4411   -6639.1754   -753.93604     102002.7      46.7237      46.7237      46.7237 
  252000    107.25816   -7238.4456    -6685.976   -840.25201     102002.7      46.7237      46.7237      46.7237 
  253000    107.95632   -7201.4825   -6645.4167   -865.21649     102002.7      46.7237      46.7237      46.7237 
  254000    108.26525   -7238.4277   -6680.7707   -706.39061     102002.7      46.7237      46.7237      46.7237 
  255000     112.7534    -7235.088   -6654.3133    -887.2021     102002.7      46.7237      46.7237      46.7237 
  256000    109.55962   -7231.2806   -6666.9565   -850.38285     102002.7      46.7237      46.7237      46.7237 
  257000    114.33956   -7217.8294   -6628.8847   -847.27804     102002.7      46.7237      46.7237      46.7237 
  258000    109.61098   -7226.3418   -6661.7532    -822.2022     102002.7      46.7237      46.7237      46.7237 
  259000    107.90714   -7211.7544   -6655.9421   -458.39077     102002.7      46.7237      46.7237      46.7237 
  260000    109.31815   -7224.5459   -6661.4656   -644.66542     102002.7      46.7237      46.7237      46.7237 
  261000    110.73497   -7204.4929   -6634.1148    -622.4455     102002.7      46.7237      46.7237      46.7237 
  262000    109.82841   -7238.7663   -6673.0578   -521.19702     102002.7      46.7237      46.7237      46.7237 
  263000    110.19059   -7232.9169   -6665.3428   -693.54585     102002.7      46.7237      46.7237      46.7237 
  264000    113.03697   -7197.6083    -6615.373   -674.44431     102002.7      46.7237      46.7237      46.7237 
  265000    113.02991   -7246.9127   -6664.7138   -628.61165     102002.7      46.7237      46.7237      46.7237 
  266000    114.25703   -7209.7834   -6621.2637   -727.27138     102002.7      46.7237      46.7237      46.7237 
  267000     111.0081   -7221.3567   -6649.5718    -893.6351     102002.7      46.7237      46.7237      46.7237 
  268000    111.06161   -7217.3378   -6645.2773   -681.99328     102002.7      46.7237      46.7237      46.7237 
  269000     108.5951   -7228.7836   -6669.4277   -710.48302     102002.7      46.7237      46.7237      46.7237 
  270000    109.27297   -7235.2576   -6672.4101   -1042.6689     102002.7      46.7237      46.7237      46.7237 
  271000    110.54691    -7221.934   -6652.5246   -781.18475     102002.7      46.7237      46.7237      46.7237 
  272000    106.37156   -7210.7172   -6662.8143   -745.21839     102002.7      46.7237      46.7237      46.7237 
  273000    108.85853   -7216.7459   -6656.0331   -624.25155     102002.7      46.7237      46.7237      46.7237 
  274000    115.24877   -7222.9198   -6629.2919   -758.15876     102002.7      46.7237      46.7237      46.7237 
  275000    111.82926   -7228.3243   -6652.3096   -734.16843     102002.7      46.7237      46.7237      46.7237 
  276000    108.69841   -7245.6148   -6685.7266   -646.47102     102002.7      46.7237      46.7237      46.7237 
  277000    111.72299   -7233.6563   -6658.1891   -706.55573     102002.7      46.7237      46.7237      46.7237 
  278000      107.834   -7229.7473   -6674.3116   -702.27962     102002.7      46.7237      46.7237      46.7237 
  279000    111.46948   -7205.6663   -6631.5049   -800.23139     102002.7      46.7237      46.7237      46.7237 
  280000    110.84026   -7216.5584   -6645.6379   -589.04694     102002.7      46.7237      46.7237      46.7237 
  281000    110.46518   -7212.8457   -6643.8573   -675.86606     102002.7      46.7237      46.7237      46.7237 
  282000    108.83492   -7220.5353   -6659.9441   -512.10873     102002.7      46.7237      46.7237      46.7237 
  283000    112.01123   -7227.5304   -6650.5785   -822.10935     102002.7      46.7237      46.7237      46.7237 
  284000    109.15482   -7236.2472   -6674.0082   -582.54464     102002.7      46.7237      46.7237      46.7237 
  285000    106.31116   -7225.1108   -6677.5191   -799.28028     102002.7      46.7237      46.7237      46.7237 
  286000     109.1717   -7232.1417   -6669.8158   -688.51978     102002.7      46.7237      46.7237      46.7237 
  287000    109.86229   -7199.5486   -6633.6656   -723.09768     102002.7      46.7237      46.7237      46.7237 
  288000    111.24212   -7228.9564   -6655.9661   -470.00867     102002.7      46.7237      46.7237      46.7237 
  289000    110.06883   -7232.7083   -6665.7614   -428.50755     102002.7      46.7237      46.7237      46.7237 
  290000    111.52356   -7222.7492   -6648.3092   -664.50569     102002.7      46.7237      46.7237      46.7237 
  291000    113.00865   -7229.6802   -6647.5908   -714.31537     102002.7      46.7237      46.7237      46.7237 
  292000     108.4815   -7231.3653   -6672.5945   -782.32563     102002.7      46.7237      46.7237      46.7237 
  293000    108.37686   -7223.2118     -6664.98    -835.6908     102002.7      46.7237      46.7237      46.7237 
  294000    110.20874   -7224.2994   -6656.6318   -811.72759     102002.7      46.7237      46.7237      46.7237 
  295000     112.0494   -7233.1166   -6655.9681    -683.8925     102002.7      46.7237      46.7237      46.7237 
  296000    109.08323   -7224.3438   -6662.4736   -762.34909     102002.7      46.7237      46.7237      46.7237 
  297000     108.8896   -7219.9656   -6659.0927   -701.98668     102002.7      46.7237      46.7237      46.7237 
  298000    108.14738   -7235.4189   -6678.3691   -726.45386     102002.7      46.7237      46.7237      46.7237 
  299000    109.98164   -7227.5764   -6661.0786    -795.3368     102002.7      46.7237      46.7237      46.7237 
  300000    109.57767   -7218.4432   -6654.0262   -1158.2751     102002.7      46.7237      46.7237      46.7237 
  301000    109.57828   -7227.1644   -6662.7443   -827.79049     102002.7      46.7237      46.7237      46.7237 
  302000    112.59162   -7232.2812   -6652.3398    -985.6667     102002.7      46.7237      46.7237      46.7237 
  303000    107.79029   -7237.0495    -6681.839    -953.0083     102002.7      46.7237      46.7237      46.7237 
  304000    108.75436   -7208.4707   -6648.2944   -787.55026     102002.7      46.7237      46.7237      46.7237 
  305000    105.92236   -7229.4051   -6683.8161   -796.97999     102002.7      46.7237      46.7237      46.7237 
  306000    109.69398   -7238.7256   -6673.7095   -528.05257     102002.7      46.7237      46.7237      46.7237 
  307000    109.18731   -7220.6561   -6658.2497   -788.82718     102002.7      46.7237      46.7237      46.7237 
  308000    109.27164   -7237.2597    -6674.419   -533.60042     102002.7      46.7237      46.7237      46.7237 
  309000    113.61223   -7231.6795   -6646.4811    -737.2202     102002.7      46.7237      46.7237      46.7237 
  310000    105.50254   -7225.2444   -6681.8177   -691.12396     102002.7      46.7237      46.7237      46.7237 
  311000     108.7866   -7219.4492   -6659.1068   -464.23485     102002.7      46.7237      46.7237      46.7237 
  312000    109.19616   -7224.0382   -6661.5863   -797.47843     102002.7      46.7237      46.7237      46.7237 
  313000    113.14283   -7209.7638   -6626.9832   -678.99837     102002.7      46.7237      46.7237      46.7237 
  314000    112.51294   -7225.5404   -6646.0042   -627.63926     102002.7      46.7237      46.7237      46.7237 
  315000    111.68146   -7239.0616   -6663.8084   -600.76581     102002.7      46.7237      46.7237      46.7237 
  316000    113.78567   -7216.2041   -6630.1123   -619.21247     102002.7      46.7237      46.7237      46.7237 
  317000    109.16514   -7210.6484   -6648.3562   -696.39344     102002.7      46.7237      46.7237      46.7237 
  318000    108.79683   -7229.7024   -6669.3073   -482.61341     102002.7      46.7237      46.7237      46.7237 
  319000    108.78463   -7231.8219   -6671.4897   -404.70971     102002.7      46.7237      46.7237      46.7237 
  320000     111.4135   -7215.5384   -6641.6653   -736.97814     102002.7      46.7237      46.7237      46.7237 
  321000    111.43043   -7214.8012    -6640.841   -773.20962     102002.7      46.7237      46.7237      46.7237 
  322000    108.99649   -7208.8189   -6647.3955    -526.9309     102002.7      46.7237      46.7237      46.7237 
  323000    108.05932   -7218.2204   -6661.6242   -841.35177     102002.7      46.7237      46.7237      46.7237 
  324000    110.14669   -7234.6835   -6667.3356   -816.17165     102002.7      46.7237      46.7237      46.7237 
  325000    113.05626   -7209.2912   -6626.9565   -766.67565     102002.7      46.7237      46.7237      46.7237 
  326000    109.85696   -7199.1233   -6633.2677   -676.96631     102002.7      46.7237      46.7237      46.7237 
  327000    111.61174   -7226.1878   -6651.2936   -764.02409     102002.7      46.7237      46.7237      46.7237 
  328000     104.9931   -7222.7546    -6681.952   -1009.6815     102002.7      46.7237      46.7237      46.7237 
  329000    109.50069   -7218.9356   -6654.9151   -791.76353     102002.7      46.7237      46.7237      46.7237 
  330000    108.34457    -7227.361   -6669.2955   -729.23605     102002.7      46.7237      46.7237      46.7237 
  331000    112.57245    -7216.442   -6636.5993    -857.4561     102002.7      46.7237      46.7237      46.7237 
  332000    107.18119   -7223.7378   -6671.6647   -755.46033     102002.7      46.7237      46.7237      46.7237 
  333000     112.7328   -7218.6326   -6637.9641   -665.08532     102002.7      46.7237      46.7237      46.7237 
  334000    111.35113   -7210.1219   -6636.5701   -925.37001     102002.7      46.7237      46.7237      46.7237 
  335000    107.68593   -7223.8372   -6669.1643   -550.00716     102002.7      46.7237      46.7237      46.7237 
  336000    109.66971   -7219.1146   -6654.2235   -550.82683     102002.7      46.7237      46.7237      46.7237 
  337000     110.9377   -7226.6297   -6655.2074   -606.62776     102002.7      46.7237      46.7237      46.7237 
  338000    108.36314    -7213.464   -6655.3029   -860.55942     102002.7      46.7237      46.7237      46.7237 
  339000    111.58406   -7209.7356    -6634.984   -796.87094     102002.7      46.7237      46.7237      46.7237 
  340000     107.3955   -7233.7461   -6680.5691   -724.20629     102002.7      46.7237      46.7237      46.7237 
  341000    112.82198   -7224.0973   -6642.9694   -951.11569     102002.7      46.7237      46.7237      46.7237 
  342000    107.57698   -7231.3393   -6677.2275   -850.44423     102002.7      46.7237      46.7237      46.7237 
  343000    110.96043   -7195.3825   -6623.8431   -519.08077     102002.7      46.7237      46.7237      46.7237 
  344000     107.5854      -7218.5   -6664.3448   -918.54448     102002.7      46.7237      46.7237      46.7237 
  345000    110.53942   -7227.8557   -6658.4849   -690.43053     102002.7      46.7237      46.7237      46.7237 
  346000    109.69665   -7212.9269    -6647.897   -839.46173     102002.7      46.7237      46.7237      46.7237 
  347000    112.43017     -7240.39   -6661.2802   -780.16691     102002.7      46.7237      46.7237      46.7237 
  348000    107.64565   -7233.9336   -6679.4681   -451.79408     102002.7      46.7237      46.7237      46.7237 
  349000    112.92655   -7223.8489   -6642.1823   -874.23688     102002.7      46.7237      46.7237      46.7237 
  350000    107.36276   -7216.2583   -6663.2499   -554.69706     102002.7      46.7237      46.7237      46.7237 
  351000     110.8339   -7209.4826    -6638.595   -830.62922     102002.7      46.7237      46.7237      46.7237 
  352000    109.48089   -7231.9338   -6668.0153   -770.02439     102002.7      46.7237      46.7237      46.7237 
  353000    113.31126   -7222.9227   -6639.2746    -720.8381     102002.7      46.7237      46.7237      46.7237 
  354000    110.57968   -7211.6973   -6642.1191   -607.18687     102002.7      46.7237      46.7237      46.7237 
  355000    107.62707   -7220.9766   -6666.6068   -637.90716     102002.7      46.7237      46.7237      46.7237 
  356000    112.10186   -7229.3424   -6651.9237   -748.30758     102002.7      46.7237      46.7237      46.7237 
  357000    106.75647   -7209.9398   -6660.0544   -678.98069     102002.7      46.7237      46.7237      46.7237 
  358000    106.05616   -7239.3715   -6693.0932   -716.28964     102002.7      46.7237      46.7237      46.7237 
  359000    112.94096   -7222.3216   -6640.5809    -443.9596     102002.7      46.7237      46.7237      46.7237 
  360000    111.82718   -7213.6696   -6637.6657   -649.84681     102002.7      46.7237      46.7237      46.7237 
  361000     110.8339   -7226.8079   -6655.9203   -788.15387     102002.7      46.7237      46.7237      46.7237 
  362000    108.94786   -7217.1322   -6655.9593   -624.69154     102002.7      46.7237      46.7237      46.7237 
  363000    107.35063   -7244.4929    -6691.547   -482.01119     102002.7      46.7237      46.7237      46.7237 
  364000    108.89096   -7217.5534   -6656.6735    -571.2267     102002.7      46.7237      46.7237      46.7237 
  365000    107.22393   -7233.4453    -6681.152   -717.03843     102002.7      46.7237      46.7237      46.7237 
  366000    110.20647   -7227.9557   -6660.2999   -243.59601     102002.7      46.7237      46.7237      46.7237 
  367000    109.33005   -7218.3293   -6655.1877   -827.20676     102002.7      46.7237      46.7237      46.7237 
  368000     109.4508   -7235.4134   -6671.6498    -427.4479     102002.7      46.7237      46.7237      46.7237 
  369000    109.58119   -7233.4813   -6669.0461    -860.3511     102002.7      46.7237      46.7237      46.7237 
  370000    108.77511   -7211.9548   -6651.6717   -565.95166     102002.7      46.7237      46.7237      46.7237 
  371000    109.64502   -7207.3255   -6642.5616   -779.99062     102002.7      46.7237      46.7237      46.7237 
  372000    107.45847    -7233.743   -6680.2416   -724.10344     102002.7      46.7237      46.7237      46.7237 
  373000    111.43763   -7218.2662   -6644.2688   -587.55973     102002.7      46.7237      46.7237      46.7237 
  374000    108.49467   -7220.7728   -6661.9341   -668.64651     102002.7      46.7237      46.7237      46.7237 
  375000    111.04098   -7200.1984   -6628.2441   -556.66365     102002.7      46.7237      46.7237      46.7237 
  376000    112.07775   -7232.4486   -6655.1541    -559.8183     102002.7      46.7237      46.7237      46.7237 
  377000    108.64353   -7231.2657   -6671.6603   -691.82359     102002.7      46.7237      46.7237      46.7237 
  378000    109.58985   -7222.3268    -6657.847   -633.13958     102002.7      46.7237      46.7237      46.7237 
  379000    111.53223   -7223.0888   -6648.6042   -650.90903     102002.7      46.7237      46.7237      46.7237 
  380000    105.89362   -7215.3138   -6669.8727   -565.71469     102002.7      46.7237      46.7237      46.7237 
  381000    110.50023   -7210.6821   -6641.5132   -963.41747     102002.7      46.7237      46.7237      46.7237 
  382000    112.55858   -7224.3572    -6644.586   -805.66318     102002.7      46.7237      46.7237      46.7237 
  383000    108.83724    -7232.434   -6671.8308   -789.22739     102002.7      46.7237      46.7237      46.7237 
  384000    109.63469   -7232.6517   -6667.9409    -539.0201     102002.7      46.7237      46.7237      46.7237 
  385000    111.34069   -7204.1851   -6630.6871   -649.83276     102002.7      46.7237      46.7237      46.7237 
  386000    111.17716   -7222.5494   -6649.8937   -537.48694     102002.7      46.7237      46.7237      46.7237 
  387000    106.64571     -7224.07   -6674.7551    -532.9421     102002.7      46.7237      46.7237      46.7237 
  388000    108.09472   -7210.6402   -6653.8616    -854.8463     102002.7      46.7237      46.7237      46.7237 
  389000    105.42554   -7228.6511   -6685.6211   -593.71404     102002.7      46.7237      46.7237      46.7237 
  390000    111.77182   -7235.0007    -6659.282   -1015.3586     102002.7      46.7237      46.7237      46.7237 
  391000    110.29705   -7221.3621   -6653.2397   -645.35819     102002.7      46.7237      46.7237      46.7237 
  392000     110.0002   -7232.9255   -6666.3321    -724.6986     102002.7      46.7237      46.7237      46.7237 
  393000    109.68186   -7220.4997   -6655.5461   -836.41359     102002.7      46.7237      46.7237      46.7237 
  394000    114.57448   -7210.8985   -6620.7437   -440.79077     102002.7      46.7237      46.7237      46.7237 
  395000    108.56528   -7232.2825   -6673.0802   -539.64789     102002.7      46.7237      46.7237      46.7237 
  396000     110.5178   -7211.7762   -6642.5168   -707.78824     102002.7      46.7237      46.7237      46.7237 
  397000    113.15698   -7229.8757   -6647.0223   -510.60414     102002.7      46.7237      46.7237      46.7237 
  398000    110.39847   -7238.0274   -6669.3826   -511.75016     102002.7      46.7237      46.7237      46.7237 
  399000    111.30244   -7209.0346   -6635.7336   -513.85615     102002.7      46.7237      46.7237      46.7237 
  400000    109.33118   -7231.6373   -6668.4899   -434.12882     102002.7      46.7237      46.7237      46.7237 
  401000    109.66226   -7228.3154   -6663.4626   -797.06087     102002.7      46.7237      46.7237      46.7237 
  402000    113.07267   -7208.2446   -6625.8254   -218.22677     102002.7      46.7237      46.7237      46.7237 
  403000    110.01992   -7232.2527   -6665.5577   -499.84025     102002.7      46.7237      46.7237      46.7237 
  404000    112.48332   -7215.6193   -6636.2358   -659.23134     102002.7      46.7237      46.7237      46.7237 
  405000    106.28097   -7219.7733    -6672.337   -548.94013     102002.7      46.7237      46.7237      46.7237 
  406000    107.75021   -7237.0087   -6682.0047   -722.13489     102002.7      46.7237      46.7237      46.7237 
  407000    110.05904   -7218.5545    -6651.658   -639.83535     102002.7      46.7237      46.7237      46.7237 
  408000     108.9055   -7205.8324   -6644.8776   -794.00119     102002.7      46.7237      46.7237      46.7237 
  409000    108.39136   -7220.2132   -6661.9067   -660.77393     102002.7      46.7237      46.7237      46.7237 
  410000    111.31666   -7214.2446   -6640.8703   -577.07277     102002.7      46.7237      46.7237      46.7237 
  411000    107.87063   -7236.0863    -6680.462   -350.12823     102002.7      46.7237      46.7237      46.7237 
  412000    110.25004   -7230.1969   -6662.3166    -532.2153     102002.7      46.7237      46.7237      46.7237 
  413000    108.60183   -7208.3114   -6648.9208   -488.77234     102002.7      46.7237      46.7237      46.7237 
  414000     108.7507   -7231.5161   -6671.3587   -343.19136     102002.7      46.7237      46.7237      46.7237 
  415000    111.26862   -7221.2321   -6648.1052   -745.42499     102002.7      46.7237      46.7237      46.7237 
  416000    109.18484   -7234.5477   -6672.1541   -503.40523     102002.7      46.7237      46.7237      46.7237 
  417000    107.26324   -7217.6169   -6665.1212   -644.91337     102002.7      46.7237      46.7237      46.7237 
  418000    112.29323    -7214.679   -6636.2745   -538.04286     102002.7      46.7237      46.7237      46.7237 
  419000    109.88723   -7230.5478   -6664.5362   -371.15228     102002.7      46.7237      46.7237      46.7237 
  420000    108.90578   -7219.9594   -6659.0032   -874.29221     102002.7      46.7237      46.7237      46.7237 
  421000    111.71272    -7215.798   -6640.3837   -700.52195     102002.7      46.7237      46.7237      46.7237 
  422000    107.96273   -7231.9762   -6675.8775     -762.244     102002.7      46.7237      46.7237      46.7237 
  423000    110.54917   -7214.4226   -6645.0016   -817.23489     102002.7      46.7237      46.7237      46.7237 
  424000    106.84357   -7214.0201    -6663.686   -316.16799     102002.7      46.7237      46.7237      46.7237 
  425000    108.36688   -7218.1742   -6659.9937   -498.22484     102002.7      46.7237      46.7237      46.7237 
  426000    107.25248   -7223.9307   -6671.4903   -649.73776     102002.7      46.7237      46.7237      46.7237 
  427000     110.5613   -7234.2147   -6664.7311   -492.24506     102002.7      46.7237      46.7237      46.7237 
  428000    109.99602   -7217.3791   -6650.8073   -680.45133     102002.7      46.7237      46.7237      46.7237 
  429000    113.45296   -7223.3178   -6638.9398   -574.76747     102002.7      46.7237      46.7237      46.7237 
  430000    110.50551   -7236.8525   -6667.6563   -457.26164     102002.7      46.7237      46.7237      46.7237 
  431000    111.98222    -7232.836   -6656.0335   -772.53569     102002.7      46.7237      46.7237      46.7237 
  432000    108.49198   -7208.5983   -6649.7735   -645.26221     102002.7      46.7237      46.7237      46.7237 
  433000    108.11002   -7224.1987   -6667.3413   -701.04892     102002.7      46.7237      46.7237      46.7237 
  434000    110.27702   -7220.7597   -6652.7404   -679.83788     102002.7      46.7237      46.7237      46.7237 
  435000    112.50919   -7215.9313   -6636.4144   -661.15589     102002.7      46.7237      46.7237      46.7237 
  436000    107.73499   -7216.6323   -6661.7066   -938.54624     102002.7      46.7237      46.7237      46.7237 
  437000    113.25104   -7215.0438   -6631.7058   -672.07855     102002.7      46.7237      46.7237      46.7237 
  438000    111.95193   -7220.2312   -6643.5847    -747.4515     102002.7      46.7237      46.7237      46.7237 
  439000    108.83414   -7216.0269   -6655.4397   -707.06823     102002.7      46.7237      46.7237      46.7237 
  440000    107.56459   -7243.2261   -6689.1781   -673.23684     102002.7      46.7237      46.7237      46.7237 
  441000    108.14292   -7231.4658    -6674.439   -764.82146     102002.7      46.7237      46.7237      46.7237 
  442000    108.21038   -7240.3393    -6682.965   -746.13885     102002.7      46.7237      46.7237      46.7237 
  443000    107.17054   -7194.2759   -6642.2576   -694.47269     102002.7      46.7237      46.7237      46.7237 
  444000    110.54645   -7247.2177   -6677.8106   -502.75874     102002.7      46.7237      46.7237      46.7237 
  445000    112.23778   -7220.9651   -6642.8463     -880.615     102002.7      46.7237      46.7237      46.7237 
  446000    104.94274   -7222.5292    -6681.986   -812.67267     102002.7      46.7237      46.7237      46.7237 
  447000    108.48823   -7207.2471   -6648.4416   -925.65174     102002.7      46.7237      46.7237      46.7237 
  448000    108.24121   -7238.6527   -6681.1195   -748.44528     102002.7      46.7237      46.7237      46.7237 
  449000    109.59813   -7237.4502   -6672.9278   -305.37862     102002.7      46.7237      46.7237      46.7237 
  450000    114.02078   -7203.3422   -6616.0395   -658.91912     102002.7      46.7237      46.7237      46.7237 
  451000    109.04212   -7229.9842   -6668.3257    -744.0299     102002.7      46.7237      46.7237      46.7237 
  452000    108.04821   -7243.9501   -6687.4111   -552.81406     102002.7      46.7237      46.7237      46.7237 
  453000    110.63947   -7237.7665   -6667.8803   -509.98908     102002.7      46.7237      46.7237      46.7237 
  454000    114.15607   -7238.3628   -6650.3632   -809.28503     102002.7      46.7237      46.7237      46.7237 
  455000    109.12344   -7226.5353   -6664.4579   -827.64965     102002.7      46.7237      46.7237      46.7237 
  456000    107.49342   -7229.9378   -6676.2564    -837.3752     102002.7      46.7237      46.7237      46.7237 
  457000    110.05264   -7210.6936   -6643.8301   -663.11947     102002.7      46.7237      46.7237      46.7237 
  458000     109.3909   -7243.8289   -6680.3739   -744.51505     102002.7      46.7237      46.7237      46.7237 
  459000    108.56754   -7235.2221   -6676.0081   -776.16098     102002.7      46.7237      46.7237      46.7237 
  460000    113.39681   -7226.1719   -6642.0831   -656.02732     102002.7      46.7237      46.7237      46.7237 
  461000    111.67196   -7232.7811   -6657.5768   -671.92541     102002.7      46.7237      46.7237      46.7237 
  462000    111.70454   -7205.8386   -6630.4664   -1023.4417     102002.7      46.7237      46.7237      46.7237 
  463000    112.47047   -7246.0429   -6666.7255   -689.59409     102002.7      46.7237      46.7237      46.7237 
  464000     111.3738   -7213.1175   -6639.4489   -753.03032     102002.7      46.7237      46.7237      46.7237 
  465000    112.64068   -7226.9057   -6646.7116   -686.27815     102002.7      46.7237      46.7237      46.7237 
  466000    105.69054   -7223.7442   -6679.3492   -447.79752     102002.7      46.7237      46.7237      46.7237 
  467000    110.09637   -7230.9946   -6663.9058   -403.05588     102002.7      46.7237      46.7237      46.7237 
  468000    106.91874   -7221.3392   -6670.6179    -682.3547     102002.7      46.7237      46.7237      46.7237 
  469000    110.62627   -7208.1093   -6638.2911   -685.18616     102002.7      46.7237      46.7237      46.7237 
  470000    111.40974   -7242.4336   -6668.5799   -762.23373     102002.7      46.7237      46.7237      46.7237 
  471000    111.49341   -7209.0488   -6634.7641   -516.06007     102002.7      46.7237      46.7237      46.7237 
  472000    110.94599   -7233.1114   -6661.6464   -357.83184     102002.7      46.7237      46.7237      46.7237 
  473000    112.54176   -7224.3922   -6644.7077   -581.45007     102002.7      46.7237      46.7237      46.7237 
  474000    105.89581   -7227.0591   -6681.6068   -566.31095     102002.7      46.7237      46.7237      46.7237 
  475000     112.5134   -7223.6061   -6644.0676   -532.72537     102002.7      46.7237      46.7237      46.7237 
  476000    106.79437   -7217.0615   -6666.9808   -853.77614     102002.7      46.7237      46.7237      46.7237 
  477000    107.40818   -7228.5902   -6675.3479   -853.33551     102002.7      46.7237      46.7237      46.7237 
  478000    108.44117   -7218.7216   -6660.1585   -447.04736     102002.7      46.7237      46.7237      46.7237 
  479000     109.2719   -7220.3451    -6657.503   -580.99675     102002.7      46.7237      46.7237      46.7237 
  480000    105.09533   -7231.9272    -6690.598   -1006.7473     102002.7      46.7237      46.7237      46.7237 
  481000    110.88701   -7218.6496   -6647.4884    -1028.852     102002.7      46.7237      46.7237      46.7237 
  482000    110.32262   -7225.3494   -6657.0952   -472.31363     102002.7      46.7237      46.7237      46.7237 
  483000    111.44085   -7220.8765   -6646.8625   -718.71469     102002.7      46.7237      46.7237      46.7237 
  484000    111.15635   -7237.4788   -6664.9303   -638.48731     102002.7      46.7237      46.7237      46.7237 
  485000    110.58537   -7226.0928   -6656.4852   -427.42547     102002.7      46.7237      46.7237      46.7237 
  486000    110.61177   -7223.1115   -6653.3679   -642.54985     102002.7      46.7237      46.7237      46.7237 
  487000    115.15635   -7246.7072   -6653.5553   -615.95963     102002.7      46.7237      46.7237      46.7237 
  488000     112.6829   -7212.8795   -6632.4679   -565.35892     102002.7      46.7237      46.7237      46.7237 
  489000    108.88423   -7231.1839   -6670.3387    -520.7076     102002.7      46.7237      46.7237      46.7237 
  490000     107.8087   -7238.9091   -6683.6037    -598.1367     102002.7      46.7237      46.7237      46.7237 
  491000     104.2104   -7224.1991    -6687.428   -659.62212     102002.7      46.7237      46.7237      46.7237 
  492000    107.82002   -7209.3242   -6653.9606   -673.52676     102002.7      46.7237      46.7237      46.7237 
  493000    109.49835   -7191.5563   -6627.5478   -701.80049     102002.7      46.7237      46.7237      46.7237 
  494000    111.46185   -7233.9943   -6659.8722   -511.52496     102002.7      46.7237      46.7237      46.7237 
  495000    113.10609   -7233.5263    -6650.935   -693.23347     102002.7      46.7237      46.7237      46.7237 
  496000    106.24548   -7236.6302   -6689.3768   -478.75378     102002.7      46.7237      46.7237      46.7237 
  497000    111.38924   -7225.4841   -6651.7359   -657.74308     102002.7      46.7237      46.7237      46.7237 
  498000    109.49047    -7235.062   -6671.0941   -849.87271     102002.7      46.7237      46.7237      46.7237 
  499000    111.92043   -7186.6458   -6610.1616   -537.60394     102002.7      46.7237      46.7237      46.7237 
  500000    107.78428   -7234.6729   -6679.4934   -776.62556     102002.7      46.7237      46.7237      46.7237 
  500505    110.13713   -7226.8908   -6659.5921   -906.72981     102002.7      46.7237      46.7237      46.7237 
Loop time of 565.211 on 24 procs for 500000 steps with 1729 atoms

Performance: 76.432 ns/day, 0.314 hours/ns, 884.626 timesteps/s
99.9% CPU use with 24 MPI tasks x no OpenMP threads

MPI task timing breakdown:
Section |  min time  |  avg time  |  max time  |%varavg| %total
---------------------------------------------------------------
Pair    | 181.79     | 274.45     | 363.88     | 314.3 | 48.56
Bond    | 68.401     | 78.212     | 88.259     |  57.7 | 13.84
Neigh   | 1.391      | 1.4074     | 1.4227     |   0.9 |  0.25
Comm    | 113.74     | 203.49     | 301.57     | 373.1 | 36.00
Output  | 0.8708     | 0.87108    | 0.87451    |   0.1 |  0.15
Modify  | 3.4        | 3.8125     | 4.144      |  10.3 |  0.67
Other   |            | 2.969      |            |       |  0.53

Nlocal:    72.0417 ave 92 max 52 min
Histogram: 1 0 3 3 7 3 1 3 1 2
Nghost:    1968 ave 2109 max 1886 min
Histogram: 14 2 0 0 0 0 0 0 0 8
Neighs:    7630.62 ave 10839 max 3344 min
Histogram: 1 1 3 2 3 3 2 1 7 1

Total # of neighbors = 183135
Ave neighs/atom = 105.92
Ave special neighs/atom = 6.66281
Neighbor list builds = 2693
Dangerous builds = 0
Neighbor list info ...
  update every 1 steps, delay 10 steps, check yes
  max neighbors/atom: 2000, page size: 100000
  master list distance cutoff = 16
  ghost atom cutoff = 16
  binsize = 8, bins = 6 6 6
  3 neighbor lists, perpetual/occasional/extra = 3 0 0
  (1) pair buck6d/coul/gauss/dsf, perpetual, skip from (3)
      attributes: half, newton on
      pair build: skip
      stencil: none
      bin: none
  (2) pair lj/cut, perpetual, skip from (3)
      attributes: half, newton on
      pair build: skip
      stencil: none
      bin: none
  (3) neighbor class addition, perpetual
      attributes: half, newton on
      pair build: half/bin/newton
      stencil: half/bin/3d/newton
      bin: standard
Setting up Verlet run ...
  Unit style    : real
  Current step  : 500505
  Time step     : 1
WARNING: Inconsistent image flags (../domain.cpp:786)
Per MPI rank memory allocation (min/avg/max) = 24.1 | 24.47 | 24.57 Mbytes
Step Time TotEng KinEng PotEng E_mol E_pair Temp Pxx Pyy Pzz Pxy Pxz Pyz Cella Cellb Cellc CellAlpha CellBeta CellGamma Volume Press 
  500505       500000   -6659.5921    567.29872   -7226.8908    4292.3596    -11519.25    110.13713    -1142.766   -1013.4978   -563.92567    -91.74611   -11.940107   -114.30093      46.7237      46.7237      46.7237           90           90           90     102002.7   -906.72981 
  501000       500495    -6637.159    577.10548   -7214.2644    4322.2225   -11536.487    112.04105   -957.78402   -934.40878   -855.77447   -147.97753   -120.63673   -41.864574      46.7237      46.7237      46.7237           90           90           90     102002.7   -915.98909 
  502000       501495   -6667.6541    554.16755   -7221.8216    4321.1243   -11542.946    107.58781   -225.42746   -1154.3809   -423.57458    190.58243   -136.78611   -194.75673      46.7237      46.7237      46.7237           90           90           90     102002.7   -601.12765 
  503000       502495   -6665.7773    564.83532   -7230.6127    4299.7606   -11530.373    109.65888   -624.31161   -564.94759   -702.22341    -28.74923    113.59993    156.26728      46.7237      46.7237      46.7237           90           90           90     102002.7    -630.4942 
  504000       503495   -6642.5384    568.27681   -7210.8152    4323.3852     -11534.2    110.32702    -783.0257   -898.96294   -264.76536   -82.296495   -42.344474   -65.599167      46.7237      46.7237      46.7237           90           90           90     102002.7     -648.918 
  505000       504495   -6647.8685    578.47954    -7226.348    4313.4559   -11539.804    112.30781   -987.60301   -804.49748   -934.47724     140.4489     70.11914    61.956561      46.7237      46.7237      46.7237           90           90           90     102002.7   -908.85924 
  506000       505495   -6688.3064     540.6709   -7228.9773    4307.7661   -11536.743    104.96752   -884.78095    -550.6099   -390.87822   -84.187489   -76.950983    11.408559      46.7237      46.7237      46.7237           90           90           90     102002.7   -608.75636 
  507000       506495   -6647.8432    574.46574    -7222.309    4320.3554   -11542.664    111.52856   -681.05389   -671.47617    -528.5923    31.195957    23.583389    121.78566      46.7237      46.7237      46.7237           90           90           90     102002.7   -627.04079 
  508000       507495   -6643.7606    584.37886   -7228.1394    4298.2873   -11526.427    113.45312   -514.57808   -417.57458   -493.17421   -75.566318   -177.44618   -11.944406      46.7237      46.7237      46.7237           90           90           90     102002.7   -475.10896 
  509000       508495    -6702.764    547.96087   -7250.7249    4288.4081   -11539.133    106.38282   -605.85811   -838.84546   -640.02526    57.588942   -112.07479   -7.1424632      46.7237      46.7237      46.7237           90           90           90     102002.7   -694.90961 
  510000       509495   -6648.5456    584.42076   -7232.9663    4297.0026   -11529.969    113.46126   -734.63203   -346.99453   -644.17425    11.455005   -154.77365    197.65913      46.7237      46.7237      46.7237           90           90           90     102002.7   -575.26694 
  511000       510495   -6669.1807    564.05583   -7233.2365    4305.6552   -11538.892    109.50755   -866.45524   -128.04299   -721.73639   -106.84775   -10.616836   -176.90522      46.7237      46.7237      46.7237           90           90           90     102002.7    -572.0782 
  512000       511495    -6673.588    559.31253   -7232.9005    4299.7477   -11532.648    108.58667   -543.84941   -715.00128   -997.03531    17.777633    144.91051     45.66941      46.7237      46.7237      46.7237           90           90           90     102002.7     -751.962 
  513000       512495   -6637.1358    570.46081   -7207.5966     4333.015   -11540.612    110.75103   -806.78852   -689.40132   -509.09242    144.42723    140.16645    64.172853      46.7237      46.7237      46.7237           90           90           90     102002.7   -668.42742 
  514000       513495   -6640.1262    582.33298   -7222.4592    4314.2958   -11536.755    113.05593   -871.40174   -477.29106   -1150.4202    63.300641   -77.743424   -43.349122      46.7237      46.7237      46.7237           90           90           90     102002.7   -833.03768 
  515000       514495   -6667.5678    552.40412   -7219.9719    4318.1505   -11538.122    107.24545   -968.40281   -1073.2052   -553.71929    126.09936    11.367253   -10.257304      46.7237      46.7237      46.7237           90           90           90     102002.7   -865.10909 
  516000       515495   -6642.2721    584.63352   -7226.9056    4305.6062   -11532.512    113.50256    -687.6309    -1097.584   -836.96792    234.30129    114.42135   -6.5595645      46.7237      46.7237      46.7237           90           90           90     102002.7   -874.06095 
  517000       516495   -6647.5018    558.46742   -7205.9692    4320.9962   -11526.965     108.4226   -777.66317   -828.01446   -842.21067   -13.341067    82.419647   -51.913899      46.7237      46.7237      46.7237           90           90           90     102002.7   -815.96277 
  518000       517495   -6675.0985    564.79055    -7239.889    4285.7061   -11525.595    109.65019   -426.72393   -727.40723   -728.87565    152.70977    -58.36222    146.51806      46.7237      46.7237      46.7237           90           90           90     102002.7   -627.66894 
  519000       518495   -6671.1326    543.05939    -7214.192    4309.8488   -11524.041    105.43123   -722.10654   -577.87458   -923.61675    -251.5873   -91.688309   -78.503155      46.7237      46.7237      46.7237           90           90           90     102002.7   -741.19929 
  520000       519495   -6640.3678     578.4372    -7218.805    4333.9873   -11552.792    112.29959   -383.85381   -900.09404   -629.87718    294.34953    204.91722   -156.19249      46.7237      46.7237      46.7237           90           90           90     102002.7   -637.94168 
  521000       520495   -6671.5312    562.89215   -7234.4233    4300.4082   -11534.832    109.28163   -298.81271   -673.47274   -684.44639    99.725845   -260.99931   -18.347419      46.7237      46.7237      46.7237           90           90           90     102002.7   -552.24394 
  522000       521495   -6655.9543    562.06772    -7218.022    4322.9471   -11540.969    109.12157   -801.18252   -453.92995   -503.62628   -267.01569     13.20109   -65.653403      46.7237      46.7237      46.7237           90           90           90     102002.7   -586.24625 
  523000       522495   -6631.2747    578.66866   -7209.9434     4318.881   -11528.824    112.34453   -1033.6707   -608.54722   -648.81298    107.14048   -233.79034   -245.42207      46.7237      46.7237      46.7237           90           90           90     102002.7   -763.67697 
  524000       523495   -6659.8803    570.04352   -7229.9238    4303.6115   -11533.535    110.67002   -453.95642   -1522.1869   -781.16377   -21.379067   -33.847641   -81.749828      46.7237      46.7237      46.7237           90           90           90     102002.7   -919.10236 
  525000       524495   -6641.0985    572.61873   -7213.7172     4323.097   -11536.814    111.16998   -711.15292   -125.18109   -443.01374   -119.01448      63.2724    -181.5055      46.7237      46.7237      46.7237           90           90           90     102002.7   -426.44925 
  526000       525495   -6654.8609    556.25672   -7211.1176    4313.3667   -11524.484     107.9934   -687.39753   -569.20364   -389.70328   -234.12776   -173.71236    -110.5254      46.7237      46.7237      46.7237           90           90           90     102002.7   -548.76815 
  527000       526495   -6674.7056    576.21588   -7250.9215    4284.8658   -11535.787    111.86834   -563.20769   -478.80492   -272.70717    86.424432    14.196411    188.56742      46.7237      46.7237      46.7237           90           90           90     102002.7   -438.23993 
  528000       527495   -6654.3759    552.35788   -7206.7338    4335.1016   -11541.835    107.23647    -391.4504   -655.83518   -746.65632      -70.068    82.612024    69.919589      46.7237      46.7237      46.7237           90           90           90     102002.7   -597.98063 
  529000       528495   -6673.0726    561.35924   -7234.4319    4288.8663   -11523.298    108.98402   -1216.8738   -578.27539   -408.09703   -231.01236   -296.20962    61.562052      46.7237      46.7237      46.7237           90           90           90     102002.7   -734.41541 
  530000       529495   -6670.6366    573.65187   -7244.2885     4282.034   -11526.322    111.37055   -1052.2664   -878.33391   -739.79113   -292.38646    144.52688 -0.041816327      46.7237      46.7237      46.7237           90           90           90     102002.7   -890.13048 
  531000       530495   -6627.7653    575.96156   -7203.7268    4320.9101   -11524.637    111.81896    -650.8538   -812.32813   -801.20021    96.604703    69.466507    84.716999      46.7237      46.7237      46.7237           90           90           90     102002.7   -754.79405 
  532000       531495    -6660.986    573.18259   -7234.1686    4294.3978   -11528.566    111.27945    -1510.744   -1066.3328   -1066.3243   -59.722105   -221.16618    118.96397      46.7237      46.7237      46.7237           90           90           90     102002.7   -1214.4671 
  533000       532495   -6676.7706    552.07108   -7228.8417    4307.3063   -11536.148    107.18079     -348.244   -834.54063    -942.0116     -78.5914    84.679331   -334.02233      46.7237      46.7237      46.7237           90           90           90     102002.7   -708.26541 
  534000       533495   -6649.8917     573.2807   -7223.1724    4301.6679    -11524.84    111.29849   -1318.7128   -748.52904   -904.64422   -212.41145    114.62251    36.458073      46.7237      46.7237      46.7237           90           90           90     102002.7   -990.62868 
  535000       534495   -6634.9043    579.33832   -7214.2426    4313.3514   -11527.594    112.47454   -1015.5944   -864.31465   -919.00182   -17.370313   -247.30476   -53.080955      46.7237      46.7237      46.7237           90           90           90     102002.7   -932.97029 
  536000       535495   -6684.4508     550.2364   -7234.6872    4289.6242   -11524.311     106.8246   -1048.1835   -1112.1541   -301.58814    41.729048    315.44465    65.602082      46.7237      46.7237      46.7237           90           90           90     102002.7   -820.64191 
  537000       536495   -6663.4521    570.28439   -7233.7365    4323.9535    -11557.69    110.71678   -728.34157   -855.15785   -567.45395     44.87043   -72.939269   -33.643526      46.7237      46.7237      46.7237           90           90           90     102002.7   -716.98446 
  538000       537495   -6653.8177    568.02718   -7221.8449    4329.8202   -11551.665    110.27856   -785.50538   -492.41894   -907.99946    113.64939   -87.456631   -145.39443      46.7237      46.7237      46.7237           90           90           90     102002.7   -728.64126 
  539000       538495   -6655.2021    559.54681   -7214.7489    4322.9638   -11537.713    108.63215    -965.2231    -761.0823   -808.75583   -86.575857   -216.48595   -79.603774      46.7237      46.7237      46.7237           90           90           90     102002.7   -845.02041 
  540000       539495   -6649.5306    576.67692   -7226.2076    4311.4293   -11537.637    111.95785   -329.96629   -966.47775   -493.30609   -91.591881   -62.370551   -211.46274      46.7237      46.7237      46.7237           90           90           90     102002.7   -596.58338 
  541000       540495   -6656.7553    547.19215   -7203.9475    4320.8716   -11524.819    106.23358   -761.73583   -1159.2768   -302.76777    207.28639   -164.00847    142.97318      46.7237      46.7237      46.7237           90           90           90     102002.7   -741.26012 
  542000       541495   -6673.2821    572.41108   -7245.6932    4285.8528   -11531.546    111.12966   -989.28661   -723.94738   -382.09051   -85.650038   -81.362747    205.17183      46.7237      46.7237      46.7237           90           90           90     102002.7    -698.4415 
  543000       542495   -6675.2911    564.13339   -7239.4245    4284.4325   -11523.857     109.5226   -572.82213   -796.25495   -541.27462   -272.57097   -81.360221   -53.075065      46.7237      46.7237      46.7237           90           90           90     102002.7    -636.7839 
  544000       543495    -6621.391    590.85546   -7212.2465    4319.9588   -11532.205    114.71051   -624.55502   -1256.2027    -541.9654   -17.144022   -52.312315   -22.250616      46.7237      46.7237      46.7237           90           90           90     102002.7   -807.57436 
  545000       544495   -6650.7926    563.93176   -7214.7244    4308.1049   -11522.829    109.48346   -842.93317   -106.08208   -591.08982   -180.45355   -77.005801   -40.622705      46.7237      46.7237      46.7237           90           90           90     102002.7   -513.36835 
  546000       545495   -6674.4705    566.24163   -7240.7121       4294.9   -11535.612    109.93191   -258.17141   -604.17587   -600.66268   -15.615779    91.366584   -136.79257      46.7237      46.7237      46.7237           90           90           90     102002.7   -487.66999 
  547000       546495   -6651.3506     577.4371   -7228.7876     4303.943   -11532.731    112.10543   -947.52708   -867.61931   -111.78836    128.05348    -171.8187    21.372126      46.7237      46.7237      46.7237           90           90           90     102002.7   -642.31158 
  548000       547495   -6662.8882    568.80464   -7231.6928    4285.4268    -11517.12     110.4295   -901.86869   -529.68516    -867.6098      95.9834    267.32577    34.458042      46.7237      46.7237      46.7237           90           90           90     102002.7   -766.38788 
  549000       548495   -6673.6532    560.32004   -7233.9732    4285.4966    -11519.47    108.78227   -842.08511   -829.55112   -596.48254    196.14272    -135.9164   -57.279497      46.7237      46.7237      46.7237           90           90           90     102002.7   -756.03959 
  550000       549495   -6665.3365    547.61913   -7212.9556    4309.3147    -11522.27    106.31648   -354.38673   -611.62971   -322.32069   -14.300084   -111.01992   -7.0245623      46.7237      46.7237      46.7237           90           90           90     102002.7   -429.44571 
  551000       550495   -6647.3036    562.98253   -7210.2861    4312.0071   -11522.293    109.29917    -576.7357   -548.01257   -704.02556   -4.2253576   -253.53862    27.928481      46.7237      46.7237      46.7237           90           90           90     102002.7   -609.59128 
  552000       551495   -6681.3722    555.64257   -7237.0148    4290.2613   -11527.276    107.87417   -330.91874   -922.60321   -552.03708    129.09053   -86.222729    15.072506      46.7237      46.7237      46.7237           90           90           90     102002.7   -601.85301 
  553000       552495   -6656.7263     567.8874   -7224.6137    4316.6493   -11541.263    110.25142   -353.39591   -735.55062   -795.01974    -121.6864   -344.22062     129.8386      46.7237      46.7237      46.7237           90           90           90     102002.7   -627.98876 
  554000       553495   -6651.4565    576.54241   -7227.9989    4294.0405   -11522.039    111.93173   -635.14045   -582.70224   -437.80571    130.07342   -179.66418   -92.336565      46.7237      46.7237      46.7237           90           90           90     102002.7    -551.8828 
  555000       554495   -6643.5953     577.0448   -7220.6401    4296.4828   -11517.123    112.02927   -699.31669   -449.12289   -677.60137   -206.98551   -178.19704    55.961265      46.7237      46.7237      46.7237           90           90           90     102002.7   -608.68032 
[...]
  936000       935495   -6685.2509    552.16137   -7237.4123    4305.6073    -11543.02    107.19832   -1221.3344   -698.40875   -871.94216   -153.61566   -84.888865    143.64808      46.7237      46.7237      46.7237           90           90           90     102002.7   -930.56178 
  937000       936495   -6648.9828    570.56152   -7219.5443    4310.3046   -11529.849    110.77058   -508.90799   -1017.6997   -112.14522    277.11283    127.60749    49.634938      46.7237      46.7237      46.7237           90           90           90     102002.7   -546.25095 
  938000       937495   -6663.7851    567.81643   -7231.6015    4308.3581    -11539.96    110.23764   -900.92799   -1054.0429   -645.43144    29.772731    59.031652    45.073481      46.7237      46.7237      46.7237           90           90           90     102002.7   -866.80079 
  939000       938495   -6666.8044    562.62365    -7229.428    4310.1465   -11539.575     109.2295   -552.10474   -630.26907   -786.17208     5.023746    263.66236   -117.21875      46.7237      46.7237      46.7237           90           90           90     102002.7   -656.18196 
  940000       939495   -6645.8153    573.80891   -7219.6242    4307.0489   -11526.673    111.40104   -623.17227   -721.71967   -997.28136   -183.75422    114.69351    111.92463      46.7237      46.7237      46.7237           90           90           90     102002.7   -780.72443 
  941000       940495   -6678.9597    565.25155   -7244.2113    4283.9383    -11528.15    109.73969   -278.88747    -905.8626   -904.60024    67.890599    33.270671   -68.336819      46.7237      46.7237      46.7237           90           90           90     102002.7    -696.4501 
  942000       941495   -6646.9771    573.97112   -7220.9482    4321.0393   -11541.988    111.43253   -879.74021   -98.006647   -160.38379   -293.22432   -225.58844    -92.26002      46.7237      46.7237      46.7237           90           90           90     102002.7   -379.37688 
  943000       942495   -6691.7419    562.83444   -7254.5764     4285.579   -11540.155    109.27042     -345.856   -825.29291   -857.96079    146.13474    -84.43356    205.64905      46.7237      46.7237      46.7237           90           90           90     102002.7    -676.3699 
  944000       943495   -6652.3822    574.54118   -7226.9234    4318.7806   -11545.704    111.54321     -658.323   -684.76919   -99.337538   -16.716039   -0.5564253   -69.257906      46.7237      46.7237      46.7237           90           90           90     102002.7   -480.80991 
  945000       944495   -6689.8534    552.46906   -7242.3225    4290.7465   -11533.069    107.25806   -413.43853   -548.89407   -316.69361   -82.727952   -216.56415   -166.81225      46.7237      46.7237      46.7237           90           90           90     102002.7   -426.34207 
  946000       945495   -6646.6617    575.29759   -7221.9592    4317.7788   -11539.738    111.69006   -129.40125   -249.19859   -613.89907    47.583974    6.0234659   -76.104743      46.7237      46.7237      46.7237           90           90           90     102002.7   -330.83297 
  947000       946495   -6636.4038    588.06599   -7224.4698    4290.9145   -11515.384    114.16895   -220.19755   -201.51958    -551.6348    117.71811    146.09861   -219.94899      46.7237      46.7237      46.7237           90           90           90     102002.7   -324.45064 
  948000       947495   -6671.3376    575.18799   -7246.5256    4295.7526   -11542.278    111.66878   -121.60257   -414.80638   -299.40948    211.72344    47.107091   -20.088912      46.7237      46.7237      46.7237           90           90           90     102002.7   -278.60614 
  949000       948495   -6671.0568    561.34982   -7232.4066    4290.1567   -11522.563    108.98219   -661.76962   -448.94927    -745.6451    67.275909    213.13092    29.687971      46.7237      46.7237      46.7237           90           90           90     102002.7     -618.788 
  950000       949495   -6651.2348    559.76744   -7211.0023    4320.1104   -11531.113    108.67499   -778.43744   -425.00997   -531.11313    12.844486   -62.301852    120.23777      46.7237      46.7237      46.7237           90           90           90     102002.7   -578.18685 
  951000       950495   -6669.3986    555.98036    -7225.379    4300.7507    -11526.13    107.93975    -811.5805   -818.20254   -591.03688   -14.474686    102.70529    15.296507      46.7237      46.7237      46.7237           90           90           90     102002.7   -740.27331 
  952000       951495   -6662.0916    552.18562   -7214.2772    4320.3589   -11534.636    107.20303   -956.62148   -1028.9239   -733.53879    94.821421    225.69965    108.60449      46.7237      46.7237      46.7237           90           90           90     102002.7    -906.3614 
  953000       952495      -6636.4    575.21061   -7211.6107    4320.9137   -11532.524    111.67317   -508.06193   -662.71807   -571.66684   -30.244366     60.81112    21.345816      46.7237      46.7237      46.7237           90           90           90     102002.7   -580.81562 
  954000       953495   -6651.7968    575.82754   -7227.6243    4313.0597   -11540.684    111.79294   -812.08948   -839.26791   -313.15361   -157.91712    33.442316   -62.956153      46.7237      46.7237      46.7237           90           90           90     102002.7     -654.837 
  955000       954495    -6696.936    537.12288   -7234.0589    4308.2981   -11542.357     104.2787   -520.31914   -833.86957   -1016.9061    188.21575    248.69462   -234.15751      46.7237      46.7237      46.7237           90           90           90     102002.7   -790.36494 
  956000       955495   -6642.9554    576.18516   -7219.1406    4304.9525   -11524.093    111.86237   -236.43985   -357.42717   -534.99681     168.9087   -43.208743   -120.55638      46.7237      46.7237      46.7237           90           90           90     102002.7   -376.28794 
  957000       956495   -6653.7954    563.23024   -7217.0256    4321.8305   -11538.856    109.34727   -834.10927   -124.74494   -634.89365   -109.75066     42.44211   -68.172604      46.7237      46.7237      46.7237           90           90           90     102002.7   -531.24929 
  958000       957495   -6673.8236    554.62246    -7228.446    4298.8884   -11527.334    107.67612   -520.73389   -715.51259   -380.48501   -210.27121   -174.56464   -75.688378      46.7237      46.7237      46.7237           90           90           90     102002.7   -538.91049 
  959000       958495   -6641.8841    578.10098   -7219.9851    4326.7311   -11546.716    112.23432   -247.37963   -512.72771    -827.3733   -95.374636   -54.338818    3.9994304      46.7237      46.7237      46.7237           90           90           90     102002.7   -529.16021 
  960000       959495   -6653.3372    570.69779    -7224.035    4319.0798   -11543.115    110.79704   -799.78543   -677.32187   -766.34976    28.096734    197.47912    18.642546      46.7237      46.7237      46.7237           90           90           90     102002.7   -747.81902 
  961000       960495   -6653.9033    578.00854   -7231.9119    4309.2621   -11541.174    112.21637   -748.73106   -814.11123   -736.92372    66.093776   -195.13397    -138.8895      46.7237      46.7237      46.7237           90           90           90     102002.7   -766.58867 
  962000       961495   -6636.3334    576.30077   -7212.6342    4333.0424   -11545.677    111.88482   -589.15916   -1004.2934   -464.32132   -26.020077   -160.08392    42.393928      46.7237      46.7237      46.7237           90           90           90     102002.7   -685.92464 
  963000       962495   -6662.2308    565.87396   -7228.1048    4305.8089   -11533.914    109.86053   -682.14556   -1127.8344   -601.99378   -40.182837    -94.91496    126.73962      46.7237      46.7237      46.7237           90           90           90     102002.7   -803.99126 
  964000       963495   -6660.6248    564.96318    -7225.588    4309.9551   -11535.543     109.6837   -836.43051   -354.58338   -662.92227     44.90483    37.276371   -96.055095      46.7237      46.7237      46.7237           90           90           90     102002.7   -617.97872 
  965000       964495   -6645.9766    574.88015   -7220.8567    4313.1177   -11533.974    111.60901   -336.65989   -602.14627   -772.18772    322.97811    71.584851   -73.166188      46.7237      46.7237      46.7237           90           90           90     102002.7   -570.33129 
  966000       965495   -6669.4617    557.40967   -7226.8714      4307.63   -11534.501    108.21724   -715.80381   -888.92099   -742.16043   -153.61928  -0.21356263    103.97229      46.7237      46.7237      46.7237           90           90           90     102002.7   -782.29508 
  967000       966495    -6655.079     584.8387   -7239.9177    4290.0485   -11529.966     113.5424   -869.76824   -417.35616   -520.59735   -61.402791    179.13402   -100.05742      46.7237      46.7237      46.7237           90           90           90     102002.7   -602.57392 
  968000       967495   -6668.5165    565.73599   -7234.2524    4312.8814   -11547.134    109.83374   -996.96432   -883.81193   -911.57451   -21.446938     102.0898    113.81061      46.7237      46.7237      46.7237           90           90           90     102002.7   -930.78359 
  969000       968495   -6640.5526    562.07652   -7202.6291    4329.3608    -11531.99    109.12328   -716.78252   -709.83518   -651.15113    18.021255   -102.12517    211.18614      46.7237      46.7237      46.7237           90           90           90     102002.7   -692.58961 
  970000       969495   -6655.1488    559.98309   -7215.1319    4318.6474   -11533.779    108.71685   -317.90031   -1460.3316   -473.33116    -3.264096     271.6229    136.27034      46.7237      46.7237      46.7237           90           90           90     102002.7   -750.52101 
  971000       970495   -6645.2385    560.86991   -7206.1084    4323.6458   -11529.754    108.88902   -594.87046    -1035.222    -725.1995    212.16074    143.98472    -273.7927      46.7237      46.7237      46.7237           90           90           90     102002.7   -785.09732 
  972000       971495   -6672.3781    554.76244   -7227.1406    4322.9268   -11550.067     107.7033   -575.22294     -891.741   -714.34311    -135.1335    11.633724   -327.96275      46.7237      46.7237      46.7237           90           90           90     102002.7   -727.10235 
  973000       972495   -6665.4438    569.12635   -7234.5701    4287.3319   -11521.902    110.49195   -423.52425   -753.67564   -624.44373   -117.99535    72.254201   -77.328337      46.7237      46.7237      46.7237           90           90           90     102002.7   -600.54787 
  974000       973495   -6658.5525    565.82728   -7224.3797    4308.1298    -11532.51    109.85146    -549.1636   -430.48048   -725.28037    387.11512    301.20724   -74.745068      46.7237      46.7237      46.7237           90           90           90     102002.7   -568.30815 
  975000       974495   -6687.4648     544.6638   -7232.1286    4293.8039   -11525.933    105.74272    -492.2549   -573.13946   -549.54192    230.76649   -57.911452   -76.582545      46.7237      46.7237      46.7237           90           90           90     102002.7    -538.3121 
  976000       975495   -6657.1721     565.5933   -7222.7654    4322.8923   -11545.658    109.80604    -323.8914   -585.34699   -735.72267   -305.25324   -55.601134    150.71914      46.7237      46.7237      46.7237           90           90           90     102002.7   -548.32035 
  977000       976495   -6628.0669    574.63198   -7202.6989     4343.905   -11546.604    111.56083   -691.07196   -456.11474    -738.9745    29.107184    78.022935   -60.156128      46.7237      46.7237      46.7237           90           90           90     102002.7    -628.7204 
  978000       977495   -6663.4686    560.24719   -7223.7158    4297.1921   -11520.908    108.76813   -690.72104   -1096.0885    -574.4019   -98.283489    2.0950279    27.877135      46.7237      46.7237      46.7237           90           90           90     102002.7   -787.07049 
  979000       978495   -6688.0192    556.20802   -7244.2272    4299.0871   -11543.314    107.98395   -356.59806   -814.48456   -499.47428   -190.96074   -193.08697   -94.893193      46.7237      46.7237      46.7237           90           90           90     102002.7    -556.8523 
  980000       979495   -6656.8873    570.48006   -7227.3674     4302.527   -11529.894    110.75477   -482.89873   -898.95576   -589.57342   -28.254113    47.338671   -39.349778      46.7237      46.7237      46.7237           90           90           90     102002.7   -657.14264 
  981000       980495   -6652.2227    565.95231    -7218.175    4309.5011   -11527.676    109.87574   -375.62297   -512.34783   -724.37307   -309.07384    -274.1426   -332.53363      46.7237      46.7237      46.7237           90           90           90     102002.7   -537.44796 
  982000       981495   -6688.5801    552.35744   -7240.9375    4300.1776   -11541.115    107.23639   -567.72569   -411.45595   -799.84956   -53.959752   -213.25743    77.233397      46.7237      46.7237      46.7237           90           90           90     102002.7    -593.0104 
  983000       982495   -6658.8915     565.3371   -7224.2286    4303.2313    -11527.46     109.7563   -550.31996   -886.26518   -593.77659    249.68255    78.392511   -97.787115      46.7237      46.7237      46.7237           90           90           90     102002.7   -676.78724 
  984000       983495   -6653.3044    576.31877   -7229.6232    4299.3907   -11529.014    111.88831    -344.7692   -1211.5956    -832.1631   -274.13449    157.38105   -139.08075      46.7237      46.7237      46.7237           90           90           90     102002.7   -796.17596 
  985000       984495   -6657.1152    568.73023   -7225.8454    4315.3735   -11541.219    110.41505   -482.93761   -716.42972   -789.14529   -166.94703   -301.80117   -82.945225      46.7237      46.7237      46.7237           90           90           90     102002.7   -662.83754 
  986000       985495   -6668.0776    566.32081   -7234.3985    4308.7633   -11543.162    109.94728   -410.26173   -818.16319   -538.65295    144.11348   -6.1567485   -11.132844      46.7237      46.7237      46.7237           90           90           90     102002.7   -589.02596 
  987000       986495   -6629.7587    575.14465   -7204.9033    4333.4339   -11538.337    111.66036   -502.25957   -856.22454   -908.26315   -167.77561   -145.53809     151.2456      46.7237      46.7237      46.7237           90           90           90     102002.7   -755.58242 
  988000       987495   -6637.6796    581.34366   -7219.0233    4315.3179   -11534.341    112.86386   -182.97894   -463.24187     -405.438    -47.01511    117.75345    141.66789      46.7237      46.7237      46.7237           90           90           90     102002.7   -350.55294 
  989000       988495   -6664.8723    566.28767   -7231.1599     4303.328   -11534.488    109.94084   -442.83878   -882.52289   -873.13361   -156.57406    18.184964    203.72152      46.7237      46.7237      46.7237           90           90           90     102002.7   -732.83176 
  990000       989495   -6639.5364    576.05844   -7215.5949    4327.3322   -11542.927    111.83777   -514.43257   -974.51082   -382.78126   -183.83506    51.003708    221.94794      46.7237      46.7237      46.7237           90           90           90     102002.7   -623.90822 
  991000       990495   -6669.1627    561.00537    -7230.168    4287.2458   -11517.414    108.91532   -238.80005   -362.86241   -615.86761    153.83332    186.37737   -134.58368      46.7237      46.7237      46.7237           90           90           90     102002.7   -405.84335 
  992000       991495    -6652.337    577.17097    -7229.508    4309.2518    -11538.76    112.05376   -374.50036    -552.2925   -804.92034   -131.92246    219.28872   -225.99102      46.7237      46.7237      46.7237           90           90           90     102002.7   -577.23773 
  993000       992495   -6655.6357    552.56065   -7208.1964    4321.0264   -11529.223    107.27584   -339.35025    -1332.231   -22.829007    122.92448   -46.585476    192.88596      46.7237      46.7237      46.7237           90           90           90     102002.7   -564.80343 
  994000       993495   -6698.7238    538.63969   -7237.3635    4294.2904   -11531.654    104.57318    -965.3793   -801.27199   -713.23074    159.02456    46.848792   -12.182879      46.7237      46.7237      46.7237           90           90           90     102002.7   -826.62734 
  995000       994495   -6653.1671     564.2647   -7217.4318    4309.9898   -11527.422     109.5481   -535.50449    -817.0312   -831.03059    -32.48444    255.14745    89.627805      46.7237      46.7237      46.7237           90           90           90     102002.7   -727.85543 
  996000       995495   -6665.0588    574.04085   -7239.0997    4279.8273   -11518.927    111.44607   -798.94028   -609.59827   -747.08437   -75.336166    -27.55246    312.77355      46.7237      46.7237      46.7237           90           90           90     102002.7   -718.54097 
  997000       996495   -6667.8613    566.02576   -7233.8871    4300.5436   -11534.431       109.89   -952.36029   -757.55033   -1038.2078   -64.128089    292.14904   -64.973655      46.7237      46.7237      46.7237           90           90           90     102002.7   -916.03946 
  998000       997495   -6662.8049    562.03176   -7224.8367    4313.6351   -11538.472    109.11459   -724.02813   -1059.4005   -1003.8953   -17.219443    174.42102   -108.31912      46.7237      46.7237      46.7237           90           90           90     102002.7   -929.10798 
  999000       998495   -6663.9089    562.80365   -7226.7125    4300.0223   -11526.735    109.26445   -910.73012   -1128.5463   -913.89537   -20.416964   -23.460059    31.348957      46.7237      46.7237      46.7237           90           90           90     102002.7    -984.3906 
 1000000       999495    -6639.568    585.63084   -7225.1988    4324.1757   -11549.375    113.69619   -1139.9625   -678.99401    -543.7469    96.615371   -40.048055    18.210457      46.7237      46.7237      46.7237           90           90           90     102002.7    -787.5678 
 1000505      1000000   -6660.3188    556.38734   -7216.7061    4319.2579   -11535.964    108.01876   -792.36782   -366.59109   -801.21878   -59.083668   -127.19875    27.267963      46.7237      46.7237      46.7237           90           90           90     102002.7   -653.39256 
Loop time of 630.33 on 24 procs for 500000 steps with 1729 atoms

Performance: 68.536 ns/day, 0.350 hours/ns, 793.236 timesteps/s
99.9% CPU use with 24 MPI tasks x no OpenMP threads

MPI task timing breakdown:
Section |  min time  |  avg time  |  max time  |%varavg| %total
---------------------------------------------------------------
Pair    | 198.54     | 302.61     | 410.85     | 341.0 | 48.01
Bond    | 71.417     | 82.335     | 91.612     |  57.3 | 13.06
Neigh   | 1.3723     | 1.3894     | 1.4028     |   0.9 |  0.22
Comm    | 114.99     | 227.06     | 336.16     | 408.4 | 36.02
Output  | 0.88664    | 2.0922     | 2.1448     |  17.4 |  0.33
Modify  | 11.325     | 11.858     | 13.286     |  10.8 |  1.88
Other   |            | 2.989      |            |       |  0.47

Nlocal:    72.0417 ave 101 max 51 min
Histogram: 2 0 6 4 4 1 4 2 0 1
Nghost:    1972.71 ave 2142 max 1870 min
Histogram: 7 9 0 0 0 0 0 0 2 6
Neighs:    7634.58 ave 12540 max 3740 min
Histogram: 1 3 2 1 10 3 2 0 1 1

Total # of neighbors = 183230
Ave neighs/atom = 105.975
Ave special neighs/atom = 6.66281
Neighbor list builds = 2627
Dangerous builds = 0
Total wall time: 0:19:57
