LAMMPS (30 Mar 2018)
Reading data file ...
  orthogonal box = (0 0 0) to (46.7237 46.7237 46.7237)
  2 by 3 by 4 MPI processor grid
  reading atoms ...
  2199 atoms
  scanning bonds ...
  5 = max bonds/atom
  scanning angles ...
  10 = max angles/atom
  scanning dihedrals ...
  32 = max dihedrals/atom
  scanning impropers ...
  3 = max impropers/atom
  reading bonds ...
  2064 bonds
  reading angles ...
  3696 angles
  reading dihedrals ...
  6240 dihedrals
  reading impropers ...
  1008 impropers
Finding 1-2 1-3 1-4 neighbors ...
  special bond factors lj:   0          0          0         
  special bond factors coul: 0          0          0         
  5 = max # of 1-2 neighbors
  8 = max # of 1-3 neighbors
  20 = max # of 1-4 neighbors
  19 = max # of special neighbors
Finding 1-2 1-3 1-4 neighbors ...
  special bond factors lj:   0          0          1         
  special bond factors coul: 1          1          1         
  5 = max # of 1-2 neighbors
  8 = max # of 1-3 neighbors
  19 = max # of special neighbors
WARNING: Using 'neigh_modify every 1 delay 0 check yes' setting during minimization (../min.cpp:168)
Neighbor list info ...
  update every 1 steps, delay 0 steps, check yes
  max neighbors/atom: 2000, page size: 100000
  master list distance cutoff = 16
  ghost atom cutoff = 16
  binsize = 8, bins = 6 6 6
  3 neighbor lists, perpetual/occasional/extra = 3 0 0
  (1) pair buck6d/coul/gauss/dsf, perpetual, skip from (3)
      attributes: half, newton on
      pair build: skip
      stencil: none
      bin: none
  (2) pair lj/cut, perpetual, skip from (3)
      attributes: half, newton on
      pair build: skip
      stencil: none
      bin: none
  (3) neighbor class addition, perpetual
      attributes: half, newton on
      pair build: half/bin/newton
      stencil: half/bin/3d/newton
      bin: standard
Setting up cg style minimization ...
  Unit style    : real
  Current step  : 0
WARNING: Inconsistent image flags (../domain.cpp:786)
Per MPI rank memory allocation (min/avg/max) = 22.9 | 23.34 | 24.45 Mbytes
Step Temp E_pair E_mol TotEng Press 
       0            0   -12870.737    6482.8914    -6387.846    6003.1779 
     501            0   -13057.358    3721.0362    -9336.322   -710.26801 
Loop time of 1.41358 on 24 procs for 501 steps with 2199 atoms

99.2% CPU use with 24 MPI tasks x no OpenMP threads

Minimization stats:
  Stopping criterion = max force evaluations
  Energy initial, next-to-last, final = 
         -6387.8460468     -9336.21780463     -9336.32204032
  Force two-norm initial, final = 2574.4 13.8796
  Force max component initial, final = 151.939 2.07288
  Final line search alpha, max atom move = 0.00296672 0.00614965
  Iterations, force evaluations = 501 1001

MPI task timing breakdown:
Section |  min time  |  avg time  |  max time  |%varavg| %total
---------------------------------------------------------------
Pair    | 0.55076    | 0.74808    | 0.99004    |  15.0 | 52.92
Bond    | 0.10773    | 0.1588     | 0.19869    |   5.5 | 11.23
Neigh   | 0.013692   | 0.014925   | 0.016243   |   0.8 |  1.06
Comm    | 0.21816    | 0.4681     | 0.66409    |  19.4 | 33.11
Output  | 0          | 0          | 0          |   0.0 |  0.00
Modify  | 0          | 0          | 0          |   0.0 |  0.00
Other   |            | 0.02368    |            |       |  1.67

Nlocal:    91.625 ave 115 max 65 min
Histogram: 1 0 1 3 8 0 5 4 1 1
Nghost:    2449.62 ave 2621 max 2339 min
Histogram: 8 7 1 0 0 0 0 0 0 8
Neighs:    7640.54 ave 11471 max 4856 min
Histogram: 3 4 3 1 3 4 2 0 2 2

Total # of neighbors = 183373
Ave neighs/atom = 83.3893
Ave special neighs/atom = 5.23874
Neighbor list builds = 15
Dangerous builds = 0
Neighbor list info ...
  update every 1 steps, delay 10 steps, check yes
  max neighbors/atom: 2000, page size: 100000
  master list distance cutoff = 16
  ghost atom cutoff = 16
  binsize = 8, bins = 6 6 6
  3 neighbor lists, perpetual/occasional/extra = 3 0 0
  (1) pair buck6d/coul/gauss/dsf, perpetual, skip from (3)
      attributes: half, newton on
      pair build: skip
      stencil: none
      bin: none
  (2) pair lj/cut, perpetual, skip from (3)
      attributes: half, newton on
      pair build: skip
      stencil: none
      bin: none
  (3) neighbor class addition, perpetual
      attributes: half, newton on
      pair build: half/bin/newton
      stencil: half/bin/3d/newton
      bin: standard
Setting up Verlet run ...
  Unit style    : real
  Current step  : 501
  Time step     : 1
WARNING: Inconsistent image flags (../domain.cpp:786)
Per MPI rank memory allocation (min/avg/max) = 22.55 | 22.74 | 23.33 Mbytes
Step Temp PotEng TotEng Press Volume Lx Ly Lz 
     501          110    -9336.322   -8615.6218   -387.28785     102002.7      46.7237      46.7237      46.7237 
    1000    93.663811   -8699.2101   -8085.5416   -640.99539     102002.7      46.7237      46.7237      46.7237 
    2000    114.05411   -8592.8381    -7845.576   -757.60762     102002.7      46.7237      46.7237      46.7237 
    3000    111.98494   -8607.9823   -7874.2771   -888.32489     102002.7      46.7237      46.7237      46.7237 
    4000    110.03464   -8568.5156   -7847.5884   -505.47579     102002.7      46.7237      46.7237      46.7237 
    5000     109.0164   -8578.6772   -7864.4213   -700.15455     102002.7      46.7237      46.7237      46.7237 
    6000    109.66096   -8587.8222   -7869.3433   -448.78816     102002.7      46.7237      46.7237      46.7237 
    7000    112.16558   -8577.5879   -7842.6992   -716.62336     102002.7      46.7237      46.7237      46.7237 
    8000    109.21553   -8580.2486   -7864.6881   -823.66738     102002.7      46.7237      46.7237      46.7237 
    9000    113.70182   -8553.5764   -7808.6225   -769.68228     102002.7      46.7237      46.7237      46.7237 
   10000    111.17079   -8567.6192   -7839.2482   -900.32339     102002.7      46.7237      46.7237      46.7237 
   11000    106.13656   -8573.1124   -7877.7247    -565.6345     102002.7      46.7237      46.7237      46.7237 
   12000    105.90138   -8588.7736   -7894.9268   -875.31356     102002.7      46.7237      46.7237      46.7237 
   13000    106.88269   -8587.2145   -7886.9383   -686.13842     102002.7      46.7237      46.7237      46.7237 
   14000    110.69112   -8587.1405   -7861.9121   -584.20003     102002.7      46.7237      46.7237      46.7237 
   15000    112.33741   -8575.7793   -7839.7648    -983.5494     102002.7      46.7237      46.7237      46.7237 
   16000    107.75344   -8570.5857   -7864.6045    -903.0061     102002.7      46.7237      46.7237      46.7237 
   17000    113.04366   -8558.9145   -7818.2727   -856.02511     102002.7      46.7237      46.7237      46.7237 
   18000    110.30819   -8566.3394     -7843.62    -888.9622     102002.7      46.7237      46.7237      46.7237 
   19000    109.24583    -8561.434   -7845.6749   -352.32423     102002.7      46.7237      46.7237      46.7237 
   20000    107.24003   -8575.1923   -7872.5749   -644.39014     102002.7      46.7237      46.7237      46.7237 
   21000    110.69666   -8582.2795   -7857.0148   -596.75039     102002.7      46.7237      46.7237      46.7237 
   22000    107.96272   -8586.5428   -7879.1905   -724.52396     102002.7      46.7237      46.7237      46.7237 
   23000    110.96782   -8587.0338   -7859.9926   -1011.6076     102002.7      46.7237      46.7237      46.7237 
   24000    108.48519   -8544.9177   -7834.1422   -654.82524     102002.7      46.7237      46.7237      46.7237 
   25000     111.0806   -8585.0848   -7857.3046   -653.20909     102002.7      46.7237      46.7237      46.7237 
   26000    112.96629   -8542.6489    -7802.514   -654.67412     102002.7      46.7237      46.7237      46.7237 
   27000    109.54034   -8574.9726    -7857.284   -556.00854     102002.7      46.7237      46.7237      46.7237 
   28000    110.46037   -8561.9657   -7838.2492   -834.40362     102002.7      46.7237      46.7237      46.7237 
   29000    113.58125      -8582.3    -7838.136   -665.50751     102002.7      46.7237      46.7237      46.7237 
   30000    111.41562   -8569.0173   -7839.0422   -641.50505     102002.7      46.7237      46.7237      46.7237 
   31000    111.66659   -8565.5513   -7833.9319   -566.44249     102002.7      46.7237      46.7237      46.7237 
   32000    113.01417   -8553.0642   -7812.6157   -740.09236     102002.7      46.7237      46.7237      46.7237 
   33000    108.45297   -8567.6996   -7857.1352   -1010.4231     102002.7      46.7237      46.7237      46.7237 
   34000    108.06226   -8561.3044   -7853.2998   -797.61986     102002.7      46.7237      46.7237      46.7237 
   35000    110.43669   -8567.1735   -7843.6121   -919.51532     102002.7      46.7237      46.7237      46.7237 
   36000     109.9439   -8541.6924   -7821.3597   -611.63284     102002.7      46.7237      46.7237      46.7237 
   37000    111.71685   -8558.7573   -7826.8085   -807.93104     102002.7      46.7237      46.7237      46.7237 
   38000    110.27031   -8573.8776   -7851.4063   -762.11893     102002.7      46.7237      46.7237      46.7237 
   39000    108.40383   -8581.4574    -7871.215   -773.92847     102002.7      46.7237      46.7237      46.7237 
   40000    108.56622   -8570.3667   -7859.0602   -1084.2975     102002.7      46.7237      46.7237      46.7237 
   41000    112.17325   -8563.7957   -7828.8568   -931.17115     102002.7      46.7237      46.7237      46.7237 
   42000    110.31017   -8581.5722   -7858.8397   -522.49248     102002.7      46.7237      46.7237      46.7237 
   43000    112.16556   -8584.0331   -7849.1444   -724.76931     102002.7      46.7237      46.7237      46.7237 
   44000    111.77793   -8555.7985   -7823.4495   -779.84457     102002.7      46.7237      46.7237      46.7237 
   45000    107.35099   -8543.5453   -7840.2009   -805.60138     102002.7      46.7237      46.7237      46.7237 
   46000    106.80717   -8573.7174    -7873.936   -504.85686     102002.7      46.7237      46.7237      46.7237 
   47000    113.82121   -8584.7075   -7838.9713   -307.17368     102002.7      46.7237      46.7237      46.7237 
   48000     108.1899   -8575.7651   -7866.9243   -1014.1797     102002.7      46.7237      46.7237      46.7237 
   49000    107.62335   -8571.1337   -7866.0048   -954.69379     102002.7      46.7237      46.7237      46.7237 
   50000    107.70461   -8575.9836   -7870.3223   -688.47764     102002.7      46.7237      46.7237      46.7237 
   51000    108.22452   -8563.3969   -7854.3292   -971.73507     102002.7      46.7237      46.7237      46.7237 
   52000    114.21019   -8566.0068   -7817.7221   -847.16957     102002.7      46.7237      46.7237      46.7237 
   53000    110.92587   -8559.2246   -7832.4582    -421.0906     102002.7      46.7237      46.7237      46.7237 
   54000     108.0877   -8554.0963   -7845.9251   -930.41464     102002.7      46.7237      46.7237      46.7237 
   55000    113.08627   -8570.9324   -7830.0114     -900.171     102002.7      46.7237      46.7237      46.7237 
   56000     112.7314   -8579.8527   -7841.2568   -958.97293     102002.7      46.7237      46.7237      46.7237 
   57000    109.41477   -8594.5617   -7877.6958   -709.94837     102002.7      46.7237      46.7237      46.7237 
   58000    109.36789   -8563.8884   -7847.3296   -677.34758     102002.7      46.7237      46.7237      46.7237 
   59000    108.67152   -8564.2461   -7852.2498   -834.32579     102002.7      46.7237      46.7237      46.7237 
   60000    110.04592    -8575.025   -7854.0239   -769.18964     102002.7      46.7237      46.7237      46.7237 
   61000    108.94339   -8586.0365    -7872.259   -731.59075     102002.7      46.7237      46.7237      46.7237 
   62000    114.84841   -8562.3285   -7809.8623   -996.28367     102002.7      46.7237      46.7237      46.7237 
   63000    108.85438   -8577.4667   -7864.2723    -947.2945     102002.7      46.7237      46.7237      46.7237 
   64000    113.46642   -8583.0799   -7839.6683   -948.86709     102002.7      46.7237      46.7237      46.7237 
   65000    109.74934   -8576.9682   -7857.9102    -1069.642     102002.7      46.7237      46.7237      46.7237 
   66000    110.88974   -8554.0573   -7827.5276    -843.8579     102002.7      46.7237      46.7237      46.7237 
   67000    111.77869   -8614.3413   -7881.9874   -967.29928     102002.7      46.7237      46.7237      46.7237 
   68000     109.2521   -8569.2942   -7853.4941   -765.31439     102002.7      46.7237      46.7237      46.7237 
   69000    109.43476   -8584.5402   -7867.5432   -608.07496     102002.7      46.7237      46.7237      46.7237 
   70000    108.93248   -8572.3744   -7858.6683   -565.26142     102002.7      46.7237      46.7237      46.7237 
   71000    107.40199   -8579.4692   -7875.7907   -316.20603     102002.7      46.7237      46.7237      46.7237 
   72000    109.59393   -8595.4595   -7877.4198   -677.99302     102002.7      46.7237      46.7237      46.7237 
   73000    110.36562   -8574.7019   -7851.6061   -821.40477     102002.7      46.7237      46.7237      46.7237 
   74000    113.70627   -8591.1181    -7846.135   -816.15474     102002.7      46.7237      46.7237      46.7237 
   75000    110.94139   -8557.6049   -7830.7368   -718.09365     102002.7      46.7237      46.7237      46.7237 
   76000    114.61782    -8601.069   -7850.1136   -962.85448     102002.7      46.7237      46.7237      46.7237 
   77000    109.67592   -8568.8908   -7850.3139   -689.53282     102002.7      46.7237      46.7237      46.7237 
   78000    113.55906    -8563.499   -7819.4804   -629.53644     102002.7      46.7237      46.7237      46.7237 
   79000    112.22205   -8579.8567    -7844.598   -637.00106     102002.7      46.7237      46.7237      46.7237 
   80000    110.45558   -8601.8764   -7878.1913   -613.16437     102002.7      46.7237      46.7237      46.7237 
   81000    109.55799   -8551.9552    -7834.151   -619.63466     102002.7      46.7237      46.7237      46.7237 
   82000    108.74086   -8576.6662   -7864.2156   -854.28079     102002.7      46.7237      46.7237      46.7237 
   83000    108.63555   -8594.6064   -7882.8458    -713.0407     102002.7      46.7237      46.7237      46.7237 
   84000     108.7712   -8587.4956   -7874.8462   -851.18124     102002.7      46.7237      46.7237      46.7237 
   85000     107.8484   -8607.7701   -7901.1667   -1059.8877     102002.7      46.7237      46.7237      46.7237 
   86000    111.40649   -8569.8995   -7839.9842   -895.52216     102002.7      46.7237      46.7237      46.7237 
   87000     108.8306   -8573.4747   -7860.4362   -758.90469     102002.7      46.7237      46.7237      46.7237 
   88000    110.66611    -8543.964   -7818.8995   -743.07787     102002.7      46.7237      46.7237      46.7237 
   89000    110.92384   -8578.4503   -7851.6972   -527.17434     102002.7      46.7237      46.7237      46.7237 
   90000    110.13684   -8560.8822   -7839.2854   -1172.8946     102002.7      46.7237      46.7237      46.7237 
   91000    108.32276   -8562.8662    -7853.155   -937.48402     102002.7      46.7237      46.7237      46.7237 
   92000    112.21191   -8556.6299   -7821.4375   -511.29484     102002.7      46.7237      46.7237      46.7237 
   93000    110.70855   -8572.8958   -7847.5533    -656.4389     102002.7      46.7237      46.7237      46.7237 
   94000    109.35008   -8585.5112   -7869.0691   -391.25521     102002.7      46.7237      46.7237      46.7237 
   95000    109.97817   -8550.0088   -7829.4515   -850.41669     102002.7      46.7237      46.7237      46.7237 
   96000     111.1732   -8591.1269   -7862.7401   -690.56569     102002.7      46.7237      46.7237      46.7237 
   97000    111.64268   -8583.8961   -7852.4333   -570.57588     102002.7      46.7237      46.7237      46.7237 
   98000     105.8535   -8574.2664   -7880.7333   -503.26857     102002.7      46.7237      46.7237      46.7237 
   99000      108.566   -8563.4821   -7852.1771   -411.22948     102002.7      46.7237      46.7237      46.7237 
  100000    106.38031   -8555.5437    -7858.559   -702.03237     102002.7      46.7237      46.7237      46.7237 
  101000    110.31627     -8567.54   -7844.7676   -900.07173     102002.7      46.7237      46.7237      46.7237 
  102000    106.37766   -8591.6192   -7894.6519   -585.48615     102002.7      46.7237      46.7237      46.7237 
  103000    110.69308   -8554.8269   -7829.5857    -564.0743     102002.7      46.7237      46.7237      46.7237 
  104000    111.19267   -8575.9385    -7847.424   -723.41585     102002.7      46.7237      46.7237      46.7237 
  105000    112.56289   -8571.3862   -7833.8943   -727.58888     102002.7      46.7237      46.7237      46.7237 
  106000          114    -8580.741   -7833.8335   -617.94146     102002.7      46.7237      46.7237      46.7237 
  107000    110.76597   -8582.5872   -7856.8685   -731.96354     102002.7      46.7237      46.7237      46.7237 
  108000     113.0767   -8588.3668   -7847.5085   -749.30974     102002.7      46.7237      46.7237      46.7237 
  109000    108.38916   -8573.4262   -7863.2799   -836.18721     102002.7      46.7237      46.7237      46.7237 
  110000    108.25466   -8566.2795   -7857.0144   -750.54437     102002.7      46.7237      46.7237      46.7237 
  111000    108.94097   -8578.9991   -7865.2374   -730.26923     102002.7      46.7237      46.7237      46.7237 
  112000    106.96751   -8553.7778   -7852.9459   -674.69803     102002.7      46.7237      46.7237      46.7237 
  113000    110.86016   -8564.5066   -7838.1708   -811.24029     102002.7      46.7237      46.7237      46.7237 
  114000    112.23003   -8554.9856   -7819.6746   -751.71864     102002.7      46.7237      46.7237      46.7237 
  115000    110.42862   -8574.9844    -7851.476    -926.9691     102002.7      46.7237      46.7237      46.7237 
  116000    110.12045    -8576.003   -7854.5136   -1169.4069     102002.7      46.7237      46.7237      46.7237 
  117000    106.02787   -8568.2089   -7873.5333   -709.63105     102002.7      46.7237      46.7237      46.7237 
  118000    110.70075   -8572.5049   -7847.2135   -641.46455     102002.7      46.7237      46.7237      46.7237 
  119000    112.36554   -8579.1631   -7842.9642   -709.12717     102002.7      46.7237      46.7237      46.7237 
  120000    109.92646   -8594.3849   -7874.1664   -776.98037     102002.7      46.7237      46.7237      46.7237 
  121000    108.06696   -8577.6719   -7869.6366   -639.44574     102002.7      46.7237      46.7237      46.7237 
  122000    109.32596   -8575.4741   -7859.1901   -880.78597     102002.7      46.7237      46.7237      46.7237 
  123000    111.85819   -8580.0337   -7847.1589   -840.75561     102002.7      46.7237      46.7237      46.7237 
  124000    113.01698   -8564.3399   -7823.8729   -924.05676     102002.7      46.7237      46.7237      46.7237 
  125000    109.99607   -8569.9534   -7849.2789   -664.62395     102002.7      46.7237      46.7237      46.7237 
  126000    110.02154   -8594.0077   -7873.1663   -501.08492     102002.7      46.7237      46.7237      46.7237 
  127000    110.18489   -8593.2468   -7871.3352   -975.49163     102002.7      46.7237      46.7237      46.7237 
  128000    105.93526   -8568.1919   -7874.1231   -750.67412     102002.7      46.7237      46.7237      46.7237 
  129000    108.00736   -8569.3911   -7861.7462   -662.47538     102002.7      46.7237      46.7237      46.7237 
  130000    110.97336   -8574.3817   -7847.3041   -801.80252     102002.7      46.7237      46.7237      46.7237 
  131000    109.05724    -8557.144   -7842.6206   -795.69398     102002.7      46.7237      46.7237      46.7237 
  132000    110.56945   -8565.1115   -7840.6803   -634.87677     102002.7      46.7237      46.7237      46.7237 
  133000    107.17026   -8538.9967   -7836.8364   -647.95996     102002.7      46.7237      46.7237      46.7237 
  134000     112.1868   -8561.8232   -7826.7954   -645.99385     102002.7      46.7237      46.7237      46.7237 
  135000    109.39442    -8565.144   -7848.4114   -537.43915     102002.7      46.7237      46.7237      46.7237 
  136000     109.7554   -8575.5736   -7856.4759   -308.22063     102002.7      46.7237      46.7237      46.7237 
  137000    110.77947   -8575.1155   -7849.3082   -262.00904     102002.7      46.7237      46.7237      46.7237 
  138000    109.46016   -8581.1657   -7864.0024   -656.71735     102002.7      46.7237      46.7237      46.7237 
  139000    109.78781   -8573.0661   -7853.7561   -595.75614     102002.7      46.7237      46.7237      46.7237 
  140000    112.91106   -8579.8178   -7840.0448   -950.53675     102002.7      46.7237      46.7237      46.7237 
  141000    109.21554   -8596.4741   -7880.9135   -914.62686     102002.7      46.7237      46.7237      46.7237 
  142000    108.70128   -8574.0091   -7861.8179   -565.24168     102002.7      46.7237      46.7237      46.7237 
  143000    112.38292   -8570.7563   -7834.4436   -491.32167     102002.7      46.7237      46.7237      46.7237 
  144000    109.21345    -8568.094   -7852.5471   -498.92984     102002.7      46.7237      46.7237      46.7237 
  145000    114.28631   -8555.0443    -7806.261   -573.00103     102002.7      46.7237      46.7237      46.7237 
  146000    111.24433   -8569.3043   -7840.4514    -617.3391     102002.7      46.7237      46.7237      46.7237 
  147000    106.52477   -8572.1477   -7874.2165   -663.29079     102002.7      46.7237      46.7237      46.7237 
  148000    109.31521   -8564.9134   -7848.6998    -767.8137     102002.7      46.7237      46.7237      46.7237 
  149000    112.49699   -8569.8402   -7832.7801   -852.88064     102002.7      46.7237      46.7237      46.7237 
  150000    110.96899   -8558.9194   -7831.8705    -721.2185     102002.7      46.7237      46.7237      46.7237 
  151000    107.43081   -8586.4219   -7882.5545   -695.26563     102002.7      46.7237      46.7237      46.7237 
  152000    111.26258   -8602.6357   -7873.6632   -830.21072     102002.7      46.7237      46.7237      46.7237 
  153000    109.96776    -8570.079   -7849.5899   -682.59945     102002.7      46.7237      46.7237      46.7237 
  154000    107.24875   -8577.8192   -7875.1446   -588.20287     102002.7      46.7237      46.7237      46.7237 
  155000    109.70412   -8577.6942   -7858.9325   -817.24107     102002.7      46.7237      46.7237      46.7237 
  156000    108.23353   -8553.0537    -7843.927   -995.70754     102002.7      46.7237      46.7237      46.7237 
  157000    112.20449   -8542.2825   -7807.1389   -718.50416     102002.7      46.7237      46.7237      46.7237 
  158000    108.30532   -8570.1333   -7860.5363   -668.43138     102002.7      46.7237      46.7237      46.7237 
  159000    110.81357   -8582.1852   -7856.1546   -673.47645     102002.7      46.7237      46.7237      46.7237 
  160000    110.75096    -8562.716   -7837.0956   -776.63012     102002.7      46.7237      46.7237      46.7237 
  161000    108.47448   -8577.0766   -7866.3713   -716.42741     102002.7      46.7237      46.7237      46.7237 
  162000    108.88603   -8571.7304   -7858.3287   -928.67627     102002.7      46.7237      46.7237      46.7237 
  163000    109.68419   -8588.8877   -7870.2566    -1029.786     102002.7      46.7237      46.7237      46.7237 
  164000    109.60282   -8569.2576   -7851.1596   -921.02207     102002.7      46.7237      46.7237      46.7237 
  165000    111.91478   -8549.0955   -7815.8499   -564.63365     102002.7      46.7237      46.7237      46.7237 
  166000    105.15197   -8582.2183   -7893.2815   -604.04296     102002.7      46.7237      46.7237      46.7237 
  167000    111.42591   -8562.7935    -7832.751   -725.43146     102002.7      46.7237      46.7237      46.7237 
  168000    106.83044   -8597.5712   -7897.6373   -574.85425     102002.7      46.7237      46.7237      46.7237 
  169000     110.3314   -8566.9302   -7844.0587   -778.19599     102002.7      46.7237      46.7237      46.7237 
  170000    109.99793   -8578.3662   -7857.6796   -590.72432     102002.7      46.7237      46.7237      46.7237 
  171000    111.75798    -8561.053   -7828.8348    -799.0653     102002.7      46.7237      46.7237      46.7237 
  172000    110.93623   -8569.3199   -7842.4856   -606.09786     102002.7      46.7237      46.7237      46.7237 
  173000    108.10098     -8580.28   -7872.0218   -965.80579     102002.7      46.7237      46.7237      46.7237 
  174000    110.79504   -8579.0407   -7853.1316   -983.00792     102002.7      46.7237      46.7237      46.7237 
  175000    113.63998   -8573.2017    -7828.653   -703.60367     102002.7      46.7237      46.7237      46.7237 
  176000    111.00884   -8600.5505   -7873.2406   -710.59345     102002.7      46.7237      46.7237      46.7237 
  177000      110.071   -8585.6319   -7864.4665   -1082.9084     102002.7      46.7237      46.7237      46.7237 
  178000    114.22732   -8590.0193   -7841.6225   -626.20986     102002.7      46.7237      46.7237      46.7237 
  179000     108.5662    -8595.438   -7884.1317   -980.06365     102002.7      46.7237      46.7237      46.7237 
  180000    113.84554   -8572.4953   -7826.5997   -662.99358     102002.7      46.7237      46.7237      46.7237 
  181000    113.61934   -8572.1519   -7827.7384   -696.61949     102002.7      46.7237      46.7237      46.7237 
  182000    112.33355   -8607.6742   -7871.6849   -1041.1415     102002.7      46.7237      46.7237      46.7237 
  183000    109.90934   -8566.8103   -7846.7041   -845.18223     102002.7      46.7237      46.7237      46.7237 
  184000    113.27612   -8565.7782   -7823.6134   -1151.4996     102002.7      46.7237      46.7237      46.7237 
  185000    108.43976   -8536.0074   -7825.5295   -990.07883     102002.7      46.7237      46.7237      46.7237 
  186000    109.34635   -8585.9558   -7869.5382    -504.3698     102002.7      46.7237      46.7237      46.7237 
  187000     108.3425   -8564.6565   -7854.8159   -783.86717     102002.7      46.7237      46.7237      46.7237 
  188000     111.3412   -8555.1897   -7825.7021   -771.47484     102002.7      46.7237      46.7237      46.7237 
  189000    108.08016   -8546.5837   -7838.4619   -451.32009     102002.7      46.7237      46.7237      46.7237 
  190000    111.07455   -8559.8094   -7832.0689   -676.08118     102002.7      46.7237      46.7237      46.7237 
  191000    111.40761   -8565.7797   -7835.8571   -708.28597     102002.7      46.7237      46.7237      46.7237 
  192000    109.02536   -8592.1871   -7877.8725   -619.37961     102002.7      46.7237      46.7237      46.7237 
  193000    110.68326   -8568.9968   -7843.8199   -751.31199     102002.7      46.7237      46.7237      46.7237 
  194000    111.68463   -8535.4888   -7803.7512   -406.10444     102002.7      46.7237      46.7237      46.7237 
  195000    107.29254   -8565.3661   -7862.4046   -694.68743     102002.7      46.7237      46.7237      46.7237 
  196000    112.08937    -8575.029   -7840.6396   -723.29314     102002.7      46.7237      46.7237      46.7237 
  197000    109.57879   -8552.8535   -7834.9129    -614.1256     102002.7      46.7237      46.7237      46.7237 
  198000    109.86486   -8569.9624   -7850.1475   -856.25064     102002.7      46.7237      46.7237      46.7237 
  199000    107.99602   -8579.3045    -7871.734   -641.53471     102002.7      46.7237      46.7237      46.7237 
  200000    111.41473    -8586.848   -7856.8787   -763.32004     102002.7      46.7237      46.7237      46.7237 
  201000    108.67346   -8580.5476   -7868.5386   -737.16223     102002.7      46.7237      46.7237      46.7237 
  202000    112.90502   -8568.4106   -7828.6771   -853.32586     102002.7      46.7237      46.7237      46.7237 
  203000    111.37271    -8577.195    -7847.501   -777.47696     102002.7      46.7237      46.7237      46.7237 
  204000    111.44348   -8591.6428   -7861.4851   -541.62522     102002.7      46.7237      46.7237      46.7237 
  205000    111.74877   -8587.3507   -7855.1928   -886.12345     102002.7      46.7237      46.7237      46.7237 
  206000     106.5071   -8585.8187   -7888.0033   -881.00373     102002.7      46.7237      46.7237      46.7237 
  207000     108.9214   -8579.3699   -7865.7365   -680.28051     102002.7      46.7237      46.7237      46.7237 
  208000    109.44328   -8578.5497    -7861.497   -937.76815     102002.7      46.7237      46.7237      46.7237 
  209000    110.80251   -8583.8639   -7857.9058   -713.79052     102002.7      46.7237      46.7237      46.7237 
  210000    108.24972   -8579.4552   -7870.2225   -827.88062     102002.7      46.7237      46.7237      46.7237 
  211000    108.64685   -8579.9265   -7868.0918   -768.96501     102002.7      46.7237      46.7237      46.7237 
  212000    108.75674   -8573.3774   -7860.8228   -844.57633     102002.7      46.7237      46.7237      46.7237 
  213000    107.42689   -8556.4954   -7852.6537   -641.74761     102002.7      46.7237      46.7237      46.7237 
  214000    111.09849   -8574.4014   -7846.5041   -854.09615     102002.7      46.7237      46.7237      46.7237 
  215000    106.74421   -8582.3908   -7883.0219   -964.43476     102002.7      46.7237      46.7237      46.7237 
  216000    107.46904    -8558.266   -7854.1482   -879.27717     102002.7      46.7237      46.7237      46.7237 
  217000    111.67914   -8550.3841   -7818.6825    -862.0733     102002.7      46.7237      46.7237      46.7237 
  218000    110.08105   -8563.4955   -7842.2642   -576.91545     102002.7      46.7237      46.7237      46.7237 
  219000    112.26324   -8551.0766    -7815.548   -722.78274     102002.7      46.7237      46.7237      46.7237 
  220000    106.03575   -8564.1079   -7869.3807   -628.71452     102002.7      46.7237      46.7237      46.7237 
  221000     109.3207   -8589.7329   -7873.4833   -873.37164     102002.7      46.7237      46.7237      46.7237 
  222000    111.85452   -8568.8934   -7836.0426   -666.22212     102002.7      46.7237      46.7237      46.7237 
  223000    110.36017   -8573.5951   -7850.5351    -484.9134     102002.7      46.7237      46.7237      46.7237 
  224000    111.35932   -8585.7456   -7856.1393   -658.42867     102002.7      46.7237      46.7237      46.7237 
  225000    111.24715   -8585.5812   -7856.7099   -687.21424     102002.7      46.7237      46.7237      46.7237 
  226000    108.44147   -8584.7618   -7874.2727   -789.32176     102002.7      46.7237      46.7237      46.7237 
  227000    112.09694   -8576.6046   -7842.1656   -860.98248     102002.7      46.7237      46.7237      46.7237 
  228000    110.11459   -8559.9895   -7838.5385   -706.07398     102002.7      46.7237      46.7237      46.7237 
  229000    111.54241   -8581.0285   -7850.2227   -620.84214     102002.7      46.7237      46.7237      46.7237 
  230000    107.20701   -8583.1143   -7880.7132   -1114.9128     102002.7      46.7237      46.7237      46.7237 
  231000    109.90131   -8559.3528   -7839.2992   -404.08282     102002.7      46.7237      46.7237      46.7237 
  232000    108.84307   -8554.8767   -7841.7564   -673.57832     102002.7      46.7237      46.7237      46.7237 
  233000    110.10232   -8586.2396   -7864.8689   -843.66877     102002.7      46.7237      46.7237      46.7237 
  234000    111.16463   -8584.8808   -7856.5501     -720.765     102002.7      46.7237      46.7237      46.7237 
  235000    109.86235   -8584.9588   -7865.1604   -720.33104     102002.7      46.7237      46.7237      46.7237 
  236000    108.97954   -8564.3018   -7850.2874   -808.17993     102002.7      46.7237      46.7237      46.7237 
  237000    108.32502   -8539.0842   -7829.3581   -876.47242     102002.7      46.7237      46.7237      46.7237 
  238000    109.33742   -8574.8042   -7858.4451   -936.57683     102002.7      46.7237      46.7237      46.7237 
  239000    108.53592   -8563.0352   -7851.9273   -798.95629     102002.7      46.7237      46.7237      46.7237 
  240000    113.23255   -8563.4455   -7821.5662   -871.45427     102002.7      46.7237      46.7237      46.7237 
  241000    111.44651   -8582.7136    -7852.536   -1003.2277     102002.7      46.7237      46.7237      46.7237 
  242000    110.56876   -8564.5387    -7840.112   -552.73627     102002.7      46.7237      46.7237      46.7237 
  243000    108.16765    -8575.527   -7866.8319    -826.8341     102002.7      46.7237      46.7237      46.7237 
  244000    109.81168   -8581.9347   -7862.4683   -736.40753     102002.7      46.7237      46.7237      46.7237 
  245000    113.59048   -8571.2952   -7827.0708   -618.37639     102002.7      46.7237      46.7237      46.7237 
  246000    112.04904   -8599.0349   -7864.9097   -952.95902     102002.7      46.7237      46.7237      46.7237 
  247000    111.13318   -8565.5346     -7837.41   -526.02615     102002.7      46.7237      46.7237      46.7237 
  248000    109.90715   -8582.3003   -7862.2083   -1314.4297     102002.7      46.7237      46.7237      46.7237 
  249000    113.61037   -8566.1583   -7821.8035   -763.21228     102002.7      46.7237      46.7237      46.7237 
  250000    112.02938   -8584.1454    -7850.149   -612.69131     102002.7      46.7237      46.7237      46.7237 
  251000    110.18228   -8560.3428   -7838.4483     -990.447     102002.7      46.7237      46.7237      46.7237 
  252000    110.20699   -8589.9039   -7867.8474   -674.23382     102002.7      46.7237      46.7237      46.7237 
  253000    110.27415   -8589.0693   -7866.5728   -849.15466     102002.7      46.7237      46.7237      46.7237 
  254000     108.6113   -8577.4289   -7865.8272   -688.32636     102002.7      46.7237      46.7237      46.7237 
  255000    108.99159   -8560.2291   -7846.1357   -942.87405     102002.7      46.7237      46.7237      46.7237 
  256000    109.81689   -8550.1183   -7830.6177   -602.30829     102002.7      46.7237      46.7237      46.7237 
  257000    111.08784   -8567.4345   -7839.6069    -560.1889     102002.7      46.7237      46.7237      46.7237 
  258000    111.69836   -8586.1591   -7854.3315   -669.44076     102002.7      46.7237      46.7237      46.7237 
  259000    110.82758   -8549.9755   -7823.8531   -765.84457     102002.7      46.7237      46.7237      46.7237 
  260000    111.60591   -8544.0541   -7812.8322   -627.74048     102002.7      46.7237      46.7237      46.7237 
  261000    111.97975   -8555.5348   -7821.8635   -356.35365     102002.7      46.7237      46.7237      46.7237 
  262000    109.41337   -8574.8037    -7857.947   -864.58498     102002.7      46.7237      46.7237      46.7237 
  263000    111.21598   -8555.1375   -7826.4704   -736.21072     102002.7      46.7237      46.7237      46.7237 
  264000    107.35368   -8566.6887   -7863.3267   -609.49231     102002.7      46.7237      46.7237      46.7237 
  265000    112.04911   -8563.0295   -7828.9038   -671.36061     102002.7      46.7237      46.7237      46.7237 
  266000    111.86341   -8572.5039   -7839.5949   -574.79762     102002.7      46.7237      46.7237      46.7237 
  267000    113.40627   -8563.3164   -7820.2988   -804.01093     102002.7      46.7237      46.7237      46.7237 
  268000    107.41118   -8570.1317   -7866.3929   -1053.4065     102002.7      46.7237      46.7237      46.7237 
  269000     109.8227   -8557.2727    -7837.734   -856.16337     102002.7      46.7237      46.7237      46.7237 
  270000    110.74212   -8584.4614   -7858.8989   -1236.0408     102002.7      46.7237      46.7237      46.7237 
  271000    114.28864   -8578.8403   -7830.0417   -928.64372     102002.7      46.7237      46.7237      46.7237 
  272000     107.0859   -8566.4052   -7864.7976   -738.34445     102002.7      46.7237      46.7237      46.7237 
  273000    110.65327   -8562.5641   -7837.5837   -991.91887     102002.7      46.7237      46.7237      46.7237 
  274000    107.71195   -8541.9486   -7836.2392   -725.86416     102002.7      46.7237      46.7237      46.7237 
  275000    112.41678   -8569.3436    -7832.809   -1050.5361     102002.7      46.7237      46.7237      46.7237 
  276000      108.753   -8546.2556   -7833.7255   -898.49091     102002.7      46.7237      46.7237      46.7237 
  277000    111.22293   -8563.2855   -7834.5728   -844.71631     102002.7      46.7237      46.7237      46.7237 
  278000    109.20564   -8559.0919   -7843.5961   -1092.0244     102002.7      46.7237      46.7237      46.7237 
  279000    109.61833   -8559.5957   -7841.3961   -859.74192     102002.7      46.7237      46.7237      46.7237 
  280000    109.20654   -8570.0947   -7854.5931   -755.03242     102002.7      46.7237      46.7237      46.7237 
  281000    111.39275   -8580.7163    -7850.891   -898.63335     102002.7      46.7237      46.7237      46.7237 
  282000     106.6512   -8573.4739   -7874.7144   -794.89578     102002.7      46.7237      46.7237      46.7237 
  283000    111.81617   -8565.3772   -7832.7777   -650.36129     102002.7      46.7237      46.7237      46.7237 
  284000    107.44538   -8581.5766   -7877.6138    -768.1589     102002.7      46.7237      46.7237      46.7237 
  285000    108.47997   -8571.7746   -7861.0333   -787.50952     102002.7      46.7237      46.7237      46.7237 
  286000     113.0709     -8555.54   -7814.7198   -1021.8811     102002.7      46.7237      46.7237      46.7237 
  287000    109.75181   -8566.5153   -7847.4412   -854.39076     102002.7      46.7237      46.7237      46.7237 
  288000     108.9546   -8585.6429   -7871.7919   -745.03786     102002.7      46.7237      46.7237      46.7237 
  289000    109.33043    -8541.709   -7825.3956   -814.84032     102002.7      46.7237      46.7237      46.7237 
  290000    111.43193   -8560.1797   -7830.0976   -462.93405     102002.7      46.7237      46.7237      46.7237 
  291000    111.29309    -8578.222   -7849.0496   -938.79228     102002.7      46.7237      46.7237      46.7237 
  292000    113.72389   -8580.3267   -7835.2281   -788.20749     102002.7      46.7237      46.7237      46.7237 
  293000    112.65874    -8573.859   -7835.7392   -597.44296     102002.7      46.7237      46.7237      46.7237 
  294000    110.27222   -8575.1454   -7852.6616    -709.8785     102002.7      46.7237      46.7237      46.7237 
  295000    108.53788   -8562.3177    -7851.197   -779.48268     102002.7      46.7237      46.7237      46.7237 
  296000     109.4325   -8535.8837   -7818.9016   -696.06766     102002.7      46.7237      46.7237      46.7237 
  297000    106.29673   -8553.0544   -7856.6173   -888.29282     102002.7      46.7237      46.7237      46.7237 
  298000    113.04822   -8586.6514   -7845.9797   -497.89434     102002.7      46.7237      46.7237      46.7237 
  299000    110.21311   -8572.0369   -7849.9403   -819.13226     102002.7      46.7237      46.7237      46.7237 
  300000    111.49727   -8551.4587   -7820.9485    -679.9134     102002.7      46.7237      46.7237      46.7237 
  301000     110.3913   -8544.7707   -7821.5067   -506.24024     102002.7      46.7237      46.7237      46.7237 
  302000    109.98403   -8554.5205   -7833.9249    -952.0227     102002.7      46.7237      46.7237      46.7237 
  303000    108.12572   -8558.6969   -7850.2766   -676.70884     102002.7      46.7237      46.7237      46.7237 
  304000    112.07196    -8536.685   -7802.4096   -884.77378     102002.7      46.7237      46.7237      46.7237 
  305000    108.60746   -8567.9341   -7856.3576   -561.40858     102002.7      46.7237      46.7237      46.7237 
  306000     111.9989   -8545.1945   -7811.3978   -1100.2634     102002.7      46.7237      46.7237      46.7237 
  307000    108.41392   -8556.2359   -7845.9273   -1002.1182     102002.7      46.7237      46.7237      46.7237 
  308000    107.84254   -8572.6044   -7866.0394   -881.35014     102002.7      46.7237      46.7237      46.7237 
  309000    111.10567   -8544.2355   -7816.2911   -853.18062     102002.7      46.7237      46.7237      46.7237 
  310000     107.0178   -8550.1389   -7848.9775   -994.71035     102002.7      46.7237      46.7237      46.7237 
  311000    112.32779   -8543.8817   -7807.9302   -987.07481     102002.7      46.7237      46.7237      46.7237 
  312000    113.45654   -8564.6126   -7821.2657   -475.33784     102002.7      46.7237      46.7237      46.7237 
  313000    108.87028   -8550.9648   -7837.6663   -617.64484     102002.7      46.7237      46.7237      46.7237 
  314000    113.19804   -8546.0992   -7804.4459   -784.98873     102002.7      46.7237      46.7237      46.7237 
  315000    110.03108   -8522.7837   -7801.8798   -1022.6496     102002.7      46.7237      46.7237      46.7237 
  316000    110.30952   -8565.7832    -7843.055   -871.79484     102002.7      46.7237      46.7237      46.7237 
  317000    108.34502   -8567.0888   -7857.2317   -442.22885     102002.7      46.7237      46.7237      46.7237 
  318000    109.85354   -8566.9533   -7847.2126   -781.06898     102002.7      46.7237      46.7237      46.7237 
  319000    111.72621   -8573.7635   -7841.7535   -777.96971     102002.7      46.7237      46.7237      46.7237 
  320000    106.86858   -8556.0825   -7855.8988   -636.43148     102002.7      46.7237      46.7237      46.7237 
  321000    108.67011   -8562.9238   -7850.9368   -868.27145     102002.7      46.7237      46.7237      46.7237 
  322000    111.60675   -8573.9707   -7842.7433   -849.47106     102002.7      46.7237      46.7237      46.7237 
  323000    110.90363   -8570.5017    -7843.881     -1008.85     102002.7      46.7237      46.7237      46.7237 
  324000    108.45473   -8558.0709    -7847.495    -802.3905     102002.7      46.7237      46.7237      46.7237 
  325000    110.01328   -8568.0898   -7847.3025   -918.92227     102002.7      46.7237      46.7237      46.7237 
  326000    108.56341   -8563.8621   -7852.5741   -837.60855     102002.7      46.7237      46.7237      46.7237 
  327000    110.76738   -8596.3137   -7870.5857   -788.57864     102002.7      46.7237      46.7237      46.7237 
  328000    110.99768   -8576.8741   -7849.6372   -855.70408     102002.7      46.7237      46.7237      46.7237 
  329000     109.1456   -8597.0344    -7881.932   -773.00432     102002.7      46.7237      46.7237      46.7237 
  330000    108.45972   -8574.0225   -7863.4138   -1047.4433     102002.7      46.7237      46.7237      46.7237 
  331000     106.0956   -8573.6273    -7878.508   -832.99918     102002.7      46.7237      46.7237      46.7237 
  332000    111.97632   -8597.5547    -7863.906   -880.70175     102002.7      46.7237      46.7237      46.7237 
  333000    109.10415   -8572.3524   -7857.5216   -717.45708     102002.7      46.7237      46.7237      46.7237 
  334000    111.36146   -8588.4956   -7858.8753   -748.18598     102002.7      46.7237      46.7237      46.7237 
  335000    113.17428    -8583.313   -7841.8154   -591.28003     102002.7      46.7237      46.7237      46.7237 
  336000    109.34807   -8563.7206   -7847.2917   -745.25226     102002.7      46.7237      46.7237      46.7237 
  337000    109.66386   -8566.9622   -7848.4644   -795.65807     102002.7      46.7237      46.7237      46.7237 
  338000    104.01518   -8546.6874   -7865.1987   -569.85491     102002.7      46.7237      46.7237      46.7237 
  339000     111.8038   -8551.1492   -7818.6308   -1082.8701     102002.7      46.7237      46.7237      46.7237 
  340000     108.0662   -8582.6897   -7874.6593   -848.09184     102002.7      46.7237      46.7237      46.7237 
  341000    108.22989   -8563.7372   -7854.6344   -885.82118     102002.7      46.7237      46.7237      46.7237 
  342000    108.07989   -8557.7449   -7849.6249   -891.00715     102002.7      46.7237      46.7237      46.7237 
  343000    107.09682   -8559.9066   -7858.2275   -487.90057     102002.7      46.7237      46.7237      46.7237 
  344000    111.98853   -8561.8921   -7828.1634   -976.41488     102002.7      46.7237      46.7237      46.7237 
  345000    109.22597   -8556.3712   -7840.7422   -818.41934     102002.7      46.7237      46.7237      46.7237 
  346000    109.84523   -8573.8469   -7854.1606   -720.18811     102002.7      46.7237      46.7237      46.7237 
  347000    107.34032   -8577.2081   -7873.9336   -1028.9143     102002.7      46.7237      46.7237      46.7237 
  348000    110.91511   -8556.7002   -7830.0043   -663.18694     102002.7      46.7237      46.7237      46.7237 
  349000    110.11272   -8575.9395   -7854.5007   -820.34451     102002.7      46.7237      46.7237      46.7237 
  350000    109.28361   -8586.6607   -7870.6541   -446.65141     102002.7      46.7237      46.7237      46.7237 
  351000    108.65839   -8608.9793   -7897.0691   -748.40306     102002.7      46.7237      46.7237      46.7237 
  352000    109.94453   -8554.9556   -7834.6187   -890.37661     102002.7      46.7237      46.7237      46.7237 
  353000    108.34467   -8577.0588    -7867.204   -734.71386     102002.7      46.7237      46.7237      46.7237 
  354000    112.01508   -8588.7138   -7854.8111   -635.06461     102002.7      46.7237      46.7237      46.7237 
  355000    111.72735   -8565.7683   -7833.7508   -685.10308     102002.7      46.7237      46.7237      46.7237 
  356000    109.44151   -8557.9068   -7840.8657   -802.96707     102002.7      46.7237      46.7237      46.7237 
  357000    110.21247   -8552.1598   -7830.0675   -827.06437     102002.7      46.7237      46.7237      46.7237 
  358000    107.56833   -8590.2331   -7885.4647   -876.42207     102002.7      46.7237      46.7237      46.7237 
  359000    107.18835   -8565.4049   -7863.1261   -1054.7298     102002.7      46.7237      46.7237      46.7237 
  360000    112.14788   -8571.2117   -7836.4389    -653.8239     102002.7      46.7237      46.7237      46.7237 
  361000    109.62099    -8566.999   -7848.7819   -796.89223     102002.7      46.7237      46.7237      46.7237 
  362000    108.02171   -8570.1445   -7862.4057   -898.16421     102002.7      46.7237      46.7237      46.7237 
  363000    111.11624   -8581.2207    -7853.207   -1012.3814     102002.7      46.7237      46.7237      46.7237 
  364000    107.53048   -8574.7976   -7870.2772   -731.69189     102002.7      46.7237      46.7237      46.7237 
  365000    111.06313   -8562.6149   -7834.9492   -784.09594     102002.7      46.7237      46.7237      46.7237 
  366000    111.93753   -8573.0467   -7839.6521   -587.20252     102002.7      46.7237      46.7237      46.7237 
  367000    109.68668   -8574.3934    -7855.746   -770.45057     102002.7      46.7237      46.7237      46.7237 
  368000    108.67043   -8565.3836   -7853.3945   -717.85659     102002.7      46.7237      46.7237      46.7237 
  369000    112.01325   -8561.7107     -7827.82   -873.45626     102002.7      46.7237      46.7237      46.7237 
  370000    108.01587   -8558.4328   -7850.7322   -961.80427     102002.7      46.7237      46.7237      46.7237 
  371000    107.56352   -8580.6738    -7875.937   -1013.7107     102002.7      46.7237      46.7237      46.7237 
  372000    110.02803   -8577.3346   -7856.4507   -1076.3014     102002.7      46.7237      46.7237      46.7237 
  373000    107.68877   -8557.9499   -7852.3924   -605.70131     102002.7      46.7237      46.7237      46.7237 
  374000    110.87268   -8555.4244   -7829.0065   -733.92163     102002.7      46.7237      46.7237      46.7237 
  375000    109.05389   -8575.0869   -7860.5854   -609.20034     102002.7      46.7237      46.7237      46.7237 
  376000    108.01175   -8581.9057   -7874.2322   -566.78877     102002.7      46.7237      46.7237      46.7237 
  377000    107.46871     -8579.02   -7874.9043    -593.5519     102002.7      46.7237      46.7237      46.7237 
  378000    107.90557   -8554.6298   -7847.6519   -523.51346     102002.7      46.7237      46.7237      46.7237 
  379000    109.99736   -8584.3262   -7863.6432   -754.29265     102002.7      46.7237      46.7237      46.7237 
  380000      110.386    -8558.913   -7835.6838    -584.1706     102002.7      46.7237      46.7237      46.7237 
  381000    106.84912   -8566.0955   -7866.0393   -678.17126     102002.7      46.7237      46.7237      46.7237 
  382000    109.82062   -8562.2676   -7842.7426   -717.61758     102002.7      46.7237      46.7237      46.7237 
  383000    108.22658   -8599.9719   -7890.8907   -756.06103     102002.7      46.7237      46.7237      46.7237 
  384000     111.3279   -8555.5743    -7826.174   -923.88685     102002.7      46.7237      46.7237      46.7237 
  385000    110.88187   -8561.1481   -7834.6699   -658.23077     102002.7      46.7237      46.7237      46.7237 
  386000    110.93837   -8594.5864   -7867.7381    -789.3977     102002.7      46.7237      46.7237      46.7237 
  387000    113.50976   -8563.9603   -7820.2647   -687.93335     102002.7      46.7237      46.7237      46.7237 
  388000    109.03502   -8572.9249    -7858.547   -637.95538     102002.7      46.7237      46.7237      46.7237 
  389000    110.29844   -8568.1732   -7845.5177   -477.96617     102002.7      46.7237      46.7237      46.7237 
  390000    113.48463    -8553.558   -7810.0271   -498.81433     102002.7      46.7237      46.7237      46.7237 
  391000    111.84669   -8590.4008   -7857.6013   -713.23311     102002.7      46.7237      46.7237      46.7237 
  392000    106.00016   -8549.5477   -7855.0537   -735.69713     102002.7      46.7237      46.7237      46.7237 
  393000     112.2388   -8572.4522   -7837.0837   -600.17873     102002.7      46.7237      46.7237      46.7237 
  394000    105.49403   -8587.5783   -7896.4003   -631.86725     102002.7      46.7237      46.7237      46.7237 
  395000     107.5434   -8555.6295   -7851.0245   -629.52372     102002.7      46.7237      46.7237      46.7237 
  396000    111.81249   -8577.3322   -7844.7568   -981.86504     102002.7      46.7237      46.7237      46.7237 
  397000    110.13569   -8566.5686   -7844.9793   -969.69945     102002.7      46.7237      46.7237      46.7237 
  398000    110.23016   -8551.5994   -7829.3911    -725.3433     102002.7      46.7237      46.7237      46.7237 
  399000     111.0521   -8578.2855   -7850.6921   -594.16862     102002.7      46.7237      46.7237      46.7237 
  400000    110.01229   -8554.2287   -7833.4478   -496.97102     102002.7      46.7237      46.7237      46.7237 
  401000    111.56659   -8565.3278   -7834.3635    -848.5471     102002.7      46.7237      46.7237      46.7237 
  402000    109.58482   -8520.4048   -7802.4247   -299.75959     102002.7      46.7237      46.7237      46.7237 
  403000    109.85186   -8573.8733   -7854.1436    -842.2851     102002.7      46.7237      46.7237      46.7237 
  404000    109.99634   -8580.3817   -7859.7054    -692.6984     102002.7      46.7237      46.7237      46.7237 
  405000     108.7277   -8588.0733   -7875.7089   -906.32883     102002.7      46.7237      46.7237      46.7237 
  406000    112.43951   -8557.6041   -7820.9206   -551.54888     102002.7      46.7237      46.7237      46.7237 
  407000    113.55688   -8578.5706   -7834.5663   -522.78637     102002.7      46.7237      46.7237      46.7237 
  408000    109.81897   -8566.4822    -7846.968   -1171.4404     102002.7      46.7237      46.7237      46.7237 
  409000    107.05897   -8562.8338   -7861.4027   -680.07306     102002.7      46.7237      46.7237      46.7237 
  410000    108.10448   -8565.1584   -7856.8773   -458.66518     102002.7      46.7237      46.7237      46.7237 
  411000    114.74066    -8574.948   -7823.1878   -803.97574     102002.7      46.7237      46.7237      46.7237 
  412000    108.28514   -8577.2302   -7867.7654   -834.12978     102002.7      46.7237      46.7237      46.7237 
  413000    110.49042   -8564.8428   -7840.9293   -801.59659     102002.7      46.7237      46.7237      46.7237 
  414000      111.787   -8568.7107   -7836.3023   -599.59574     102002.7      46.7237      46.7237      46.7237 
  415000    111.78669   -8577.6445   -7845.2381   -667.76181     102002.7      46.7237      46.7237      46.7237 
  416000    107.76489   -8578.4696   -7872.4134    -608.9412     102002.7      46.7237      46.7237      46.7237 
  417000    108.69847   -8550.4904   -7838.3175   -602.00511     102002.7      46.7237      46.7237      46.7237 
  418000    110.23301   -8589.5576   -7867.3307   -715.71634     102002.7      46.7237      46.7237      46.7237 
  419000    109.07225   -8558.7314   -7844.1096    -862.3971     102002.7      46.7237      46.7237      46.7237 
  420000    111.20823   -8586.1154    -7857.499   -734.73902     102002.7      46.7237      46.7237      46.7237 
  421000    110.77606    -8561.019   -7835.2342   -1000.4763     102002.7      46.7237      46.7237      46.7237 
  422000    109.70737   -8547.2635   -7828.4806   -791.68191     102002.7      46.7237      46.7237      46.7237 
  423000    111.15188   -8537.8819   -7809.6347   -945.97074     102002.7      46.7237      46.7237      46.7237 
  424000    112.47504   -8559.5239   -7822.6076    -755.8001     102002.7      46.7237      46.7237      46.7237 
  425000    108.95072   -8595.4138   -7881.5882   -422.91755     102002.7      46.7237      46.7237      46.7237 
  426000    107.70675   -8564.0389   -7858.3636   -1079.3936     102002.7      46.7237      46.7237      46.7237 
  427000    111.96558   -8576.2839   -7842.7055   -879.04794     102002.7      46.7237      46.7237      46.7237 
  428000    108.78712   -8589.5792   -7876.8255   -822.52773     102002.7      46.7237      46.7237      46.7237 
  429000    107.38243   -8543.2213   -7839.6709     -1051.32     102002.7      46.7237      46.7237      46.7237 
  430000    107.94712   -8558.4151    -7851.165   -731.01683     102002.7      46.7237      46.7237      46.7237 
  431000    110.50003   -8589.0173   -7865.0409   -640.63704     102002.7      46.7237      46.7237      46.7237 
  432000    111.27101   -8570.9175   -7841.8899   -1112.5596     102002.7      46.7237      46.7237      46.7237 
  433000    110.20803    -8574.749   -7852.6858   -570.97328     102002.7      46.7237      46.7237      46.7237 
  434000    108.76064   -8576.6904   -7864.1102    -772.0369     102002.7      46.7237      46.7237      46.7237 
  435000    109.16105    -8575.295   -7860.0914   -826.77845     102002.7      46.7237      46.7237      46.7237 
  436000    113.29801   -8565.9393   -7823.6311   -482.86694     102002.7      46.7237      46.7237      46.7237 
  437000    111.87514   -8572.4941   -7839.5083   -607.69455     102002.7      46.7237      46.7237      46.7237 
  438000    113.40326   -8561.5337   -7818.5358   -485.91378     102002.7      46.7237      46.7237      46.7237 
  439000    109.39773   -8572.5681   -7855.8138   -908.25136     102002.7      46.7237      46.7237      46.7237 
  440000    112.66249   -8559.8081   -7821.6637   -742.87757     102002.7      46.7237      46.7237      46.7237 
  441000    111.88368   -8572.5766   -7839.5348   -819.23635     102002.7      46.7237      46.7237      46.7237 
  442000    108.92005   -8568.7546   -7855.1299   -842.99398     102002.7      46.7237      46.7237      46.7237 
  443000    107.79662    -8587.087   -7880.8229   -688.08594     102002.7      46.7237      46.7237      46.7237 
  444000    110.37725   -8564.6728   -7841.5009   -975.68854     102002.7      46.7237      46.7237      46.7237 
  445000    110.22715   -8536.9024   -7814.7139   -690.27307     102002.7      46.7237      46.7237      46.7237 
  446000    110.89415   -8563.1166   -7836.5581   -668.16209     102002.7      46.7237      46.7237      46.7237 
  447000    110.29251   -8571.5806   -7848.9639   -722.09046     102002.7      46.7237      46.7237      46.7237 
  448000    108.75441   -8596.3599   -7883.8205   -711.38232     102002.7      46.7237      46.7237      46.7237 
  449000    108.19735   -8591.7196     -7882.83     -669.276     102002.7      46.7237      46.7237      46.7237 
  450000    111.24481    -8588.499    -7859.643   -695.80458     102002.7      46.7237      46.7237      46.7237 
  451000    107.87033   -8549.5197   -7842.7726   -855.28555     102002.7      46.7237      46.7237      46.7237 
  452000    110.01254   -8561.2512   -7840.4687   -745.85775     102002.7      46.7237      46.7237      46.7237 
  453000    113.09348   -8572.2833   -7831.3151   -989.14843     102002.7      46.7237      46.7237      46.7237 
  454000    108.46474   -8565.4877   -7854.8462   -599.15608     102002.7      46.7237      46.7237      46.7237 
  455000     107.2711   -8551.5445   -7848.7235   -712.43311     102002.7      46.7237      46.7237      46.7237 
  456000    112.98127   -8575.3312   -7835.0982   -659.31535     102002.7      46.7237      46.7237      46.7237 
  457000    112.03677   -8572.9105   -7838.8657   -625.90297     102002.7      46.7237      46.7237      46.7237 
  458000    107.83013   -8556.7904   -7850.3067   -325.14878     102002.7      46.7237      46.7237      46.7237 
  459000    108.74113   -8584.9358   -7872.4834   -595.19289     102002.7      46.7237      46.7237      46.7237 
  460000    109.80815   -8571.2971   -7851.8538   -569.23486     102002.7      46.7237      46.7237      46.7237 
  461000    111.61795   -8593.4535   -7862.1527   -274.74603     102002.7      46.7237      46.7237      46.7237 
  462000    108.23094   -8574.7539   -7865.6442   -355.26218     102002.7      46.7237      46.7237      46.7237 
  463000    109.70229   -8584.8286   -7866.0789   -592.85985     102002.7      46.7237      46.7237      46.7237 
  464000    106.94084    -8557.008   -7856.3508   -610.12222     102002.7      46.7237      46.7237      46.7237 
  465000    109.06016   -8572.5363   -7857.9937   -585.35746     102002.7      46.7237      46.7237      46.7237 
  466000    113.62277   -8547.6581   -7803.2222   -666.63576     102002.7      46.7237      46.7237      46.7237 
  467000    109.26988   -8543.8166      -7827.9   -1080.4293     102002.7      46.7237      46.7237      46.7237 
  468000    110.62361   -8575.8325   -7851.0464   -865.10636     102002.7      46.7237      46.7237      46.7237 
  469000    111.62532   -8563.3808   -7832.0317   -700.52723     102002.7      46.7237      46.7237      46.7237 
  470000    111.87105   -8546.8824   -7813.9234   -776.39067     102002.7      46.7237      46.7237      46.7237 
  471000    111.85598   -8565.4565   -7832.5962   -769.41296     102002.7      46.7237      46.7237      46.7237 
  472000    108.69014   -8584.3625   -7872.2442   -670.39896     102002.7      46.7237      46.7237      46.7237 
  473000    108.46947    -8553.343   -7842.6705   -621.62689     102002.7      46.7237      46.7237      46.7237 
  474000    104.71186   -8595.8082   -7909.7549   -688.74738     102002.7      46.7237      46.7237      46.7237 
  475000    108.65468   -8541.7736   -7829.8877   -942.40429     102002.7      46.7237      46.7237      46.7237 
  476000      110.733   -8561.7102   -7836.2075   -735.22755     102002.7      46.7237      46.7237      46.7237 
  477000    112.17381   -8586.4678   -7851.5251   -735.68132     102002.7      46.7237      46.7237      46.7237 
  478000    109.85579   -8586.9087   -7867.1533   -726.93632     102002.7      46.7237      46.7237      46.7237 
  479000    109.91098   -8592.6303   -7872.5133    -757.9345     102002.7      46.7237      46.7237      46.7237 
  480000    112.34793   -8558.4095    -7822.326    -836.9389     102002.7      46.7237      46.7237      46.7237 
  481000    109.35195   -8567.6027   -7851.1484    -824.2584     102002.7      46.7237      46.7237      46.7237 
  482000    108.13251   -8570.9718    -7862.507   -968.02139     102002.7      46.7237      46.7237      46.7237 
  483000    108.18185   -8552.1489   -7843.3609   -1048.4418     102002.7      46.7237      46.7237      46.7237 
  484000    107.20629   -8541.5249   -7839.1285     -734.811     102002.7      46.7237      46.7237      46.7237 
  485000    111.66617   -8545.7744   -7814.1577   -1193.7803     102002.7      46.7237      46.7237      46.7237 
  486000    108.99522   -8569.4776   -7855.3605   -1169.4688     102002.7      46.7237      46.7237      46.7237 
  487000    109.27644   -8541.8432   -7825.8835    -1095.706     102002.7      46.7237      46.7237      46.7237 
  488000    116.28103   -8585.0235    -7823.171   -1027.2957     102002.7      46.7237      46.7237      46.7237 
  489000    108.47766   -8546.4638   -7835.7376   -572.36974     102002.7      46.7237      46.7237      46.7237 
  490000    110.82912   -8537.7315    -7811.599   -835.00071     102002.7      46.7237      46.7237      46.7237 
  491000    110.64077    -8552.365   -7827.4665   -567.09818     102002.7      46.7237      46.7237      46.7237 
  492000    108.30969   -8569.7315   -7860.1058   -634.75035     102002.7      46.7237      46.7237      46.7237 
  493000     111.6671   -8533.3993   -7801.7765   -888.42667     102002.7      46.7237      46.7237      46.7237 
  494000     109.0616   -8551.2413   -7836.6893   -746.50331     102002.7      46.7237      46.7237      46.7237 
  495000    106.21726   -8549.1263   -7853.2099    -867.2824     102002.7      46.7237      46.7237      46.7237 
  496000     107.4791   -8583.4234   -7879.2397   -802.86756     102002.7      46.7237      46.7237      46.7237 
  497000    110.49714   -8553.1458   -7829.1884   -719.43342     102002.7      46.7237      46.7237      46.7237 
  498000    111.19595   -8559.8342   -7831.2983   -1100.3183     102002.7      46.7237      46.7237      46.7237 
  499000     109.1322   -8565.8688   -7850.8542   -967.82843     102002.7      46.7237      46.7237      46.7237 
  500000     108.9561   -8563.4103   -7849.5495   -614.69578     102002.7      46.7237      46.7237      46.7237 
  500501    109.31391   -8549.8772   -7833.6721   -891.81372     102002.7      46.7237      46.7237      46.7237 
Loop time of 706.143 on 24 procs for 500000 steps with 2199 atoms

Performance: 61.177 ns/day, 0.392 hours/ns, 708.072 timesteps/s
99.1% CPU use with 24 MPI tasks x no OpenMP threads

MPI task timing breakdown:
Section |  min time  |  avg time  |  max time  |%varavg| %total
---------------------------------------------------------------
Pair    | 173.94     | 327.38     | 496.32     | 500.9 | 46.36
Bond    | 58.191     | 78.811     | 103.6      | 138.8 | 11.16
Neigh   | 4.1591     | 4.1872     | 4.2097     |   0.8 |  0.59
Comm    | 94.546     | 286.46     | 458.87     | 596.1 | 40.57
Output  | 0.36889    | 0.36944    | 0.3733     |   0.1 |  0.05
Modify  | 3.76       | 4.2558     | 4.7578     |  13.6 |  0.60
Other   |            | 4.678      |            |       |  0.66

Nlocal:    91.625 ave 135 max 67 min
Histogram: 3 4 3 4 3 3 2 1 0 1
Nghost:    2485.83 ave 2622 max 2384 min
Histogram: 3 4 6 3 0 0 0 0 6 2
Neighs:    7639.62 ave 14196 max 3206 min
Histogram: 3 4 5 0 4 1 2 3 1 1

Total # of neighbors = 183351
Ave neighs/atom = 83.3793
Ave special neighs/atom = 5.23874
Neighbor list builds = 4475
Dangerous builds = 0
Neighbor list info ...
  update every 1 steps, delay 10 steps, check yes
  max neighbors/atom: 2000, page size: 100000
  master list distance cutoff = 16
  ghost atom cutoff = 16
  binsize = 8, bins = 6 6 6
  3 neighbor lists, perpetual/occasional/extra = 3 0 0
  (1) pair buck6d/coul/gauss/dsf, perpetual, skip from (3)
      attributes: half, newton on
      pair build: skip
      stencil: none
      bin: none
  (2) pair lj/cut, perpetual, skip from (3)
      attributes: half, newton on
      pair build: skip
      stencil: none
      bin: none
  (3) neighbor class addition, perpetual
      attributes: half, newton on
      pair build: half/bin/newton
      stencil: half/bin/3d/newton
      bin: standard
Setting up Verlet run ...
  Unit style    : real
  Current step  : 500501
  Time step     : 1
WARNING: Inconsistent image flags (../domain.cpp:786)
Per MPI rank memory allocation (min/avg/max) = 24.14 | 24.52 | 24.61 Mbytes
Step Time TotEng KinEng PotEng E_mol E_pair Temp Pxx Pyy Pzz Pxy Pxz Pyz Cella Cellb Cellc CellAlpha CellBeta CellGamma Volume Press 
  500501       500000   -7833.6721    716.20509   -8549.8772    4276.5974   -12826.475    109.31391   -1004.4648   -1138.0802   -532.89616   -84.669221     36.08764    153.68823      46.7237      46.7237      46.7237           90           90           90     102002.7   -891.81372 
  501000       500499   -7823.3958    719.27429   -8542.6701    4308.8777   -12851.548    109.78236   -1066.0759   -1211.2128   -823.67445   -347.30468   -2.8287826    268.93905      46.7237      46.7237      46.7237           90           90           90     102002.7   -1033.6544 
  502000       501499   -7810.0106    748.67589   -8558.6864    4294.9352   -12853.622     114.2699   -1012.2924    -988.9856   -1003.7476    109.89339    64.142115   -152.37062      46.7237      46.7237      46.7237           90           90           90     102002.7   -1001.6752 
  503000       502499   -7839.9496    721.65514   -8561.6047    4272.3562   -12833.961    110.14574   -843.86591    -1120.201    -788.5564    23.960211    72.742768   -211.37655      46.7237      46.7237      46.7237           90           90           90     102002.7   -917.54109 
  504000       503499   -7839.7388    703.52981   -8543.2686    4285.5829   -12828.851    107.37929   -1294.0738   -671.46261    -1019.281   -4.1863115   -22.596486    15.654647      46.7237      46.7237      46.7237           90           90           90     102002.7   -994.93913 
  505000       504499   -7821.5752    726.10226   -8547.6775      4291.68   -12839.357    110.82451   -876.21666   -1011.9729   -727.42729     110.3376   -11.904182    -48.08916      46.7237      46.7237      46.7237           90           90           90     102002.7   -871.87228 
  506000       505499   -7835.5472    730.86454   -8566.4118    4288.8747   -12855.287    111.55137   -478.10674   -678.58759   -524.26369    9.6510642    81.782382   -285.57504      46.7237      46.7237      46.7237           90           90           90     102002.7   -560.31934 
  507000       506499   -7818.4865    734.75792   -8553.2444    4295.0426   -12848.287    112.14561   -956.03513   -302.92553   -513.60459    -2.018352   -83.939485   -128.38574      46.7237      46.7237      46.7237           90           90           90     102002.7   -590.85508 
  508000       507499   -7851.3894     722.6547   -8574.0441    4272.7656    -12846.81    110.29831   -1030.2422   -548.39474   -785.96169    82.001623   -65.242283    7.4814519      46.7237      46.7237      46.7237           90           90           90     102002.7   -788.19954 
  509000       508499   -7826.4318    728.36541   -8554.7972    4307.3648   -12862.162    111.16993   -1297.7218   -1297.3181   -910.22928   -285.04811    54.985525    187.66097      46.7237      46.7237      46.7237           90           90           90     102002.7   -1168.4231 
  510000       509499   -7829.4285    727.24784   -8556.6763    4302.1882   -12858.864    110.99935   -1046.2202   -1029.3518   -628.70943   -266.94431   -113.65842   -34.651452      46.7237      46.7237      46.7237           90           90           90     102002.7   -901.42714 
  511000       510499   -7844.0761    721.34704   -8565.4231    4280.0966    -12845.52    110.09872   -1033.0172   -678.38494     -1082.03    36.282404    62.547684    -129.2555      46.7237      46.7237      46.7237           90           90           90     102002.7   -931.14403 
  512000       511499   -7880.8647    694.97564   -8575.8403    4286.2209   -12862.061    106.07367   -1126.9667   -807.28523   -815.88537    190.56345    164.85432   -42.867694      46.7237      46.7237      46.7237           90           90           90     102002.7   -916.71244 
  513000       512499   -7826.1552     724.7377   -8550.8929    4292.4153   -12843.308    110.61623   -1140.0261    -1074.625   -1582.6467    51.769034    73.494115     68.28486      46.7237      46.7237      46.7237           90           90           90     102002.7   -1265.7659 
  514000       513499   -7821.8763    745.37684   -8567.2531    4273.2443   -12840.497    113.76637   -962.99609   -881.63679    -1065.092    -154.8665    97.693936    37.202554      46.7237      46.7237      46.7237           90           90           90     102002.7   -969.90828 
  515000       514499   -7830.0722    748.05886   -8578.1311    4263.4045   -12841.536    114.17573   -704.32504       -548.6   -516.83191   -87.980693   -192.76436   -6.1445931      46.7237      46.7237      46.7237           90           90           90     102002.7   -589.91898 
  516000       515499   -7833.1323    717.53333   -8550.6656    4285.6857   -12836.351    109.51663   -175.21592   -914.55599   -1084.4779    224.13026   -71.243348    -34.85906      46.7237      46.7237      46.7237           90           90           90     102002.7   -724.74993 
  517000       516499   -7818.6117    736.47979   -8555.0915    4279.5631   -12834.655    112.40842   -815.61536   -986.81063   -432.31157     -237.274    268.24797   -220.84338      46.7237      46.7237      46.7237           90           90           90     102002.7   -744.91252 
  518000       517499   -7843.2793     736.2323   -8579.5116    4262.5543   -12842.066    112.37065   -1017.5001   -1027.0621   -442.79826   -111.46577    133.05348    35.102611      46.7237      46.7237      46.7237           90           90           90     102002.7   -829.12014 
  519000       518499   -7855.0371    699.94196   -8554.9791    4279.1036   -12834.083    106.83167   -577.31686   -377.71701   -710.04501    65.991156    -174.0882    210.74534      46.7237      46.7237      46.7237           90           90           90     102002.7   -555.02629 
  520000       519499   -7854.6525    724.35749     -8579.01    4281.2376   -12860.248     110.5582    -931.5914   -1119.9242   -830.17511    179.04844   -101.47341   -12.971574      46.7237      46.7237      46.7237           90           90           90     102002.7   -960.56358 
  521000       520499   -7861.7444    712.88405   -8574.6284    4290.5918    -12865.22    108.80702   -1090.5197    -344.6937   -1107.0759   -39.215313   -147.45734     84.62013      46.7237      46.7237      46.7237           90           90           90     102002.7   -847.42975 
  522000       521499   -7832.3478    723.18647   -8555.5343    4295.2425   -12850.777    110.37947   -665.52309   -513.20871    -588.3692    47.563148   -217.35497    38.178814      46.7237      46.7237      46.7237           90           90           90     102002.7   -589.03367 
  523000       522499   -7842.8485    730.83787   -8573.6864    4264.1603   -12837.847     111.5473    -1030.053   -671.17201   -201.46769    83.412231   -33.715946    12.905399      46.7237      46.7237      46.7237           90           90           90     102002.7   -634.23089 
  524000       523499   -7843.4473    717.90533   -8561.3526    4281.8534   -12843.206    109.57341   -635.03362   -656.72417   -350.85448   -233.42444   -117.96737   -105.68435      46.7237      46.7237      46.7237           90           90           90     102002.7   -547.53742 
  525000       524499   -7844.6473    715.18826   -8559.8356    4281.4423   -12841.278    109.15871   -1077.0321   -1024.0539    -265.3548    141.16169    267.22884   -283.37295      46.7237      46.7237      46.7237           90           90           90     102002.7   -788.81358 
  526000       525499    -7818.849    736.56967   -8555.4186    4288.8587   -12844.277    112.42214   -542.82491    -995.0088   -1175.9331    102.75112   -36.226084   -77.651231      46.7237      46.7237      46.7237           90           90           90     102002.7   -904.58892 
  527000       526499   -7832.2807     736.7509   -8569.0316    4275.1603   -12844.192     112.4498   -904.61702    -339.1471   -762.94537    173.13209   -62.458179   -113.50787      46.7237      46.7237      46.7237           90           90           90     102002.7   -668.90316 
  528000       527499     -7838.32    734.70649   -8573.0265    4262.8402   -12835.867    112.13776   -1186.9822   -783.63673   -1005.7418   -76.431562    -34.48693    91.504992      46.7237      46.7237      46.7237           90           90           90     102002.7   -992.12024 
  529000       528499   -7800.7701    741.69078   -8542.4609    4285.9043   -12828.365    113.20377   -1326.2216   -969.36338   -855.85471   -18.433056    243.89647   -28.191116      46.7237      46.7237      46.7237           90           90           90     102002.7   -1050.4799 
  530000       529499   -7848.0292    692.27614   -8540.3053    4290.0835   -12830.389    105.66165   -816.32995   -765.10865   -156.16441     27.89185    199.75029   -57.282911      46.7237      46.7237      46.7237           90           90           90     102002.7     -579.201 
  531000       530499   -7824.2185    723.84414   -8548.0627    4287.8783   -12835.941    110.47985   -994.48918    -718.9186   -764.23116    295.51252    84.548476    158.53511      46.7237      46.7237      46.7237           90           90           90     102002.7   -825.87964 
  532000       531499   -7859.9111    720.16651   -8580.0776    4261.5351   -12841.613    109.91853   -1005.3829   -195.04761    -774.6049    97.179622    72.986451   -141.14632      46.7237      46.7237      46.7237           90           90           90     102002.7   -658.34513 
  533000       532499   -7841.6763    713.80373     -8555.48    4294.9948   -12850.475    108.94739   -464.49058   -882.27933     -533.907   -27.404747   -105.49936   -115.87606      46.7237      46.7237      46.7237           90           90           90     102002.7    -626.8923 
  534000       533499   -7829.5423    740.36793   -8569.9103    4275.2387   -12845.149    113.00186   -879.67726   -532.69951   -608.60718    -61.72872   -34.056525    207.68636      46.7237      46.7237      46.7237           90           90           90     102002.7   -673.66132 
  535000       534499   -7825.1464    724.83946   -8549.9858    4285.8856   -12835.871    110.63176   -541.04629   -751.01797   -1036.8549    36.586915     174.9689   -166.85469      46.7237      46.7237      46.7237           90           90           90     102002.7    -776.3064 
  536000       535499   -7826.2357    714.52427     -8540.76    4292.4367   -12833.197    109.05736   -1013.4992   -867.61398   -694.37228   -98.959777    5.1878479    35.430696      46.7237      46.7237      46.7237           90           90           90     102002.7   -858.49516 
  537000       536499   -7837.6223    711.87897   -8549.5013     4269.217   -12818.718    108.65361   -773.75727   -659.88367   -727.67407    -161.2415   -64.762276   -119.93958      46.7237      46.7237      46.7237           90           90           90     102002.7   -720.43834 
  538000       537499   -7813.7559    729.02561   -8542.7815    4298.9458   -12841.727    111.27069   -927.45618   -714.01091   -1023.8156   -220.29227   -32.589795   -22.598474      46.7237      46.7237      46.7237           90           90           90     102002.7   -888.42756 
  539000       538499    -7853.798     708.5436   -8562.3416    4264.0671   -12826.409    108.14454   -875.04873   -774.30207   -901.33825    299.05809   -18.172847    43.115471      46.7237      46.7237      46.7237           90           90           90     102002.7   -850.22968 
  540000       539499   -7841.1061    718.76146   -8559.8676    4297.5396   -12857.407    109.70408   -1184.7864   -910.86689   -803.94976   -72.036614    143.84577   -7.2329967      46.7237      46.7237      46.7237           90           90           90     102002.7   -966.53436 
  541000       540499   -7831.9104    730.53423   -8562.4446    4271.0691   -12833.514    111.50095   -799.86516    -1335.237   -865.74758   -48.207969    -21.01357    21.784898      46.7237      46.7237      46.7237           90           90           90     102002.7   -1000.2833 
  542000       541499   -7847.0008    703.40641   -8550.4073    4279.8865   -12830.294    107.36045    -1268.428   -709.56996   -869.63184   -144.56485   -36.271235    127.33164      46.7237      46.7237      46.7237           90           90           90     102002.7   -949.20994 
  543000       542499   -7836.7252    725.08232   -8561.8075    4274.5368   -12836.344    110.66883   -804.98484   -1101.7914   -1058.8437   -232.72776    19.762551   -162.91186      46.7237      46.7237      46.7237           90           90           90     102002.7   -988.53996 
  544000       543499   -7828.0052    730.04076    -8558.046    4269.6967   -12827.743    111.42563   -826.81714   -917.94093   -597.13138   -157.19791    164.89226    44.165335      46.7237      46.7237      46.7237           90           90           90     102002.7   -780.62982 
  545000       544499   -7857.7664    709.40225   -8567.1687    4266.1104   -12833.279    108.27559   -1291.4141   -415.33053   -966.53949   -204.62721   -56.901272    -210.3931      46.7237      46.7237      46.7237           90           90           90     102002.7   -891.09472 
  546000       545499   -7836.7347    732.89362   -8569.6283    4259.6759   -12829.304    111.86107   -1001.4294   -876.70882   -668.21794   -139.72615   -99.657209   -142.06904      46.7237      46.7237      46.7237           90           90           90     102002.7   -848.78539 
  547000       546499   -7854.2158    703.38322   -8557.5991    4263.8838   -12821.483    107.35691   -619.80572   -1108.6207   -1058.3113   -101.17932   -166.98292   -21.634262      46.7237      46.7237      46.7237           90           90           90     102002.7   -928.91256 
  548000       547499   -7839.9357    705.47977   -8545.4155    4301.7372   -12847.153    107.67691   -844.16999   -625.64358   -721.61751   -200.15736   -130.43549    -114.4811      46.7237      46.7237      46.7237           90           90           90     102002.7   -730.47703 
  549000       548499   -7834.5532    711.45386   -8546.0071    4280.2873   -12826.294    108.58873   -1005.2129   -812.99671   -753.34127   -7.7994769   -235.24648   -149.40969      46.7237      46.7237      46.7237           90           90           90     102002.7   -857.18364 
  550000       549499   -7889.8919     682.6097   -8572.5016     4272.978    -12845.48    104.18626   -1000.4278     -1114.86   -641.79238   -55.865547    122.59439    106.57937      46.7237      46.7237      46.7237           90           90           90     102002.7   -919.02672 
  551000       550499   -7809.9405    724.82153    -8534.762    4274.5675    -12809.33    110.62903   -1124.4811   -656.61657    -503.0846    103.45335    234.41857   -16.956076      46.7237      46.7237      46.7237           90           90           90     102002.7   -761.39409 
  552000       551499   -7852.0383    716.99118   -8569.0295    4270.4775   -12839.507    109.43389   -794.42362   -1056.9948   -682.45607    -150.4409   -110.22343   -86.484554      46.7237      46.7237      46.7237           90           90           90     102002.7   -844.62484 
  553000       552499      -7854.7    720.22194   -8574.9219    4247.7262   -12822.648      109.927   -1073.9465   -622.45064   -667.15806   -30.743197   -181.27964    284.19122      46.7237      46.7237      46.7237           90           90           90     102002.7   -787.85172 
  554000       553499   -7804.8655    717.71079   -8522.5763    4294.0813   -12816.658    109.54372   -839.80344   -729.08796   -1121.4772   -45.892204    -61.31187   -198.67496      46.7237      46.7237      46.7237           90           90           90     102002.7   -896.78953 
  555000       554499   -7848.8117    714.40241   -8563.2141    4249.2391   -12812.453    109.03876   -735.52716   -605.78343   -805.63984   -52.601215    34.288817   -54.225373      46.7237      46.7237      46.7237           90           90           90     102002.7   -715.65014 
[...]
  936000       935499   -7849.7484    728.16899   -8577.9174    4276.8779   -12854.795    111.13995   -1207.6648   -895.58667   -968.84878   -106.24888   -114.43624    270.06528      46.7237      46.7237      46.7237           90           90           90     102002.7   -1024.0334 
  937000       936499   -7851.9383    713.48209   -8565.4204    4292.6684   -12858.089     108.8983   -738.21075   -880.62663    -666.4254   -208.43722   -316.58941    59.267891      46.7237      46.7237      46.7237           90           90           90     102002.7   -761.75426 
  938000       937499   -7827.7755    745.40426   -8573.1798    4287.5193   -12860.699    113.77056   -1028.5261   -1202.9656    -1236.568   -72.170472    200.27775   -27.907401      46.7237      46.7237      46.7237           90           90           90     102002.7   -1156.0199 
  939000       938499   -7859.1799    699.86988   -8559.0498    4288.2572   -12847.307    106.82067   -1271.5683   -569.93937   -896.41046   -10.005685   -216.63381    50.041858      46.7237      46.7237      46.7237           90           90           90     102002.7   -912.63939 
  940000       939499   -7844.8561     721.8361   -8566.6922    4277.7736   -12844.466    110.17336   -1493.0936   -870.31401   -945.67034    90.703472   -18.513458   -133.17888      46.7237      46.7237      46.7237           90           90           90     102002.7    -1103.026 
  941000       940499   -7893.1425    685.78345    -8578.926    4281.0091   -12859.935    104.67067    -742.5288   -1069.5568   -944.14929   -81.725586    131.62145    17.220533      46.7237      46.7237      46.7237           90           90           90     102002.7   -918.74498 
  942000       941499   -7864.6009    709.01026   -8573.6112    4293.5195   -12867.131    108.21576     -1110.69   -821.02561   -295.03548   -195.43024   -104.58966   -293.27758      46.7237      46.7237      46.7237           90           90           90     102002.7   -742.25038 
  943000       942499   -7849.2001    736.88107   -8586.0811    4264.0161   -12850.097    112.46967   -1147.6872   -563.58767   -847.34839   -105.91459    9.2573761    281.89901      46.7237      46.7237      46.7237           90           90           90     102002.7   -852.87443 
  944000       943499   -7875.9134    728.22582   -8604.1392    4268.0482   -12872.187    111.14862   -442.06159   -676.90159   -499.05116   -16.711061    66.533238    182.41957      46.7237      46.7237      46.7237           90           90           90     102002.7   -539.33811 
  945000       944499   -7853.8523    723.55675    -8577.409    4276.3851   -12853.794    110.43599   -1108.1533   -1168.4061   -950.55888   -226.94405   -349.88664   -105.05367      46.7237      46.7237      46.7237           90           90           90     102002.7   -1075.7061 
  946000       945499   -7846.9499    729.07329   -8576.0232    4295.2028   -12871.226    111.27797   -946.17416   -792.40065   -809.23266   -34.612249    75.455144    44.357692      46.7237      46.7237      46.7237           90           90           90     102002.7   -849.26915 
  947000       946499   -7889.0571    709.24921   -8598.3064    4258.4278   -12856.734    108.25223   -1117.7389   -673.46066   -761.21544    66.832654    86.089501    175.20674      46.7237      46.7237      46.7237           90           90           90     102002.7     -850.805 
  948000       947499   -7830.2344    736.34893   -8566.5833    4274.9936   -12841.577    112.38845   -407.43988   -710.61202     -991.354   -11.418995    24.528367    126.09244      46.7237      46.7237      46.7237           90           90           90     102002.7    -703.1353 
  949000       948499   -7841.2627    721.94722   -8563.2099    4303.5852   -12866.795    110.19032   -786.97071   -1034.5622   -320.03445    246.18809    190.44499   -175.87066      46.7237      46.7237      46.7237           90           90           90     102002.7   -713.85579 
  950000       949499   -7852.9506    729.39988   -8582.3505    4290.5229   -12872.873    111.32782   -951.57504   -864.16708   -990.93204    213.21818   -113.28293    47.769533      46.7237      46.7237      46.7237           90           90           90     102002.7   -935.55805 
  951000       950499   -7877.2359     714.5593   -8591.7952    4277.0913   -12868.886    109.06271   -890.98705   -913.56662    -821.0859    169.16292    73.312886    -26.56479      46.7237      46.7237      46.7237           90           90           90     102002.7   -875.21319 
  952000       951499   -7851.3732    713.65124   -8565.0245    4301.9241   -12866.949    108.92411   -998.87926   -817.77731    -886.0858    145.45245   -204.97837   -61.972638      46.7237      46.7237      46.7237           90           90           90     102002.7   -900.91412 
  953000       952499   -7829.8805    699.16245    -8529.043    4294.6065   -12823.649     106.7127    -937.2844   -757.53429   -647.40471   -27.464065     209.8393    176.15214      46.7237      46.7237      46.7237           90           90           90     102002.7   -780.74114 
  954000       953499   -7874.1297    710.73366   -8584.8633    4268.2094   -12853.073     108.4788   -1131.0271   -672.82039   -921.34487   -144.12417    142.60279   -45.212902      46.7237      46.7237      46.7237           90           90           90     102002.7   -908.39746 
  955000       954499   -7840.9592    729.98616   -8570.9454    4269.9944    -12840.94     111.4173   -598.11875   -740.26289   -526.52894   -109.89078    40.961954   -116.76033      46.7237      46.7237      46.7237           90           90           90     102002.7   -621.63686 
  956000       955499     -7863.88    721.41417   -8585.2942    4262.2761    -12847.57    110.10896      -715.95    -701.0282   -941.46615   -103.66895   -99.359096    19.907817      46.7237      46.7237      46.7237           90           90           90     102002.7   -786.14812 
  957000       956499   -7872.5436     704.5957   -8577.1393    4290.2091   -12867.348    107.54197   -752.06149   -636.97707   -1079.4678    105.14903   -17.771069    167.99188      46.7237      46.7237      46.7237           90           90           90     102002.7   -822.83545 
  958000       957499   -7862.8175    732.87601   -8595.6935    4269.6818   -12865.375    111.85838   -658.26192   -718.32636   -615.07018    10.383219   -13.703416    149.95908      46.7237      46.7237      46.7237           90           90           90     102002.7   -663.88615 
  959000       958499   -7827.2574    727.47517   -8554.7325    4293.1652   -12847.898    111.03405   -555.60872   -991.64551   -848.86997    146.58287   -343.42359    33.168573      46.7237      46.7237      46.7237           90           90           90     102002.7   -798.70807 
  960000       959499   -7888.2006    689.62078   -8577.8214    4275.4931   -12853.314    105.25636   -286.72527   -988.69544   -378.15572   -20.339435    110.61309   -73.541706      46.7237      46.7237      46.7237           90           90           90     102002.7   -551.19214 
  961000       960499   -7846.4029     742.6899   -8589.0928      4256.61   -12845.703    113.35627   -528.20633   -301.42497   -697.41713    45.239934   -42.162123    101.81709      46.7237      46.7237      46.7237           90           90           90     102002.7   -509.01614 
  962000       961499    -7878.942     696.2718   -8575.2138    4292.2764    -12867.49     106.2715   -922.71534    -395.8537   -987.75763    95.966287   -65.878431    34.615674      46.7237      46.7237      46.7237           90           90           90     102002.7   -768.77556 
  963000       962499        -7840    728.82365   -8568.8236    4284.3495   -12853.173    111.23987   -990.63159    -987.0937   -520.96988    161.20271    104.11952    234.64115      46.7237      46.7237      46.7237           90           90           90     102002.7   -832.89839 
  964000       963499   -7869.4953    705.93743   -8575.4328     4284.647    -12860.08    107.74676    -1011.453   -1265.1727   -639.61308    23.460345    47.459229   -258.94229      46.7237      46.7237      46.7237           90           90           90     102002.7   -972.07957 
  965000       964499   -7870.5422    700.19841   -8570.7406    4293.4684   -12864.209    106.87082   -1019.5435    -1205.349    -549.8259    68.860056   -79.827905   -87.083059      46.7237      46.7237      46.7237           90           90           90     102002.7   -924.90615 
  966000       965499   -7856.5704    728.10661    -8584.677    4271.3164   -12855.993    111.13043   -1347.3396   -954.14637   -828.55658   -22.332479    3.1450752   -14.565084      46.7237      46.7237      46.7237           90           90           90     102002.7   -1043.3475 
  967000       966499   -7819.4022    740.42434   -8559.8266    4287.7884   -12847.615    113.01047   -879.19488   -917.42254   -496.62787    47.757813   -18.769971    74.774643      46.7237      46.7237      46.7237           90           90           90     102002.7    -764.4151 
  968000       967499   -7845.6926    741.82675   -8587.5193    4273.8485   -12861.368    113.22452    -361.9756   -306.74793   -583.27858   -248.54692    275.33569    62.455797      46.7237      46.7237      46.7237           90           90           90     102002.7   -417.33404 
  969000       968499   -7864.3249     712.3398   -8576.6647    4281.0798   -12857.744    108.72395   -762.63048     -708.789   -699.81609    58.414538    134.36672   -38.066897      46.7237      46.7237      46.7237           90           90           90     102002.7   -723.74519 
  970000       969499   -7868.4062    714.04742   -8582.4537      4269.62   -12852.074    108.98458   -946.84708   -609.10381   -714.81299   -169.94469   0.80600369    8.6868312      46.7237      46.7237      46.7237           90           90           90     102002.7    -756.9213 
  971000       970499    -7830.377    736.25087   -8566.6279    4290.3756   -12857.003    112.37348   -943.33719   -1097.1976   -322.50414   -181.81254   -154.66281   -109.22472      46.7237      46.7237      46.7237           90           90           90     102002.7   -787.67964 
  972000       971499   -7849.7271    729.05656   -8578.7836    4253.9584   -12832.742    111.27542   -575.27837   -605.39405    -413.6136    245.94967    61.917733   -30.579422      46.7237      46.7237      46.7237           90           90           90     102002.7   -531.42867 
  973000       972499   -7893.8188     691.8609   -8585.6797    4259.1434   -12844.823    105.59827   -762.97339   -805.21477   -531.59156   -26.159063    195.17089    16.605858      46.7237      46.7237      46.7237           90           90           90     102002.7   -699.92658 
  974000       973499   -7856.4975    719.21648    -8575.714    4291.9172   -12867.631    109.77353   -392.47621   -410.21598   -616.76244   -21.139658   -116.28736    260.56877      46.7237      46.7237      46.7237           90           90           90     102002.7   -473.15155 
  975000       974499   -7823.1807    737.48475   -8560.6654    4282.4472   -12843.113    112.56181   -904.96392     -893.672   -867.36371   -57.002082   -95.516309    139.87859      46.7237      46.7237      46.7237           90           90           90     102002.7   -888.66654 
  976000       975499   -7852.0392     735.7881   -8587.8273    4279.6491   -12867.476    112.30285    -1159.684   -719.72399   -681.68414    20.206557     56.49425    43.639797      46.7237      46.7237      46.7237           90           90           90     102002.7   -853.69737 
  977000       976499    -7846.634    718.69795   -8565.3319    4271.0964   -12836.428    109.69439   -827.76699   -178.12555   -457.68233   -29.635041    133.23033   -124.88224      46.7237      46.7237      46.7237           90           90           90     102002.7   -487.85829 
  978000       977499   -7873.5591    713.20562   -8586.7647    4272.7602   -12859.525     108.8561    -1003.568   -800.80497   -867.33858    208.40704   -216.41991    71.433608      46.7237      46.7237      46.7237           90           90           90     102002.7   -890.57053 
  979000       978499   -7841.7479      708.573   -8550.3209    4305.3315   -12855.652    108.14903   -846.05588   -846.48812   -1259.6229    -108.6516    -9.253647   -64.706869      46.7237      46.7237      46.7237           90           90           90     102002.7   -984.05563 
  980000       979499   -7868.2263    719.60175   -8587.8281    4263.4886   -12851.317    109.83234   -781.59296     -779.352   -655.91102   -18.692293    18.293166    53.724007      46.7237      46.7237      46.7237           90           90           90     102002.7     -738.952 
  981000       980499   -7859.0113    710.30167    -8569.313    4297.3127   -12866.626    108.41287   -1087.7888    -902.0686   -951.94549   -17.106625   -155.91958   -46.602477      46.7237      46.7237      46.7237           90           90           90     102002.7   -980.60098 
  982000       981499   -7882.1598     705.0711   -8587.2309     4256.466   -12843.697    107.61453    -490.8236   -612.07545   -1204.3876   -58.869787    16.724276    44.085005      46.7237      46.7237      46.7237           90           90           90     102002.7   -769.09554 
  983000       982499   -7871.2966    728.64324   -8599.9398    4274.0503    -12873.99    111.21233   -752.53875   -1215.6078   -730.35189    -228.7997   -22.288422    35.486687      46.7237      46.7237      46.7237           90           90           90     102002.7   -899.49947 
  984000       983499   -7878.0497    713.76743   -8591.8171    4267.9405   -12859.758    108.94185    -800.1207   -967.36264   -701.16175    180.74543   -147.58204    365.48115      46.7237      46.7237      46.7237           90           90           90     102002.7    -822.8817 
  985000       984499   -7898.1158    706.55126    -8604.667    4246.6374   -12851.304    107.84045   -1374.6371    -741.3699   -756.75161    126.12303    143.54499   -22.290445      46.7237      46.7237      46.7237           90           90           90     102002.7    -957.5862 
  986000       985499   -7828.5313    720.64354   -8549.1749    4315.7775   -12864.952    109.99134   -1013.9555   -800.57579   -776.79969      255.028    -204.4966   -11.102513      46.7237      46.7237      46.7237           90           90           90     102002.7   -863.77701 
  987000       986499    -7849.579     707.1814   -8556.7604    4297.0529   -12853.813    107.93663   -1259.2498   -1149.8659   -504.46672   -103.93157   -388.99003    89.766395      46.7237      46.7237      46.7237           90           90           90     102002.7   -971.19414 
  988000       987499   -7853.6816    718.57038    -8572.252    4271.4784    -12843.73    109.67492   -865.48721   -783.07232   -1431.9142   -122.21101   -122.78441   -73.305779      46.7237      46.7237      46.7237           90           90           90     102002.7   -1026.8246 
  989000       988499   -7857.0362    717.14287   -8574.1791    4293.4296   -12867.609    109.45704   -1287.6522   -1357.1337   -742.86282    194.75156    24.276902   -205.14442      46.7237      46.7237      46.7237           90           90           90     102002.7   -1129.2162 
  990000       989499   -7864.8518    705.05683   -8569.9086    4275.0806   -12844.989    107.61235   -956.99588   -1127.5516    -430.3849    138.87753    23.110564   -74.606366      46.7237      46.7237      46.7237           90           90           90     102002.7   -838.31079 
  991000       990499   -7871.4079    725.02333   -8596.4312     4269.888   -12866.319    110.65983   -1057.2069   -257.17656   -551.66717    25.711998   -212.96619   -104.24694      46.7237      46.7237      46.7237           90           90           90     102002.7   -622.01689 
  992000       991499   -7839.6658    730.36304   -8570.0288     4275.314   -12845.343    111.47482   -816.54546   -758.87458   -633.55394    -3.105275   -1.3513674   -116.52404      46.7237      46.7237      46.7237           90           90           90     102002.7   -736.32466 
  993000       992499   -7824.5196    713.38693   -8537.9065      4311.93   -12849.837    108.88377    -789.2184   -1154.0135    -508.3737   -20.021135    12.545446   -6.0051617      46.7237      46.7237      46.7237           90           90           90     102002.7   -817.20187 
  994000       993499   -7854.4692    714.72449   -8569.1936    4281.7601   -12850.954    109.08792    -748.4675   -392.32114   -482.82573    119.64882   -113.77518   -57.217231      46.7237      46.7237      46.7237           90           90           90     102002.7   -541.20479 
  995000       994499   -7842.2225    711.84317   -8554.0657    4291.6716   -12845.737    108.64815   -745.50628    -696.2329   -382.01208    43.883032   -55.419017    102.86271      46.7237      46.7237      46.7237           90           90           90     102002.7   -607.91709 
  996000       995499   -7831.8653    727.89286   -8559.7582    4278.3488   -12838.107     111.0978   -457.05489   -106.76367   -424.41075     109.3427   -53.688399    146.73985      46.7237      46.7237      46.7237           90           90           90     102002.7   -329.40977 
  997000       996499   -7845.9788     712.7139   -8558.6927    4277.2511   -12835.944    108.78105   -795.07663   -342.45345   -765.77346   -73.048346     133.5386    -146.7289      46.7237      46.7237      46.7237           90           90           90     102002.7   -634.43451 
  998000       997499   -7852.5217    735.19246   -8587.7142    4269.5133   -12857.228    112.21194   -712.03386   -535.06994   -437.30585    -131.1194    105.27406      17.0884      46.7237      46.7237      46.7237           90           90           90     102002.7   -561.46988 
  999000       998499   -7797.5132    755.11695   -8552.6301      4285.18    -12837.81      115.253    -934.8973   -569.58732   -553.87289    -24.68487   -9.8832585    123.53084      46.7237      46.7237      46.7237           90           90           90     102002.7   -686.11917 
 1000000       999499    -7835.814    729.25485   -8565.0689     4281.914   -12846.983    111.30568   -412.79102   -358.75098    -569.0297    216.11641    19.309198   -175.23783      46.7237      46.7237      46.7237           90           90           90     102002.7   -446.85723 
 1000501      1000000   -7850.7602    712.19118   -8562.9514    4281.6272   -12844.579    108.70127   -988.20306   -952.87498   -820.36683     60.81614   -46.967359    86.114574      46.7237      46.7237      46.7237           90           90           90     102002.7   -920.48162 
Loop time of 834.597 on 24 procs for 500000 steps with 2199 atoms

Performance: 51.761 ns/day, 0.464 hours/ns, 599.091 timesteps/s
99.1% CPU use with 24 MPI tasks x no OpenMP threads

MPI task timing breakdown:
Section |  min time  |  avg time  |  max time  |%varavg| %total
---------------------------------------------------------------
Pair    | 176.08     | 376.37     | 589.14     | 656.2 | 45.10
Bond    | 50.322     | 82.792     | 117.68     | 234.8 |  9.92
Neigh   | 4.4012     | 4.4267     | 4.4453     |   0.7 |  0.53
Comm    | 107.79     | 352.52     | 582.33     | 776.7 | 42.24
Output  | 0.41696    | 0.44821    | 0.44971    |   1.0 |  0.05
Modify  | 11.92      | 12.608     | 13.321     |  11.4 |  1.51
Other   |            | 5.43       |            |       |  0.65

Nlocal:    91.625 ave 127 max 56 min
Histogram: 1 0 3 4 5 5 1 2 1 2
Nghost:    2488.62 ave 2621 max 2392 min
Histogram: 3 6 6 1 0 0 0 0 3 5
Neighs:    7647.62 ave 13025 max 2588 min
Histogram: 3 1 3 4 2 2 3 2 0 4

Total # of neighbors = 183543
Ave neighs/atom = 83.4666
Ave special neighs/atom = 5.23874
Neighbor list builds = 4513
Dangerous builds = 0
Total wall time: 0:25:42
