LAMMPS (30 Mar 2018)
Reading data file ...
  orthogonal box = (0 0 0) to (46.7237 46.7237 46.7237)
  2 by 3 by 4 MPI processor grid
  reading atoms ...
  1824 atoms
  scanning bonds ...
  5 = max bonds/atom
  scanning angles ...
  10 = max angles/atom
  scanning dihedrals ...
  32 = max dihedrals/atom
  scanning impropers ...
  3 = max impropers/atom
  reading bonds ...
  2064 bonds
  reading angles ...
  3696 angles
  reading dihedrals ...
  6240 dihedrals
  reading impropers ...
  1008 impropers
Finding 1-2 1-3 1-4 neighbors ...
  special bond factors lj:   0          0          0         
  special bond factors coul: 0          0          0         
  5 = max # of 1-2 neighbors
  8 = max # of 1-3 neighbors
  20 = max # of 1-4 neighbors
  19 = max # of special neighbors
Finding 1-2 1-3 1-4 neighbors ...
  special bond factors lj:   0          0          1         
  special bond factors coul: 1          1          1         
  5 = max # of 1-2 neighbors
  8 = max # of 1-3 neighbors
  19 = max # of special neighbors
WARNING: Using 'neigh_modify every 1 delay 0 check yes' setting during minimization (../min.cpp:168)
Neighbor list info ...
  update every 1 steps, delay 0 steps, check yes
  max neighbors/atom: 2000, page size: 100000
  master list distance cutoff = 16
  ghost atom cutoff = 16
  binsize = 8, bins = 6 6 6
  3 neighbor lists, perpetual/occasional/extra = 3 0 0
  (1) pair buck6d/coul/gauss/dsf, perpetual, skip from (3)
      attributes: half, newton on
      pair build: skip
      stencil: none
      bin: none
  (2) pair lj/cut, perpetual, skip from (3)
      attributes: half, newton on
      pair build: skip
      stencil: none
      bin: none
  (3) neighbor class addition, perpetual
      attributes: half, newton on
      pair build: half/bin/newton
      stencil: half/bin/3d/newton
      bin: standard
Setting up cg style minimization ...
  Unit style    : real
  Current step  : 0
WARNING: Inconsistent image flags (../domain.cpp:786)
Per MPI rank memory allocation (min/avg/max) = 22.87 | 23.28 | 24.43 Mbytes
Step Temp E_pair E_mol TotEng Press 
       0            0   -11801.385    6482.8914   -5318.4932    6152.8477 
     503            0   -11813.065    3703.1399   -8109.9252   -471.28686 
Loop time of 1.24343 on 24 procs for 503 steps with 1824 atoms

99.9% CPU use with 24 MPI tasks x no OpenMP threads

Minimization stats:
  Stopping criterion = max force evaluations
  Energy initial, next-to-last, final = 
        -5318.49324135      -8109.8972492     -8109.92519662
  Force two-norm initial, final = 2576.42 7.85392
  Force max component initial, final = 152.171 0.73059
  Final line search alpha, max atom move = 0.00650024 0.00474901
  Iterations, force evaluations = 503 1000

MPI task timing breakdown:
Section |  min time  |  avg time  |  max time  |%varavg| %total
---------------------------------------------------------------
Pair    | 0.44942    | 0.62504    | 0.80079    |  11.0 | 50.27
Bond    | 0.11849    | 0.15714    | 0.1983     |   5.3 | 12.64
Neigh   | 0.0089589  | 0.010586   | 0.01286    |   1.2 |  0.85
Comm    | 0.24911    | 0.42944    | 0.63229    |  13.4 | 34.54
Output  | 0          | 0          | 0          |   0.0 |  0.00
Modify  | 0          | 0          | 0          |   0.0 |  0.00
Other   |            | 0.02123    |            |       |  1.71

Nlocal:    76 ave 90 max 58 min
Histogram: 2 2 2 1 2 2 3 5 1 4
Nghost:    2055.71 ave 2225 max 1964 min
Histogram: 14 2 0 0 0 0 0 0 1 7
Neighs:    7645.67 ave 11627 max 5018 min
Histogram: 4 2 5 2 3 2 2 2 0 2

Total # of neighbors = 183496
Ave neighs/atom = 100.601
Ave special neighs/atom = 6.31579
Neighbor list builds = 14
Dangerous builds = 0
Neighbor list info ...
  update every 1 steps, delay 10 steps, check yes
  max neighbors/atom: 2000, page size: 100000
  master list distance cutoff = 16
  ghost atom cutoff = 16
  binsize = 8, bins = 6 6 6
  3 neighbor lists, perpetual/occasional/extra = 3 0 0
  (1) pair buck6d/coul/gauss/dsf, perpetual, skip from (3)
      attributes: half, newton on
      pair build: skip
      stencil: none
      bin: none
  (2) pair lj/cut, perpetual, skip from (3)
      attributes: half, newton on
      pair build: skip
      stencil: none
      bin: none
  (3) neighbor class addition, perpetual
      attributes: half, newton on
      pair build: half/bin/newton
      stencil: half/bin/3d/newton
      bin: standard
Setting up Verlet run ...
  Unit style    : real
  Current step  : 503
  Time step     : 1
WARNING: Inconsistent image flags (../domain.cpp:786)
Per MPI rank memory allocation (min/avg/max) = 22.52 | 22.68 | 23.3 Mbytes
Step Temp PotEng TotEng Press Volume Lx Ly Lz 
     503          110   -8109.9252   -7512.1834   -203.41023     102002.7      46.7237      46.7237      46.7237 
    1000    100.58776   -7603.1745   -7056.5789   -597.46617     102002.7      46.7237      46.7237      46.7237 
    2000    113.60485   -7495.3159   -6877.9853   -736.31537     102002.7      46.7237      46.7237      46.7237 
    3000    107.61392   -7466.2547   -6881.4788   -1006.8292     102002.7      46.7237      46.7237      46.7237 
    4000    109.72358   -7507.6482   -6911.4084   -483.29135     102002.7      46.7237      46.7237      46.7237 
    5000    111.20229   -7477.7349   -6873.4598   -740.78757     102002.7      46.7237      46.7237      46.7237 
    6000    108.45048   -7491.4677    -6902.146   -485.64531     102002.7      46.7237      46.7237      46.7237 
    7000    108.39018   -7485.2182   -6896.2241   -586.17685     102002.7      46.7237      46.7237      46.7237 
    8000    109.72712   -7482.4027   -6886.1437   -763.32652     102002.7      46.7237      46.7237      46.7237 
    9000    111.32438   -7498.9817   -6894.0432   -598.66011     102002.7      46.7237      46.7237      46.7237 
   10000    112.36608   -7474.6304   -6864.0313   -751.10422     102002.7      46.7237      46.7237      46.7237 
   11000    109.44257   -7486.0644   -6891.3516   -947.86135     102002.7      46.7237      46.7237      46.7237 
   12000     108.6204   -7504.7234   -6914.4784   -413.55872     102002.7      46.7237      46.7237      46.7237 
   13000    112.37542   -7490.3734   -6879.7235   -542.50723     102002.7      46.7237      46.7237      46.7237 
   14000    110.59141   -7473.1787   -6872.2232   -533.99144     102002.7      46.7237      46.7237      46.7237 
   15000    107.39041   -7482.5528   -6898.9915    -462.7923     102002.7      46.7237      46.7237      46.7237 
   16000    115.46371   -7487.9516   -6860.5199    -839.7055     102002.7      46.7237      46.7237      46.7237 
   17000    109.31887   -7493.3273   -6899.2867   -874.80452     102002.7      46.7237      46.7237      46.7237 
   18000    109.38551   -7484.8527     -6890.45   -578.40624     102002.7      46.7237      46.7237      46.7237 
   19000     110.1358   -7474.6918    -6876.212    -547.7568     102002.7      46.7237      46.7237      46.7237 
   20000    109.49018   -7482.9317   -6887.9602    -595.2707     102002.7      46.7237      46.7237      46.7237 
   21000    110.50815    -7490.504   -6890.0008   -799.90982     102002.7      46.7237      46.7237      46.7237 
   22000    112.67317   -7488.8405   -6876.5726   -716.33178     102002.7      46.7237      46.7237      46.7237 
   23000     111.5802    -7494.464   -6888.1354   -618.48472     102002.7      46.7237      46.7237      46.7237 
   24000    106.37394    -7467.693   -6889.6552   -767.72849     102002.7      46.7237      46.7237      46.7237 
   25000    106.94149   -7471.4068    -6890.285   -564.32153     102002.7      46.7237      46.7237      46.7237 
   26000    111.26378   -7496.1714   -6891.5622   -446.03133     102002.7      46.7237      46.7237      46.7237 
   27000    109.09758   -7489.6881     -6896.85   -453.12494     102002.7      46.7237      46.7237      46.7237 
   28000    109.73287   -7488.0083    -6891.718   -724.96481     102002.7      46.7237      46.7237      46.7237 
   29000    107.61166   -7482.4693   -6897.7058   -545.45074     102002.7      46.7237      46.7237      46.7237 
   30000    110.08277    -7462.818   -6864.6264   -368.57844     102002.7      46.7237      46.7237      46.7237 
   31000    111.06798    -7479.358   -6875.8127   -512.89856     102002.7      46.7237      46.7237      46.7237 
   32000    107.63806   -7505.7509   -6920.8439   -631.94129     102002.7      46.7237      46.7237      46.7237 
   33000    109.00815   -7474.3779   -6882.0258   -475.19415     102002.7      46.7237      46.7237      46.7237 
   34000    110.71566   -7458.1122   -6856.4815   -473.52024     102002.7      46.7237      46.7237      46.7237 
   35000    112.07468   -7495.8192   -6886.8035   -390.27814     102002.7      46.7237      46.7237      46.7237 
   36000    107.61852   -7488.7744   -6903.9736   -876.16538     102002.7      46.7237      46.7237      46.7237 
   37000    110.75202   -7482.6213    -6880.793   -488.26021     102002.7      46.7237      46.7237      46.7237 
   38000    110.55419    -7490.414   -6889.6607   -744.41958     102002.7      46.7237      46.7237      46.7237 
   39000    110.74967    -7493.943   -6892.1275   -834.44327     102002.7      46.7237      46.7237      46.7237 
   40000    110.62168   -7480.4337   -6879.3137   -704.73136     102002.7      46.7237      46.7237      46.7237 
   41000    112.18351   -7485.4238   -6875.8167   -1011.5191     102002.7      46.7237      46.7237      46.7237 
   42000    109.58897   -7493.0852   -6897.5769   -706.91806     102002.7      46.7237      46.7237      46.7237 
   43000    112.70511   -7487.9306   -6875.4892   -940.45843     102002.7      46.7237      46.7237      46.7237 
   44000    109.51266     -7491.34   -6896.2464   -575.69681     102002.7      46.7237      46.7237      46.7237 
   45000    109.56584   -7494.2486    -6898.866   -614.84135     102002.7      46.7237      46.7237      46.7237 
   46000    113.12688   -7492.0956   -6877.3622   -795.34593     102002.7      46.7237      46.7237      46.7237 
   47000    107.76419   -7495.3616   -6909.7691   -774.95569     102002.7      46.7237      46.7237      46.7237 
   48000    109.43145   -7493.3239   -6898.6716   -572.98271     102002.7      46.7237      46.7237      46.7237 
   49000     111.0961   -7507.8173   -6904.1192   -383.69643     102002.7      46.7237      46.7237      46.7237 
   50000    109.63345     -7482.38     -6886.63   -496.34244     102002.7      46.7237      46.7237      46.7237 
   51000    111.56957   -7460.5045   -6854.2336   -994.40893     102002.7      46.7237      46.7237      46.7237 
   52000    109.47912   -7479.1554    -6884.244   -657.61046     102002.7      46.7237      46.7237      46.7237 
   53000    113.98562     -7481.24   -6861.8403   -728.70796     102002.7      46.7237      46.7237      46.7237 
   54000    111.17103   -7516.7164   -6912.6112   -480.70258     102002.7      46.7237      46.7237      46.7237 
   55000    110.45715    -7486.042    -6885.816   -603.66196     102002.7      46.7237      46.7237      46.7237 
   56000    110.51924   -7502.8528   -6902.2894   -634.33963     102002.7      46.7237      46.7237      46.7237 
   57000    111.57499   -7492.2307   -6885.9304    -533.5477     102002.7      46.7237      46.7237      46.7237 
   58000    109.98071   -7484.8658   -6887.2288   -699.50868     102002.7      46.7237      46.7237      46.7237 
   59000    112.07179   -7476.5015   -6867.5015   -722.72308     102002.7      46.7237      46.7237      46.7237 
   60000    109.61146   -7484.9559   -6889.3254   -606.23469     102002.7      46.7237      46.7237      46.7237 
   61000    110.37717   -7511.4437   -6911.6523   -560.69024     102002.7      46.7237      46.7237      46.7237 
   62000    107.78852   -7484.5694   -6898.8447   -596.38847     102002.7      46.7237      46.7237      46.7237 
   63000    111.44255   -7484.1817    -6878.601   -646.87313     102002.7      46.7237      46.7237      46.7237 
   64000    111.54832   -7509.5553   -6903.3999   -466.07801     102002.7      46.7237      46.7237      46.7237 
   65000    115.01143   -7485.8202   -6860.8462   -639.76916     102002.7      46.7237      46.7237      46.7237 
   66000    110.39095   -7481.7424   -6881.8761   -754.03087     102002.7      46.7237      46.7237      46.7237 
   67000    107.82531   -7484.8467   -6898.9221   -317.52071     102002.7      46.7237      46.7237      46.7237 
   68000    110.67348   -7491.9567   -6890.5552    -524.8857     102002.7      46.7237      46.7237      46.7237 
   69000    107.07502   -7476.4822   -6894.6347   -532.55139     102002.7      46.7237      46.7237      46.7237 
   70000    109.63015   -7520.9336   -6925.2015     -578.015     102002.7      46.7237      46.7237      46.7237 
   71000    111.61142   -7478.4497   -6871.9514   -700.59094     102002.7      46.7237      46.7237      46.7237 
   72000    108.22069   -7490.6471   -6902.5741   -800.25476     102002.7      46.7237      46.7237      46.7237 
   73000    111.37648   -7487.7689   -6882.5472   -955.63769     102002.7      46.7237      46.7237      46.7237 
   74000     112.5984   -7482.7305   -6870.8689   -656.34495     102002.7      46.7237      46.7237      46.7237 
   75000    108.96282   -7495.3089   -6903.2031    -388.7243     102002.7      46.7237      46.7237      46.7237 
   76000    110.62805   -7482.6619   -6881.5072   -518.42799     102002.7      46.7237      46.7237      46.7237 
   77000    110.82927    -7491.331   -6889.0829   -640.74083     102002.7      46.7237      46.7237      46.7237 
   78000    112.58462   -7478.4869   -6866.7003   -647.44666     102002.7      46.7237      46.7237      46.7237 
   79000    110.32059   -7481.6133   -6882.1293   -626.24405     102002.7      46.7237      46.7237      46.7237 
   80000    109.73517   -7480.8307    -6884.528   -770.96925     102002.7      46.7237      46.7237      46.7237 
   81000    113.30726   -7478.5087   -6862.7952   -834.98458     102002.7      46.7237      46.7237      46.7237 
   82000    110.16718   -7502.6515   -6904.0012   -684.36382     102002.7      46.7237      46.7237      46.7237 
   83000    106.94147   -7504.7527    -6923.631   -442.75941     102002.7      46.7237      46.7237      46.7237 
   84000    110.13716   -7497.3874   -6898.9002   -495.78177     102002.7      46.7237      46.7237      46.7237 
   85000    111.44593   -7488.2621    -6882.663   -598.41941     102002.7      46.7237      46.7237      46.7237 
   86000    109.07339   -7494.2418   -6901.5352   -831.70072     102002.7      46.7237      46.7237      46.7237 
   87000    116.32182   -7485.7332   -6853.6385   -742.32211     102002.7      46.7237      46.7237      46.7237 
   88000    112.60029   -7512.6892   -6900.8173   -287.34246     102002.7      46.7237      46.7237      46.7237 
   89000    108.93605   -7483.1377   -6891.1774   -312.23103     102002.7      46.7237      46.7237      46.7237 
   90000    106.68758   -7494.5036   -6914.7615   -654.46277     102002.7      46.7237      46.7237      46.7237 
   91000    110.19063   -7483.6223   -6884.8445    -185.4084     102002.7      46.7237      46.7237      46.7237 
   92000    112.82057   -7491.4804   -6878.4116   -442.45997     102002.7      46.7237      46.7237      46.7237 
   93000     109.0637   -7499.4122   -6906.7582   -795.74232     102002.7      46.7237      46.7237      46.7237 
   94000    109.47631   -7497.5881    -6902.692    -610.1014     102002.7      46.7237      46.7237      46.7237 
   95000    112.79263    -7477.441   -6864.5239   -596.21679     102002.7      46.7237      46.7237      46.7237 
   96000    112.35812   -7509.6404   -6899.0845   -465.97086     102002.7      46.7237      46.7237      46.7237 
   97000    110.86925   -7471.6394   -6869.1741   -493.45643     102002.7      46.7237      46.7237      46.7237 
   98000    108.76637   -7500.8067   -6909.7685   -686.94307     102002.7      46.7237      46.7237      46.7237 
   99000    113.32387   -7463.1798    -6847.376   -707.73783     102002.7      46.7237      46.7237      46.7237 
  100000    109.68813   -7499.3488   -6903.3017   -680.28961     102002.7      46.7237      46.7237      46.7237 
  101000    109.31425    -7495.951   -6901.9355   -386.58229     102002.7      46.7237      46.7237      46.7237 
  102000    110.59573   -7483.1944   -6882.2153   -854.00527     102002.7      46.7237      46.7237      46.7237 
  103000    107.23577   -7499.1255   -6916.4045   -555.00302     102002.7      46.7237      46.7237      46.7237 
  104000    110.11144   -7493.1966   -6894.8491   -490.07195     102002.7      46.7237      46.7237      46.7237 
  105000    110.55557    -7491.926   -6891.1652   -566.76135     102002.7      46.7237      46.7237      46.7237 
  106000    109.90209   -7502.8903   -6905.6806   -536.19157     102002.7      46.7237      46.7237      46.7237 
  107000     108.0641   -7478.7608   -6891.5386   -1000.6454     102002.7      46.7237      46.7237      46.7237 
  108000    107.62538   -7477.9089   -6893.0708   -692.59274     102002.7      46.7237      46.7237      46.7237 
  109000     105.9762   -7493.8369   -6917.9605   -1144.3802     102002.7      46.7237      46.7237      46.7237 
  110000     110.0079   -7497.9439   -6900.1592   -767.46252     102002.7      46.7237      46.7237      46.7237 
  111000    110.46445   -7472.6396   -6872.3739   -386.36512     102002.7      46.7237      46.7237      46.7237 
  112000    111.53162   -7466.3519   -6860.2872   -575.26181     102002.7      46.7237      46.7237      46.7237 
  113000    111.93195   -7492.4655   -6884.2254   -401.43149     102002.7      46.7237      46.7237      46.7237 
  114000    113.51373   -7473.8281   -6856.9925   -855.34144     102002.7      46.7237      46.7237      46.7237 
  115000    106.55061   -7483.6003   -6904.6026   -545.37839     102002.7      46.7237      46.7237      46.7237 
  116000    107.69479   -7484.6254   -6899.4102   -614.79438     102002.7      46.7237      46.7237      46.7237 
  117000    109.17324   -7476.9982    -6883.749    -438.1798     102002.7      46.7237      46.7237      46.7237 
  118000    114.05279   -7476.3377   -6856.5729    -589.7821     102002.7      46.7237      46.7237      46.7237 
  119000     110.9263   -7493.3785   -6890.6031   -594.55597     102002.7      46.7237      46.7237      46.7237 
  120000    106.55124   -7491.2272    -6912.226   -574.40231     102002.7      46.7237      46.7237      46.7237 
  121000    109.33664   -7489.0342   -6894.8971   -599.30125     102002.7      46.7237      46.7237      46.7237 
  122000    113.92421    -7490.368    -6871.302   -448.07567     102002.7      46.7237      46.7237      46.7237 
  123000    107.57848   -7486.8356   -6902.2524   -532.86298     102002.7      46.7237      46.7237      46.7237 
  124000    110.31153    -7486.523   -6887.0883   -776.38833     102002.7      46.7237      46.7237      46.7237 
  125000    112.55911   -7479.4124   -6867.7643   -755.96396     102002.7      46.7237      46.7237      46.7237 
  126000    113.01102   -7486.0719   -6871.9681   -524.53755     102002.7      46.7237      46.7237      46.7237 
  127000     110.6959   -7469.5508   -6868.0274   -661.18605     102002.7      46.7237      46.7237      46.7237 
  128000    110.28653   -7487.5213   -6888.2224   -666.52816     102002.7      46.7237      46.7237      46.7237 
  129000    107.78266    -7477.532   -6891.8393   -636.76913     102002.7      46.7237      46.7237      46.7237 
  130000    109.09185    -7461.033    -6868.226   -368.25008     102002.7      46.7237      46.7237      46.7237 
  131000     108.3973   -7476.5181   -6887.4854   -516.84866     102002.7      46.7237      46.7237      46.7237 
  132000    104.30651   -7487.9205   -6921.1172   -644.12845     102002.7      46.7237      46.7237      46.7237 
  133000    112.73452   -7506.1575   -6893.5562   -357.00909     102002.7      46.7237      46.7237      46.7237 
  134000    113.29309   -7501.0177   -6885.3812   -386.61275     102002.7      46.7237      46.7237      46.7237 
  135000    114.51095   -7494.2194    -6871.965   -459.74316     102002.7      46.7237      46.7237      46.7237 
  136000    109.95246   -7491.3326   -6893.8491   -131.12439     102002.7      46.7237      46.7237      46.7237 
  137000    111.92918   -7487.4245   -6879.1994   -520.02646     102002.7      46.7237      46.7237      46.7237 
  138000    107.79892   -7486.9418   -6901.1607   -369.08447     102002.7      46.7237      46.7237      46.7237 
  139000     111.6191    -7481.091   -6874.5509   -415.12479     102002.7      46.7237      46.7237      46.7237 
  140000    107.79808    -7483.749   -6897.9725   -288.27936     102002.7      46.7237      46.7237      46.7237 
  141000    112.46223   -7495.5081   -6884.3864   -745.07465     102002.7      46.7237      46.7237      46.7237 
  142000    109.84256   -7491.2042   -6894.3179   -617.53393     102002.7      46.7237      46.7237      46.7237 
  143000    106.20238   -7481.5961   -6904.4906   -749.11071     102002.7      46.7237      46.7237      46.7237 
  144000    114.34429   -7474.7881   -6853.4393   -651.09551     102002.7      46.7237      46.7237      46.7237 
  145000    107.86918   -7472.2905   -6886.1276   -634.57965     102002.7      46.7237      46.7237      46.7237 
  146000    111.06867   -7472.9541   -6869.4051    -737.7293     102002.7      46.7237      46.7237      46.7237 
  147000    111.55584   -7495.1969   -6889.0006   -496.10665     102002.7      46.7237      46.7237      46.7237 
  148000    109.75105   -7492.7914   -6896.4024   -615.34793     102002.7      46.7237      46.7237      46.7237 
  149000    105.04217   -7476.7307   -6905.9297   -621.45173     102002.7      46.7237      46.7237      46.7237 
  150000    109.37224    -7483.831   -6889.5004   -739.32006     102002.7      46.7237      46.7237      46.7237 
  151000    109.58972   -7479.1025   -6883.5901   -699.28413     102002.7      46.7237      46.7237      46.7237 
  152000    109.63202     -7502.02   -6906.2778   -380.33532     102002.7      46.7237      46.7237      46.7237 
  153000    110.91052    -7500.857   -6898.1673   -655.66058     102002.7      46.7237      46.7237      46.7237 
  154000    109.86271   -7484.1125   -6887.1167   -756.82435     102002.7      46.7237      46.7237      46.7237 
  155000    110.21569   -7487.8039     -6888.89   -788.99726     102002.7      46.7237      46.7237      46.7237 
  156000    110.15157   -7501.6273   -6903.0618   -741.36356     102002.7      46.7237      46.7237      46.7237 
  157000    111.67271   -7491.3857   -6884.5543   -643.26356     102002.7      46.7237      46.7237      46.7237 
  158000     107.9421   -7475.7571   -6889.1979    -459.7346     102002.7      46.7237      46.7237      46.7237 
  159000    111.34199   -7472.3853    -6867.351   -130.58561     102002.7      46.7237      46.7237      46.7237 
  160000    110.86356   -7505.2958   -6902.8613   -490.77089     102002.7      46.7237      46.7237      46.7237 
  161000    114.91242   -7472.7707   -6848.3347   -276.90659     102002.7      46.7237      46.7237      46.7237 
  162000    112.21088   -7499.1543   -6889.3985   -342.02759     102002.7      46.7237      46.7237      46.7237 
  163000    111.24595   -7476.6245   -6872.1121   -364.04642     102002.7      46.7237      46.7237      46.7237 
  164000    109.16734   -7475.1451   -6881.9279   -689.80227     102002.7      46.7237      46.7237      46.7237 
  165000    108.09382    -7498.838   -6911.4543   -462.74438     102002.7      46.7237      46.7237      46.7237 
  166000     111.5742   -7488.6993   -6882.4033    -277.8177     102002.7      46.7237      46.7237      46.7237 
  167000    108.63327   -7484.5096   -6894.1946   -591.93218     102002.7      46.7237      46.7237      46.7237 
  168000    108.68562   -7479.7856   -6889.1861   -690.10875     102002.7      46.7237      46.7237      46.7237 
  169000    114.29697    -7496.158   -6875.0664   -522.20218     102002.7      46.7237      46.7237      46.7237 
  170000    110.03641   -7473.1469   -6875.2072   -610.52684     102002.7      46.7237      46.7237      46.7237 
  171000    111.22155   -7492.7384   -6888.3586   -777.38122     102002.7      46.7237      46.7237      46.7237 
  172000    108.52515   -7488.7173   -6898.9898   -917.79753     102002.7      46.7237      46.7237      46.7237 
  173000     114.3168   -7494.7777   -6873.5783   -625.18282     102002.7      46.7237      46.7237      46.7237 
  174000    109.86851   -7484.2889   -6887.2616    -581.3419     102002.7      46.7237      46.7237      46.7237 
  175000    110.60227   -7491.4155   -6890.4009   -414.55943     102002.7      46.7237      46.7237      46.7237 
  176000    109.65549    -7493.727   -6897.8572   -699.79506     102002.7      46.7237      46.7237      46.7237 
  177000    114.43561   -7489.3008   -6867.4557   -641.54668     102002.7      46.7237      46.7237      46.7237 
  178000    110.55641   -7500.8053     -6900.04   -158.47444     102002.7      46.7237      46.7237      46.7237 
  179000    113.68697   -7492.1031   -6874.3262   -673.33773     102002.7      46.7237      46.7237      46.7237 
  180000    107.03974   -7493.2362   -6911.5805   -492.48631     102002.7      46.7237      46.7237      46.7237 
  181000    109.21973   -7492.6318     -6899.13    -360.2242     102002.7      46.7237      46.7237      46.7237 
  182000    107.52576   -7468.6927   -6884.3959    -513.5373     102002.7      46.7237      46.7237      46.7237 
  183000    107.22478   -7494.6588   -6911.9976    -494.7603     102002.7      46.7237      46.7237      46.7237 
  184000    109.97284   -7509.5846   -6911.9904    -572.7213     102002.7      46.7237      46.7237      46.7237 
  185000    111.97654   -7483.7115   -6875.2291    -1035.176     102002.7      46.7237      46.7237      46.7237 
  186000    111.48509   -7501.5716   -6895.7598   -216.61659     102002.7      46.7237      46.7237      46.7237 
  187000    110.64334   -7491.9529   -6890.7152   -492.04031     102002.7      46.7237      46.7237      46.7237 
  188000    110.05832   -7466.3223   -6868.2636   -662.91263     102002.7      46.7237      46.7237      46.7237 
  189000     111.7775   -7497.8566   -6890.4558   -823.59841     102002.7      46.7237      46.7237      46.7237 
  190000    109.27841   -7477.8964   -6884.0757    -674.4164     102002.7      46.7237      46.7237      46.7237 
  191000    113.24167   -7492.3354   -6876.9782   -359.54104     102002.7      46.7237      46.7237      46.7237 
  192000    109.55128   -7495.3248   -6900.0213   -885.01034     102002.7      46.7237      46.7237      46.7237 
  193000    110.69773   -7486.5449   -6885.0116   -501.09973     102002.7      46.7237      46.7237      46.7237 
  194000     107.6504   -7488.8498   -6903.8757   -590.79605     102002.7      46.7237      46.7237      46.7237 
  195000    111.62857   -7497.3941   -6890.8026   -590.43757     102002.7      46.7237      46.7237      46.7237 
  196000    110.96432   -7468.2055   -6865.2235   -365.88344     102002.7      46.7237      46.7237      46.7237 
  197000    111.96633   -7490.4985   -6882.0716   -612.44207     102002.7      46.7237      46.7237      46.7237 
  198000    107.58948   -7497.7726   -6913.1296   -470.77539     102002.7      46.7237      46.7237      46.7237 
  199000    110.58394   -7464.0307   -6863.1157   -822.13679     102002.7      46.7237      46.7237      46.7237 
  200000    105.80273   -7481.1868   -6906.2529   -374.02803     102002.7      46.7237      46.7237      46.7237 
  201000    108.65777    -7472.405   -6881.9569   -358.13633     102002.7      46.7237      46.7237      46.7237 
  202000     114.6572   -7484.6513   -6861.6022   -616.55331     102002.7      46.7237      46.7237      46.7237 
  203000     113.9812   -7508.3159   -6888.9402   -685.51222     102002.7      46.7237      46.7237      46.7237 
  204000     109.1106   -7477.0487   -6884.1398   -514.95358     102002.7      46.7237      46.7237      46.7237 
  205000     113.6465   -7494.3484   -6876.7914   -688.78817     102002.7      46.7237      46.7237      46.7237 
  206000    110.19504   -7485.8271   -6887.0255   -707.69669     102002.7      46.7237      46.7237      46.7237 
  207000    108.93483   -7497.0718   -6905.1181   -783.49549     102002.7      46.7237      46.7237      46.7237 
  208000    108.03323   -7497.3134    -6910.259   -496.63893     102002.7      46.7237      46.7237      46.7237 
  209000    111.23823   -7481.6527   -6877.1823   -741.86299     102002.7      46.7237      46.7237      46.7237 
  210000    110.31235    -7481.404   -6881.9648   -646.74557     102002.7      46.7237      46.7237      46.7237 
  211000    105.47468   -7488.8943   -6915.7431   -471.70311     102002.7      46.7237      46.7237      46.7237 
  212000    110.57639   -7473.7572   -6872.8833   -557.88789     102002.7      46.7237      46.7237      46.7237 
  213000    111.39695   -7490.9373   -6885.6044   -540.55274     102002.7      46.7237      46.7237      46.7237 
  214000    109.57412   -7494.7901   -6899.3624   -752.18851     102002.7      46.7237      46.7237      46.7237 
  215000    105.72585   -7484.9716   -6910.4555   -613.76978     102002.7      46.7237      46.7237      46.7237 
  216000      111.316   -7482.9387   -6878.0457   -405.05733     102002.7      46.7237      46.7237      46.7237 
  217000    111.80198    -7467.469   -6859.9352    -510.4665     102002.7      46.7237      46.7237      46.7237 
  218000    109.29839   -7487.6149   -6893.6856   -489.22827     102002.7      46.7237      46.7237      46.7237 
  219000    114.56858   -7505.0564   -6882.4889   -904.31664     102002.7      46.7237      46.7237      46.7237 
  220000    114.27867   -7489.1141   -6868.1219   -706.24033     102002.7      46.7237      46.7237      46.7237 
  221000     109.1123   -7484.9382   -6892.0201   -592.79749     102002.7      46.7237      46.7237      46.7237 
  222000    107.28745   -7472.1025   -6889.1007   -644.18419     102002.7      46.7237      46.7237      46.7237 
  223000     108.8878   -7490.4933   -6898.7952   -555.13111     102002.7      46.7237      46.7237      46.7237 
  224000    107.32123   -7491.1489   -6907.9635   -729.73072     102002.7      46.7237      46.7237      46.7237 
  225000    113.89969   -7487.9025   -6868.9697   -534.65413     102002.7      46.7237      46.7237      46.7237 
  226000    111.77774   -7480.9356   -6873.5334   -346.64174     102002.7      46.7237      46.7237      46.7237 
  227000    108.11657   -7489.5684   -6902.0611   -634.34837     102002.7      46.7237      46.7237      46.7237 
  228000    114.66322   -7485.8448   -6862.7629   -548.18023     102002.7      46.7237      46.7237      46.7237 
  229000    109.67214    -7499.681   -6903.7207   -515.15451     102002.7      46.7237      46.7237      46.7237 
  230000    110.22543   -7466.1877   -6867.2209   -331.29458     102002.7      46.7237      46.7237      46.7237 
  231000    110.84794   -7484.8413   -6882.4917   -730.34665     102002.7      46.7237      46.7237      46.7237 
  232000    110.04318   -7512.2133   -6914.2368   -636.24855     102002.7      46.7237      46.7237      46.7237 
  233000    110.88714   -7496.5805   -6894.0179    -378.3083     102002.7      46.7237      46.7237      46.7237 
  234000    108.35649   -7499.6581   -6910.8471   -659.80255     102002.7      46.7237      46.7237      46.7237 
  235000    108.94909   -7466.6016   -6874.5704   -659.09275     102002.7      46.7237      46.7237      46.7237 
  236000    111.77715   -7486.0815   -6878.6826   -530.66223     102002.7      46.7237      46.7237      46.7237 
  237000    108.18251   -7488.0978   -6900.2322   -666.97478     102002.7      46.7237      46.7237      46.7237 
  238000    111.56951   -7474.7741   -6868.5035   -636.56127     102002.7      46.7237      46.7237      46.7237 
  239000    107.53789   -7480.1835   -6895.8208   -555.11436     102002.7      46.7237      46.7237      46.7237 
  240000    110.11086   -7493.0919   -6894.7477   -724.32692     102002.7      46.7237      46.7237      46.7237 
  241000    110.96903   -7473.5702   -6870.5626   -662.45252     102002.7      46.7237      46.7237      46.7237 
  242000    109.28783   -7469.4563   -6875.5844   -792.76715     102002.7      46.7237      46.7237      46.7237 
  243000     109.7384   -7498.5792   -6902.2589   -318.76794     102002.7      46.7237      46.7237      46.7237 
  244000    110.53208   -7479.2138   -6878.5807   -612.85753     102002.7      46.7237      46.7237      46.7237 
  245000    108.35622   -7488.8981   -6900.0886   -513.62696     102002.7      46.7237      46.7237      46.7237 
  246000    112.62822   -7488.5326   -6876.5089   -742.68872     102002.7      46.7237      46.7237      46.7237 
  247000    112.22632   -7480.5942   -6870.7546   -683.53806     102002.7      46.7237      46.7237      46.7237 
  248000    110.74091   -7494.6914   -6892.9234   -550.46088     102002.7      46.7237      46.7237      46.7237 
  249000     112.0802   -7478.6175   -6869.5718   -595.57117     102002.7      46.7237      46.7237      46.7237 
  250000    113.29437    -7484.877   -6869.2335   -539.66928     102002.7      46.7237      46.7237      46.7237 
  251000    106.70769   -7495.7701   -6915.9188   -591.38085     102002.7      46.7237      46.7237      46.7237 
  252000    110.75278   -7479.6017   -6877.7692   -712.78682     102002.7      46.7237      46.7237      46.7237 
  253000    105.41982   -7483.6049   -6910.7519   -320.28364     102002.7      46.7237      46.7237      46.7237 
  254000    110.73018   -7490.8471   -6889.1374   -395.26345     102002.7      46.7237      46.7237      46.7237 
  255000    110.34386    -7503.285   -6903.6746   -653.78151     102002.7      46.7237      46.7237      46.7237 
  256000    111.87018   -7484.3278   -6876.4234   -657.99187     102002.7      46.7237      46.7237      46.7237 
  257000    112.11591   -7505.1025   -6895.8628   -494.80128     102002.7      46.7237      46.7237      46.7237 
  258000    111.57029   -7483.9697   -6877.6949   -446.67736     102002.7      46.7237      46.7237      46.7237 
  259000    112.45094   -7475.4805   -6864.4202   -660.12076     102002.7      46.7237      46.7237      46.7237 
  260000    111.17464   -7501.9393   -6897.8144   -821.46126     102002.7      46.7237      46.7237      46.7237 
  261000    107.78926   -7491.4063   -6905.6776   -574.81206     102002.7      46.7237      46.7237      46.7237 
  262000    109.74435   -7486.4297   -6890.0771   -458.95482     102002.7      46.7237      46.7237      46.7237 
  263000    111.71151   -7492.2468   -6885.2046   -819.23983     102002.7      46.7237      46.7237      46.7237 
  264000    110.67815   -7470.5518   -6869.1249   -574.01413     102002.7      46.7237      46.7237      46.7237 
  265000    109.65039   -7491.5844   -6895.7424   -554.71183     102002.7      46.7237      46.7237      46.7237 
  266000    107.43186   -7477.6887   -6893.9022   -398.35436     102002.7      46.7237      46.7237      46.7237 
  267000    109.30941   -7505.7803   -6911.7912   -389.91525     102002.7      46.7237      46.7237      46.7237 
  268000    110.91742   -7494.5609   -6891.8338   -676.88242     102002.7      46.7237      46.7237      46.7237 
  269000    115.42446   -7496.6742   -6869.4558   -389.77113     102002.7      46.7237      46.7237      46.7237 
  270000    107.50411   -7480.3151   -6896.1359   -493.00791     102002.7      46.7237      46.7237      46.7237 
  271000    110.16241   -7477.3178   -6878.6934   -965.19876     102002.7      46.7237      46.7237      46.7237 
  272000     111.2435   -7502.3771    -6897.878    -1086.224     102002.7      46.7237      46.7237      46.7237 
  273000     109.8407   -7493.9603   -6897.0841   -689.40895     102002.7      46.7237      46.7237      46.7237 
  274000    111.93499   -7495.4054   -6887.1488   -758.79343     102002.7      46.7237      46.7237      46.7237 
  275000     109.3821   -7454.7952   -6860.4111   -749.04351     102002.7      46.7237      46.7237      46.7237 
  276000    112.29901   -7498.7462   -6888.5115   -593.12263     102002.7      46.7237      46.7237      46.7237 
  277000     110.3461   -7475.8174   -6876.1949   -441.28657     102002.7      46.7237      46.7237      46.7237 
  278000    111.72519   -7496.4145   -6889.2979   -417.65727     102002.7      46.7237      46.7237      46.7237 
  279000    106.64741   -7494.0557   -6914.5319   -559.00719     102002.7      46.7237      46.7237      46.7237 
  280000    108.68281   -7487.8268   -6897.2426   -479.03803     102002.7      46.7237      46.7237      46.7237 
  281000    110.86895    -7508.139   -6905.6752   -217.89591     102002.7      46.7237      46.7237      46.7237 
  282000    110.24822     -7484.38   -6885.2893   -633.77432     102002.7      46.7237      46.7237      46.7237 
  283000    111.69747   -7467.4329    -6860.467   -479.56007     102002.7      46.7237      46.7237      46.7237 
  284000    108.46225      -7491.6   -6902.2144   -245.70376     102002.7      46.7237      46.7237      46.7237 
  285000    107.48831   -7498.0616   -6913.9684   -609.34341     102002.7      46.7237      46.7237      46.7237 
  286000     111.4872   -7498.2619   -6892.4386   -688.62265     102002.7      46.7237      46.7237      46.7237 
  287000    109.14276   -7488.9995   -6895.9159   -812.09927     102002.7      46.7237      46.7237      46.7237 
  288000    111.29164   -7498.8854   -6894.1247   -594.08723     102002.7      46.7237      46.7237      46.7237 
  289000    109.63909   -7481.5724   -6885.7918   -611.87419     102002.7      46.7237      46.7237      46.7237 
  290000    105.07944   -7486.0028   -6914.9994   -806.94047     102002.7      46.7237      46.7237      46.7237 
  291000    112.38726   -7488.2316   -6877.5173   -486.39541     102002.7      46.7237      46.7237      46.7237 
  292000    106.53646    -7497.094   -6918.1731   -626.49107     102002.7      46.7237      46.7237      46.7237 
  293000    111.24893   -7497.4738   -6892.9452   -578.05376     102002.7      46.7237      46.7237      46.7237 
  294000     112.3337   -7495.1199   -6884.6967   -950.69361     102002.7      46.7237      46.7237      46.7237 
  295000    109.59036   -7480.5654   -6885.0495   -620.23083     102002.7      46.7237      46.7237      46.7237 
  296000    108.06828   -7479.5974   -6892.3526   -636.52467     102002.7      46.7237      46.7237      46.7237 
  297000    113.17412   -7507.2091    -6892.219   -448.09048     102002.7      46.7237      46.7237      46.7237 
  298000    111.34465   -7490.2349   -6885.1862   -643.58048     102002.7      46.7237      46.7237      46.7237 
  299000    110.49106   -7498.1774   -6897.7671   -805.48972     102002.7      46.7237      46.7237      46.7237 
  300000    109.13848    -7495.123   -6902.0627    -500.9139     102002.7      46.7237      46.7237      46.7237 
  301000    109.61847   -7489.5195   -6893.8509   -637.81371     102002.7      46.7237      46.7237      46.7237 
  302000    110.17785    -7494.462   -6895.7537   -560.41109     102002.7      46.7237      46.7237      46.7237 
  303000    110.86552   -7499.0348   -6896.5897   -697.13458     102002.7      46.7237      46.7237      46.7237 
  304000    111.86054   -7492.8484   -6884.9964    -369.8066     102002.7      46.7237      46.7237      46.7237 
  305000    113.26648   -7480.9013   -6865.4093   -447.16051     102002.7      46.7237      46.7237      46.7237 
  306000    105.56277   -7481.6826   -6908.0528   -758.80925     102002.7      46.7237      46.7237      46.7237 
  307000    111.62447   -7492.1209   -6885.5517   -649.12031     102002.7      46.7237      46.7237      46.7237 
  308000    106.59741   -7475.8436   -6896.5914   -496.58297     102002.7      46.7237      46.7237      46.7237 
  309000    110.32766   -7496.8768   -6897.3545   -568.51506     102002.7      46.7237      46.7237      46.7237 
  310000    108.60778   -7499.2186   -6909.0421   -437.01638     102002.7      46.7237      46.7237      46.7237 
  311000    109.55438   -7466.3282   -6871.0078    -532.8037     102002.7      46.7237      46.7237      46.7237 
  312000    108.22888   -7495.6027   -6907.4852   -388.21169     102002.7      46.7237      46.7237      46.7237 
  313000     109.5715   -7503.5632   -6908.1499   -712.52697     102002.7      46.7237      46.7237      46.7237 
  314000    110.92677   -7480.8865   -6878.1086   -647.56938     102002.7      46.7237      46.7237      46.7237 
  315000    106.17984   -7485.5133   -6908.5303    -732.8894     102002.7      46.7237      46.7237      46.7237 
  316000     113.1753   -7498.9895    -6883.993   -717.56227     102002.7      46.7237      46.7237      46.7237 
  317000    113.05107   -7473.7543   -6859.4329   -871.94133     102002.7      46.7237      46.7237      46.7237 
  318000    108.35591   -7489.1486   -6900.3408   -546.78169     102002.7      46.7237      46.7237      46.7237 
  319000    110.50279   -7495.8929   -6895.4189   -464.17779     102002.7      46.7237      46.7237      46.7237 
  320000    111.50229   -7491.5715   -6885.6662    -544.0071     102002.7      46.7237      46.7237      46.7237 
  321000    107.09562   -7481.1164    -6899.157   -370.15245     102002.7      46.7237      46.7237      46.7237 
  322000    108.96574   -7490.8234   -6898.7018   -395.33666     102002.7      46.7237      46.7237      46.7237 
  323000    113.36597   -7496.5437   -6880.5112    -867.3113     102002.7      46.7237      46.7237      46.7237 
  324000    108.66885   -7489.1298   -6898.6214   -436.88436     102002.7      46.7237      46.7237      46.7237 
  325000    111.47401   -7502.2277   -6896.4761    -478.1282     102002.7      46.7237      46.7237      46.7237 
  326000    111.78458   -7478.2235   -6870.7842   -545.59928     102002.7      46.7237      46.7237      46.7237 
  327000    113.02332   -7485.5841   -6871.4135   -490.73673     102002.7      46.7237      46.7237      46.7237 
  328000    111.40156   -7497.2107   -6891.8527   -798.83584     102002.7      46.7237      46.7237      46.7237 
  329000    108.50429   -7496.8461   -6907.2319    -429.4419     102002.7      46.7237      46.7237      46.7237 
  330000    111.51458   -7480.9083   -6874.9363      -618.36     102002.7      46.7237      46.7237      46.7237 
  331000    110.70983   -7501.1587   -6899.5596   -733.20791     102002.7      46.7237      46.7237      46.7237 
  332000    108.09915   -7477.6238   -6890.2112   -556.26087     102002.7      46.7237      46.7237      46.7237 
  333000    114.64382   -7488.7552   -6865.7788   -488.01432     102002.7      46.7237      46.7237      46.7237 
  334000    108.39487   -7483.4923   -6894.4728   -469.14978     102002.7      46.7237      46.7237      46.7237 
  335000    111.28775    -7480.624   -6875.8845   -639.37891     102002.7      46.7237      46.7237      46.7237 
  336000    109.95397   -7481.8055   -6884.3138   -252.07184     102002.7      46.7237      46.7237      46.7237 
  337000    109.95779   -7495.5799   -6898.0674   -462.05508     102002.7      46.7237      46.7237      46.7237 
  338000    108.54723   -7499.2829   -6909.4354   -232.38491     102002.7      46.7237      46.7237      46.7237 
  339000    111.51231   -7491.4613   -6885.5015   -603.23686     102002.7      46.7237      46.7237      46.7237 
  340000    107.43227    -7493.518   -6909.7292   -535.40384     102002.7      46.7237      46.7237      46.7237 
  341000    109.75556   -7484.7994   -6888.3858   -339.17623     102002.7      46.7237      46.7237      46.7237 
  342000    108.00935   -7487.6603   -6900.7357   -828.74344     102002.7      46.7237      46.7237      46.7237 
  343000    111.46117   -7471.3801   -6865.6983    -682.1264     102002.7      46.7237      46.7237      46.7237 
  344000     111.6854   -7485.4884   -6878.5881   -782.93352     102002.7      46.7237      46.7237      46.7237 
  345000    110.29233   -7501.3038   -6901.9735   -747.80096     102002.7      46.7237      46.7237      46.7237 
  346000    114.10898   -7482.3382   -6862.2681   -477.59859     102002.7      46.7237      46.7237      46.7237 
  347000    112.40646   -7491.4119   -6880.5933   -608.94269     102002.7      46.7237      46.7237      46.7237 
  348000     109.2447   -7492.6237   -6898.9861   -743.87912     102002.7      46.7237      46.7237      46.7237 
  349000    111.10016   -7497.8266   -6894.1065   -616.55214     102002.7      46.7237      46.7237      46.7237 
  350000    113.66923     -7502.44   -6884.7595   -678.25289     102002.7      46.7237      46.7237      46.7237 
  351000    109.91968    -7497.462   -6900.1567    -430.9872     102002.7      46.7237      46.7237      46.7237 
  352000    113.04854   -7499.8722   -6885.5646   -743.10941     102002.7      46.7237      46.7237      46.7237 
  353000     110.1558   -7482.7672   -6884.1787   -660.36011     102002.7      46.7237      46.7237      46.7237 
  354000    110.11973   -7493.2552   -6894.8627   -581.32531     102002.7      46.7237      46.7237      46.7237 
  355000    112.17981   -7487.1616   -6877.5746   -561.06156     102002.7      46.7237      46.7237      46.7237 
  356000    109.92706   -7515.4197   -6918.0743   -701.43359     102002.7      46.7237      46.7237      46.7237 
  357000    109.35865   -7496.0721   -6901.8154   -703.53989     102002.7      46.7237      46.7237      46.7237 
  358000    111.16274   -7461.1153   -6857.0551   -805.15577     102002.7      46.7237      46.7237      46.7237 
  359000       108.51   -7481.3659   -6891.7208   -691.39925     102002.7      46.7237      46.7237      46.7237 
  360000    107.06482   -7506.6274   -6924.8354   -630.01329     102002.7      46.7237      46.7237      46.7237 
  361000    110.59723   -7474.4975   -6873.5103   -745.37966     102002.7      46.7237      46.7237      46.7237 
  362000    108.87003   -7482.0595   -6890.4579   -656.70696     102002.7      46.7237      46.7237      46.7237 
  363000    108.73761   -7492.7813   -6901.8993   -647.59172     102002.7      46.7237      46.7237      46.7237 
  364000    109.05946   -7485.4833   -6892.8524   -454.19819     102002.7      46.7237      46.7237      46.7237 
  365000    112.57379    -7494.593   -6882.8651   -480.08971     102002.7      46.7237      46.7237      46.7237 
  366000    106.39238   -7500.3645   -6922.2265   -385.36962     102002.7      46.7237      46.7237      46.7237 
  367000    110.16692   -7500.4465   -6901.7976   -654.73028     102002.7      46.7237      46.7237      46.7237 
  368000    109.15822   -7461.0574   -6867.8899   -545.49261     102002.7      46.7237      46.7237      46.7237 
  369000     111.9135   -7499.4522   -6891.3123   -333.89498     102002.7      46.7237      46.7237      46.7237 
  370000    110.99047   -7487.7653   -6884.6413   -635.02469     102002.7      46.7237      46.7237      46.7237 
  371000    109.46702   -7484.2822   -6889.4365    -552.2846     102002.7      46.7237      46.7237      46.7237 
  372000     110.5674   -7503.7526   -6902.9275   -310.08058     102002.7      46.7237      46.7237      46.7237 
  373000     107.9879   -7493.3051    -6906.497   -629.78048     102002.7      46.7237      46.7237      46.7237 
  374000    107.60498   -7470.4151   -6885.6879   -556.22188     102002.7      46.7237      46.7237      46.7237 
  375000    109.34705    -7486.451   -6892.2573    -740.3127     102002.7      46.7237      46.7237      46.7237 
  376000    111.15394   -7485.0982   -6881.0858   -483.89336     102002.7      46.7237      46.7237      46.7237 
  377000    107.33303    -7477.009   -6893.7596   -456.56545     102002.7      46.7237      46.7237      46.7237 
  378000    107.73609    -7499.869   -6914.4292   -806.79044     102002.7      46.7237      46.7237      46.7237 
  379000    106.19416   -7476.6246   -6899.5638    -602.0665     102002.7      46.7237      46.7237      46.7237 
  380000    113.88645   -7475.6851   -6856.8242   -459.77923     102002.7      46.7237      46.7237      46.7237 
  381000    109.03922   -7493.3481   -6900.8271    -535.5184     102002.7      46.7237      46.7237      46.7237 
  382000    110.65811   -7467.4867   -6866.1687    -720.2821     102002.7      46.7237      46.7237      46.7237 
  383000    111.46449   -7475.6575   -6869.9576   -631.47615     102002.7      46.7237      46.7237      46.7237 
  384000    108.41501   -7479.2664   -6890.1374   -541.35925     102002.7      46.7237      46.7237      46.7237 
  385000    108.68318   -7499.4317   -6908.8455   -729.87269     102002.7      46.7237      46.7237      46.7237 
  386000    107.98756   -7497.0737   -6910.2675   -478.08491     102002.7      46.7237      46.7237      46.7237 
  387000    110.68477   -7491.0186   -6889.5556   -736.99661     102002.7      46.7237      46.7237      46.7237 
  388000    109.73004    -7487.272   -6890.9971   -542.70799     102002.7      46.7237      46.7237      46.7237 
  389000    110.00951   -7479.0781   -6881.2846   -941.54384     102002.7      46.7237      46.7237      46.7237 
  390000    114.82011   -7508.7414    -6884.807   -576.66601     102002.7      46.7237      46.7237      46.7237 
  391000    111.23959   -7484.9569   -6880.4791   -665.49855     102002.7      46.7237      46.7237      46.7237 
  392000    110.75012   -7498.6916   -6896.8736   -662.27624     102002.7      46.7237      46.7237      46.7237 
  393000    112.92523   -7470.4492   -6856.8116   -425.19256     102002.7      46.7237      46.7237      46.7237 
  394000    110.58436   -7495.6469   -6894.7296   -766.13813     102002.7      46.7237      46.7237      46.7237 
  395000    108.36729    -7473.465   -6884.5954   -922.34593     102002.7      46.7237      46.7237      46.7237 
  396000    110.14851   -7503.4855   -6904.9366   -524.37635     102002.7      46.7237      46.7237      46.7237 
  397000     107.5867   -7489.6415   -6905.0135   -410.33589     102002.7      46.7237      46.7237      46.7237 
  398000    109.51587   -7481.9897   -6886.8786    -241.5853     102002.7      46.7237      46.7237      46.7237 
  399000    113.54713   -7497.3686   -6880.3515   -681.41676     102002.7      46.7237      46.7237      46.7237 
  400000    111.83613   -7501.7822   -6894.0628   -447.58786     102002.7      46.7237      46.7237      46.7237 
  401000    107.76833     -7475.68   -6890.0651    -54.24251     102002.7      46.7237      46.7237      46.7237 
  402000    110.07658   -7466.2195   -6868.0615   -511.70322     102002.7      46.7237      46.7237      46.7237 
  403000    110.07475   -7501.5019   -6903.3539   -354.98784     102002.7      46.7237      46.7237      46.7237 
  404000    110.70595   -7473.0333   -6871.4553   -451.17493     102002.7      46.7237      46.7237      46.7237 
  405000    107.96343   -7493.7039   -6907.0288   -559.40225     102002.7      46.7237      46.7237      46.7237 
  406000    107.43823   -7472.4647   -6888.6436   -552.11724     102002.7      46.7237      46.7237      46.7237 
  407000    111.58089   -7475.9364    -6869.604    -245.7805     102002.7      46.7237      46.7237      46.7237 
  408000    108.55065   -7498.5843   -6908.7182   -410.60472     102002.7      46.7237      46.7237      46.7237 
  409000    109.93126   -7486.0347   -6888.6664   -867.76158     102002.7      46.7237      46.7237      46.7237 
  410000    110.90551   -7508.7591   -6906.0967   -782.00298     102002.7      46.7237      46.7237      46.7237 
  411000    113.32504   -7488.2703   -6872.4601    -1018.438     102002.7      46.7237      46.7237      46.7237 
  412000    111.09489   -7504.5431   -6900.8516   -401.44685     102002.7      46.7237      46.7237      46.7237 
  413000     112.1557   -7491.5736   -6882.1177   -665.18273     102002.7      46.7237      46.7237      46.7237 
  414000    104.83034   -7475.7054   -6906.0556   -594.09379     102002.7      46.7237      46.7237      46.7237 
  415000    112.01103   -7489.7255   -6881.0557   -648.36576     102002.7      46.7237      46.7237      46.7237 
  416000    111.61538   -7491.9579    -6885.438    -844.3642     102002.7      46.7237      46.7237      46.7237 
  417000     107.2797   -7505.8693   -6922.9096   -903.61128     102002.7      46.7237      46.7237      46.7237 
  418000    111.16759   -7482.6027   -6878.5161   -445.48784     102002.7      46.7237      46.7237      46.7237 
  419000    111.99673   -7488.6947   -6880.1025   -602.50386     102002.7      46.7237      46.7237      46.7237 
  420000    112.89693   -7516.9199   -6903.4361   -789.84735     102002.7      46.7237      46.7237      46.7237 
  421000    110.96083   -7492.4655   -6889.5025   -485.81767     102002.7      46.7237      46.7237      46.7237 
  422000     109.8317   -7493.5116   -6896.6843   -836.71351     102002.7      46.7237      46.7237      46.7237 
  423000    108.63156   -7493.7362   -6903.4305    -638.9604     102002.7      46.7237      46.7237      46.7237 
  424000    111.02145   -7478.2832   -6874.9908   -637.81586     102002.7      46.7237      46.7237      46.7237 
  425000       111.24   -7513.7718   -6909.2918   -769.07963     102002.7      46.7237      46.7237      46.7237 
  426000     111.4642   -7474.6785   -6868.9801   -776.85947     102002.7      46.7237      46.7237      46.7237 
  427000    108.49217   -7488.2956   -6898.7474   -595.65687     102002.7      46.7237      46.7237      46.7237 
  428000    108.91307   -7490.0494    -6898.214   -441.50948     102002.7      46.7237      46.7237      46.7237 
  429000    111.22169   -7491.4213   -6887.0408   -715.11612     102002.7      46.7237      46.7237      46.7237 
  430000    106.46191   -7495.2373   -6916.7215   -511.41948     102002.7      46.7237      46.7237      46.7237 
  431000    112.90822   -7492.8277   -6879.2825   -609.78275     102002.7      46.7237      46.7237      46.7237 
  432000    108.76551   -7496.8406   -6905.8069   -761.55478     102002.7      46.7237      46.7237      46.7237 
  433000    111.14104   -7483.0401   -6879.0979   -292.85213     102002.7      46.7237      46.7237      46.7237 
  434000    109.90227   -7517.5864   -6920.3757   -661.64998     102002.7      46.7237      46.7237      46.7237 
  435000    108.79464   -7472.7985   -6881.6066   -714.61064     102002.7      46.7237      46.7237      46.7237 
  436000    111.07035   -7494.0793   -6890.5211   -461.32534     102002.7      46.7237      46.7237      46.7237 
  437000    109.70961   -7477.9294   -6881.7655    -589.3972     102002.7      46.7237      46.7237      46.7237 
  438000    110.21583   -7481.2584   -6882.3438   -497.51526     102002.7      46.7237      46.7237      46.7237 
  439000    109.38027   -7489.6663   -6895.2921   -702.84197     102002.7      46.7237      46.7237      46.7237 
  440000    112.73363   -7477.5235   -6864.9271   -508.23025     102002.7      46.7237      46.7237      46.7237 
  441000    111.88741   -7488.5082   -6880.5101   -889.40914     102002.7      46.7237      46.7237      46.7237 
  442000     110.8959   -7500.0504   -6897.4402   -304.79912     102002.7      46.7237      46.7237      46.7237 
  443000    109.64849   -7479.4606   -6883.6289   -862.43784     102002.7      46.7237      46.7237      46.7237 
  444000     109.5407   -7488.2425   -6892.9965   -744.70249     102002.7      46.7237      46.7237      46.7237 
  445000    106.74361   -7480.6067   -6900.5601   -644.15844     102002.7      46.7237      46.7237      46.7237 
  446000     111.6432   -7472.1965   -6865.5255   -647.63006     102002.7      46.7237      46.7237      46.7237 
  447000    108.84925   -7473.8748   -6882.3862   -643.93499     102002.7      46.7237      46.7237      46.7237 
  448000    110.42395   -7491.0826   -6891.0371   -197.92873     102002.7      46.7237      46.7237      46.7237 
  449000    108.40601   -7478.5668   -6889.4867   -503.52485     102002.7      46.7237      46.7237      46.7237 
  450000    111.90206   -7492.3297    -6884.252   -551.12384     102002.7      46.7237      46.7237      46.7237 
  451000    116.36104   -7487.1907   -6854.8828   -696.93239     102002.7      46.7237      46.7237      46.7237 
  452000    108.71119   -7494.5579   -6903.8195   -621.38262     102002.7      46.7237      46.7237      46.7237 
  453000    107.65742   -7493.9501   -6908.9379   -662.83258     102002.7      46.7237      46.7237      46.7237 
  454000    108.20458   -7476.4937   -6888.5082   -556.52256     102002.7      46.7237      46.7237      46.7237 
  455000    106.63426   -7487.1133   -6907.6609   -414.06306     102002.7      46.7237      46.7237      46.7237 
  456000    112.73364   -7481.5314   -6868.9349   -473.52463     102002.7      46.7237      46.7237      46.7237 
  457000    106.95677   -7499.9315   -6918.7266   -633.34339     102002.7      46.7237      46.7237      46.7237 
  458000    111.20254   -7480.1301   -6875.8536   -661.26443     102002.7      46.7237      46.7237      46.7237 
  459000    107.99554   -7498.1213   -6911.2717   -374.02132     102002.7      46.7237      46.7237      46.7237 
  460000    109.35079   -7474.4463   -6880.2323   -614.02431     102002.7      46.7237      46.7237      46.7237 
  461000    113.35277   -7499.1715   -6883.2107   -408.57265     102002.7      46.7237      46.7237      46.7237 
  462000    107.31136    -7499.017   -6915.8853   -615.53965     102002.7      46.7237      46.7237      46.7237 
  463000    113.27293   -7508.3267   -6892.7997   -702.26928     102002.7      46.7237      46.7237      46.7237 
  464000    112.23526   -7496.2594   -6886.3711   -581.51726     102002.7      46.7237      46.7237      46.7237 
  465000    109.47152   -7456.1115   -6861.2415   -864.31784     102002.7      46.7237      46.7237      46.7237 
  466000    109.17583   -7495.6986   -6902.4353   -165.77935     102002.7      46.7237      46.7237      46.7237 
  467000    112.81733   -7492.4274   -6879.3761   -599.08812     102002.7      46.7237      46.7237      46.7237 
  468000    115.13666   -7489.2949   -6863.6403   -903.23089     102002.7      46.7237      46.7237      46.7237 
  469000    111.13261   -7501.7976   -6897.9011   -637.78819     102002.7      46.7237      46.7237      46.7237 
  470000    108.78555   -7488.2235    -6897.081   -497.75693     102002.7      46.7237      46.7237      46.7237 
  471000    112.45552   -7502.8173   -6891.7321   -673.38659     102002.7      46.7237      46.7237      46.7237 
  472000    112.06254   -7495.8253   -6886.8755   -550.71658     102002.7      46.7237      46.7237      46.7237 
  473000    109.42723   -7522.3513   -6927.7219   -409.02761     102002.7      46.7237      46.7237      46.7237 
  474000    111.66287   -7490.1114   -6883.3334   -558.48769     102002.7      46.7237      46.7237      46.7237 
  475000    111.09781   -7492.1715   -6888.4641   -589.71557     102002.7      46.7237      46.7237      46.7237 
  476000    110.97649   -7481.1597   -6878.1115   -467.95174     102002.7      46.7237      46.7237      46.7237 
  477000    107.01548   -7481.3351   -6899.8112   -600.01422     102002.7      46.7237      46.7237      46.7237 
  478000    108.96784   -7503.0835   -6910.9504   -336.06548     102002.7      46.7237      46.7237      46.7237 
  479000    112.95833   -7492.1074     -6878.29   -529.81509     102002.7      46.7237      46.7237      46.7237 
  480000    113.35475     -7482.46   -6866.4883   -694.31245     102002.7      46.7237      46.7237      46.7237 
  481000    107.10775   -7489.5566   -6907.5313   -549.50289     102002.7      46.7237      46.7237      46.7237 
  482000    110.68032   -7486.1686   -6884.7299   -599.22144     102002.7      46.7237      46.7237      46.7237 
  483000    110.87131   -7484.9356   -6882.4591   -636.74624     102002.7      46.7237      46.7237      46.7237 
  484000     109.9368   -7501.7878   -6904.3894   -660.41561     102002.7      46.7237      46.7237      46.7237 
  485000    112.28235   -7507.7226   -6897.5785   -580.04429     102002.7      46.7237      46.7237      46.7237 
  486000    111.91682   -7484.6924   -6876.5345   -583.22019     102002.7      46.7237      46.7237      46.7237 
  487000    109.45978   -7491.9571   -6897.1508    -678.7487     102002.7      46.7237      46.7237      46.7237 
  488000     109.6329   -7474.2286   -6878.4816   -1008.7948     102002.7      46.7237      46.7237      46.7237 
  489000    111.50401   -7487.1555   -6881.2408   -471.37679     102002.7      46.7237      46.7237      46.7237 
  490000    107.08295   -7474.4672   -6892.5766   -750.09763     102002.7      46.7237      46.7237      46.7237 
  491000    112.07754   -7485.5369   -6876.5056   -786.49261     102002.7      46.7237      46.7237      46.7237 
  492000    112.38945   -7471.6602   -6860.9341   -677.03999     102002.7      46.7237      46.7237      46.7237 
  493000    108.76266   -7483.3851    -6892.367   -620.15123     102002.7      46.7237      46.7237      46.7237 
  494000    113.98781   -7485.3195   -6865.9079   -681.00253     102002.7      46.7237      46.7237      46.7237 
  495000    106.91332   -7473.3362   -6892.3675   -978.85247     102002.7      46.7237      46.7237      46.7237 
  496000    108.81021   -7484.3687   -6893.0922   -724.80681     102002.7      46.7237      46.7237      46.7237 
  497000    110.77758   -7469.6386   -6867.6714   -625.03923     102002.7      46.7237      46.7237      46.7237 
  498000    112.64381   -7482.2389   -6870.1305   -404.76166     102002.7      46.7237      46.7237      46.7237 
  499000     109.2896   -7489.7447   -6895.8632   -559.63395     102002.7      46.7237      46.7237      46.7237 
  500000    106.29135   -7474.8449    -6897.256   -485.18818     102002.7      46.7237      46.7237      46.7237 
  500503    114.01531   -7492.4568   -6872.8957   -661.20928     102002.7      46.7237      46.7237      46.7237 
Loop time of 586.693 on 24 procs for 500000 steps with 1824 atoms

Performance: 73.633 ns/day, 0.326 hours/ns, 852.235 timesteps/s
99.9% CPU use with 24 MPI tasks x no OpenMP threads

MPI task timing breakdown:
Section |  min time  |  avg time  |  max time  |%varavg| %total
---------------------------------------------------------------
Pair    | 185.02     | 282.49     | 380.92     | 347.2 | 48.15
Bond    | 67.127     | 78.095     | 86.892     |  60.3 | 13.31
Neigh   | 2.4203     | 2.4447     | 2.4636     |   1.0 |  0.42
Comm    | 109.65     | 216.35     | 312.45     | 417.7 | 36.88
Output  | 0.34969    | 0.34999    | 0.35318    |   0.1 |  0.06
Modify  | 3.2994     | 3.9194     | 4.2957     |  14.1 |  0.67
Other   |            | 3.045      |            |       |  0.52

Nlocal:    76 ave 100 max 49 min
Histogram: 2 1 2 3 3 2 4 2 2 3
Nghost:    2070.96 ave 2240 max 1965 min
Histogram: 8 6 2 0 0 0 0 0 3 5
Neighs:    7650.58 ave 12692 max 2747 min
Histogram: 2 0 4 2 4 4 3 2 2 1

Total # of neighbors = 183614
Ave neighs/atom = 100.666
Ave special neighs/atom = 6.31579
Neighbor list builds = 4015
Dangerous builds = 0
Neighbor list info ...
  update every 1 steps, delay 10 steps, check yes
  max neighbors/atom: 2000, page size: 100000
  master list distance cutoff = 16
  ghost atom cutoff = 16
  binsize = 8, bins = 6 6 6
  3 neighbor lists, perpetual/occasional/extra = 3 0 0
  (1) pair buck6d/coul/gauss/dsf, perpetual, skip from (3)
      attributes: half, newton on
      pair build: skip
      stencil: none
      bin: none
  (2) pair lj/cut, perpetual, skip from (3)
      attributes: half, newton on
      pair build: skip
      stencil: none
      bin: none
  (3) neighbor class addition, perpetual
      attributes: half, newton on
      pair build: half/bin/newton
      stencil: half/bin/3d/newton
      bin: standard
Setting up Verlet run ...
  Unit style    : real
  Current step  : 500503
  Time step     : 1
WARNING: Inconsistent image flags (../domain.cpp:786)
Per MPI rank memory allocation (min/avg/max) = 24.13 | 24.47 | 24.58 Mbytes
Step Time TotEng KinEng PotEng E_mol E_pair Temp Pxx Pyy Pzz Pxy Pxz Pyz Cella Cellb Cellc CellAlpha CellBeta CellGamma Volume Press 
  500503       500000   -6872.8957    619.56111   -7492.4568    4264.1419   -11756.599    114.01531   -842.15268   -726.06458   -415.41057    48.103584   -159.68861   -142.85496      46.7237      46.7237      46.7237           90           90           90     102002.7   -661.20928 
  501000       500497   -6881.2948    601.64172   -7482.9365    4293.3202   -11776.257    110.71768     -691.338   -728.08546   -870.25353     201.2143   -147.34412   -132.49294      46.7237      46.7237      46.7237           90           90           90     102002.7   -763.22566 
  502000       501497   -6904.0061    595.77481   -7499.7809     4247.802   -11747.583    109.63802    -243.6637   -1320.3537   -506.90842   -23.158417   -63.894879    65.468772      46.7237      46.7237      46.7237           90           90           90     102002.7   -690.30859 
  503000       502497   -6896.1502    595.79852   -7491.9488    4262.6562   -11754.605    109.64238   -979.85845   -514.97145   -543.17147    27.883131    129.50475   -123.62289      46.7237      46.7237      46.7237           90           90           90     102002.7   -679.33379 
  504000       503497   -6908.1988    588.37147   -7496.5703    4273.3734   -11769.944    108.27561   -310.43568   -487.55514   -338.15433   -70.320024    186.97779    221.24461      46.7237      46.7237      46.7237           90           90           90     102002.7   -378.71505 
  505000       504497   -6897.7414    589.14992   -7486.8913    4274.1881   -11761.079    108.41886   -337.20295   -208.42539   -836.81323   -65.186562   -52.123501    136.30489      46.7237      46.7237      46.7237           90           90           90     102002.7   -460.81386 
  506000       505497   -6888.1154    595.06054   -7483.1759     4287.875   -11771.051    109.50657   -737.40199   -668.91269   -753.79986   -46.705594    200.59579    97.122018      46.7237      46.7237      46.7237           90           90           90     102002.7   -720.03818 
  507000       506497   -6914.4276     598.0159   -7512.4435    4259.9185   -11772.362    110.05043   -397.48087   -458.78267   -394.60641   -97.284829    96.706443   -119.88972      46.7237      46.7237      46.7237           90           90           90     102002.7   -416.95665 
  508000       507497   -6908.8091    596.18382   -7504.9929    4278.2924   -11783.285    109.71328   -55.909774   -564.70663   -1123.2469    19.839356   -224.44152    249.74199      46.7237      46.7237      46.7237           90           90           90     102002.7   -581.28777 
  509000       508497   -6896.1073    595.57184   -7491.6791    4262.6394   -11754.319    109.60066   -1189.5319   -951.07343   -481.68399   -191.25459   -104.44948    -174.2583      46.7237      46.7237      46.7237           90           90           90     102002.7   -874.09645 
  510000       509497   -6890.0988    581.70474   -7471.8035    4278.2305   -11750.034    107.04876   -752.02628   -453.87711   -665.06431   -325.67267   -80.935242   -60.872169      46.7237      46.7237      46.7237           90           90           90     102002.7    -623.6559 
  511000       510497   -6913.8996    581.80779   -7495.7074    4259.5525    -11755.26    107.06772   -567.54961   -471.85368   -669.42174   -133.72198  -0.77808033    125.10966      46.7237      46.7237      46.7237           90           90           90     102002.7   -569.60834 
  512000       511497    -6894.075    590.49319   -7484.5682     4285.275   -11769.843    108.66606   -792.67344   -196.47483   -576.50751   -64.620084    232.23823   -2.5354979      46.7237      46.7237      46.7237           90           90           90     102002.7   -521.88526 
  513000       512497   -6874.7081    599.50451   -7474.2126    4294.5904   -11768.803    110.32438   -1137.6126   -1006.6755   -876.07415    253.50561     239.0715    -82.25324      46.7237      46.7237      46.7237           90           90           90     102002.7   -1006.7874 
  514000       513497   -6917.4896    586.65655   -7504.1462    4271.6373   -11775.783    107.96002   -176.99674   -509.48903   -901.93724   -71.580189    73.282927    -79.90627      46.7237      46.7237      46.7237           90           90           90     102002.7   -529.47434 
  515000       514497   -6885.6982    579.40826   -7465.1064    4297.9797   -11763.086    106.62615    -962.1215   -779.45373   -1142.5889   -50.718728    119.99943   -258.17203      46.7237      46.7237      46.7237           90           90           90     102002.7   -961.38805 
  516000       515497   -6889.1021    606.94964   -7496.0517    4282.4292   -11778.481    111.69447   -1049.5296   -667.44878   -1255.7787    3.3394064    49.877106   -61.631059      46.7237      46.7237      46.7237           90           90           90     102002.7   -990.91903 
  517000       516497   -6873.2409    600.74186   -7473.9827    4285.1235   -11759.106    110.55208   -365.59908    -854.8387    -334.5581     205.4908    -193.6958   -10.558558      46.7237      46.7237      46.7237           90           90           90     102002.7   -518.33196 
  518000       517497   -6859.2397    612.88992   -7472.1296    4284.0683   -11756.198    112.78764   -242.47386   -1192.5845   -492.60657   -63.016215    -164.4773   -58.377225      46.7237      46.7237      46.7237           90           90           90     102002.7   -642.55498 
  519000       518497   -6901.5223    590.31525   -7491.8376    4285.3933   -11777.231    108.63331   -797.15491    -759.2292   -996.97338   -142.99242    119.49212   -73.759849      46.7237      46.7237      46.7237           90           90           90     102002.7   -851.11917 
  520000       519497   -6869.9056    617.80158   -7487.7072    4274.2134   -11761.921    113.69151   -214.04663   -848.99688   -811.76179    162.74348    351.44165   -42.079806      46.7237      46.7237      46.7237           90           90           90     102002.7    -624.9351 
  521000       520497    -6928.219    575.75661   -7503.9756    4274.7174   -11778.693    105.95415   -799.66609   -774.19283   -630.39407    210.17839    201.46183    132.03121      46.7237      46.7237      46.7237           90           90           90     102002.7   -734.75099 
  522000       521497   -6893.2889    584.57798   -7477.8668    4265.0089   -11742.876    107.57751   -452.10584    -181.6859   -1112.4686    153.41658    82.319629    45.874256      46.7237      46.7237      46.7237           90           90           90     102002.7   -582.08676 
  523000       522497   -6912.8863    584.90455   -7497.7908    4278.4579   -11776.249    107.63761   -830.37606   -380.63283   -468.05978    117.12195    262.84246   -65.324506      46.7237      46.7237      46.7237           90           90           90     102002.7   -559.68956 
  524000       523497   -6888.0308    601.55185   -7489.5827    4283.7106   -11773.293    110.70114   -696.27103    -774.4732   -611.90811    -49.68533    49.582872   -129.70406      46.7237      46.7237      46.7237           90           90           90     102002.7   -694.21745 
  525000       524497   -6880.8455    593.13724   -7473.9827    4288.7302   -11762.713    109.15263   -696.87817   -337.97746   -779.87465   -63.896697    21.106291  -0.07796779      46.7237      46.7237      46.7237           90           90           90     102002.7   -604.91009 
  526000       525497   -6914.7868    597.40674   -7512.1936    4263.6941   -11775.888    109.93833   -750.50562   -658.29059   -717.65218    175.17092   -51.493571    68.314914      46.7237      46.7237      46.7237           90           90           90     102002.7   -708.81613 
  527000       526497   -6895.2454    591.64044   -7486.8859    4281.9409   -11768.827    108.87718   -1074.0686   -641.14749   -934.15287    249.04822    105.62201   -102.86108      46.7237      46.7237      46.7237           90           90           90     102002.7   -883.12299 
  528000       527497   -6898.4214    583.24352    -7481.665     4263.689   -11745.354    107.33193   -650.19751   -565.52795   -292.72401    14.829029     -47.9877   -111.51284      46.7237      46.7237      46.7237           90           90           90     102002.7   -502.81649 
  529000       528497   -6900.0604    598.46767   -7498.5281    4263.8237   -11762.352    110.13357   -649.82098   -2.2479652   -756.56644   -127.35486   -55.692222    35.167471      46.7237      46.7237      46.7237           90           90           90     102002.7   -469.54513 
  530000       529497   -6844.7633    619.63045   -7464.3937    4295.7755   -11760.169    114.02807   -937.37022   -750.30161   -921.55268   -225.96877    287.83097    106.35525      46.7237      46.7237      46.7237           90           90           90     102002.7    -869.7415 
  531000       530497   -6892.4198    579.85093   -7472.2707    4311.3185   -11783.589    106.70761   -697.39986   -797.35451   -703.41583    155.48889    -181.0389    -80.34311      46.7237      46.7237      46.7237           90           90           90     102002.7    -732.7234 
  532000       531497   -6878.3474    611.48975   -7489.8371    4276.7762   -11766.613    112.52997   -515.34107   -416.82767   -805.71892   -97.222857   -61.727025    -54.06624      46.7237      46.7237      46.7237           90           90           90     102002.7   -579.29589 
  533000       532497   -6883.5953    590.70412   -7474.2994    4292.5292   -11766.829    108.70488   -487.21265   -561.53563   -471.42651   -281.08866    162.43257   -166.31315      46.7237      46.7237      46.7237           90           90           90     102002.7   -506.72493 
  534000       533497   -6911.8102     592.9131   -7504.7233    4252.4823   -11757.206    109.11139   -35.633474   -603.74117   -482.51511    303.98288    143.99846    103.62871      46.7237      46.7237      46.7237           90           90           90     102002.7   -373.96325 
  535000       534497    -6870.562    602.82978   -7473.3918     4292.658    -11766.05    110.93631   -755.80321   -225.06133   -689.20671   -54.459696      54.5556   -244.71108      46.7237      46.7237      46.7237           90           90           90     102002.7   -556.69042 
  536000       535497   -6891.6891    593.21411   -7484.9032    4268.9439   -11753.847    109.16678   -618.30601   -412.18469   -882.91576    173.69937    157.61114   -88.089486      46.7237      46.7237      46.7237           90           90           90     102002.7   -637.80215 
  537000       536497   -6895.8769    585.78225   -7481.6592    4261.8322   -11743.491    107.79912   -948.73993   -1146.9308   -43.891721     30.61955    -143.8362    92.986499      46.7237      46.7237      46.7237           90           90           90     102002.7   -713.18749 
  538000       537497   -6873.6519    616.67571   -7490.3276    4281.1099   -11771.437    113.48432   -440.04457    -478.4085   -439.59787   -31.419368   -163.65487    31.937758      46.7237      46.7237      46.7237           90           90           90     102002.7   -452.68365 
  539000       538497   -6891.2889     591.7962   -7483.0851    4295.5953    -11778.68    108.90585   -1000.5487   -914.05573   -1197.5357     97.81697     12.66257    189.50721      46.7237      46.7237      46.7237           90           90           90     102002.7     -1037.38 
  540000       539497    -6891.559    593.86919   -7485.4282    4274.2656   -11759.694    109.28733   -684.82662   -1073.9877   -696.88216   -184.63712   -202.98469   -82.187136      46.7237      46.7237      46.7237           90           90           90     102002.7   -818.56548 
  541000       540497   -6880.4999    606.84082   -7487.3407    4284.8653   -11772.206    111.67445   -763.40231   -1025.7635   -598.06731   -131.96969   -67.727235    193.00834      46.7237      46.7237      46.7237           90           90           90     102002.7   -795.74437 
  542000       541497   -6906.7932    602.96449   -7509.7577    4266.5847   -11776.342     110.9611   -515.92421   -417.30302   -796.97219    100.08153   -83.128733    43.433524      46.7237      46.7237      46.7237           90           90           90     102002.7   -576.73314 
  543000       542497   -6894.7006    608.03506   -7502.7356    4255.0515   -11757.787    111.89422   -375.55242   -663.55367   -651.37198    294.96217    41.971405   -34.148687      46.7237      46.7237      46.7237           90           90           90     102002.7   -563.49269 
  544000       543497   -6896.2402    595.34866   -7491.5889    4272.3902   -11763.979    109.55959   -295.15554   -497.93982   -488.61186   -33.561232    82.283785    11.365605      46.7237      46.7237      46.7237           90           90           90     102002.7   -427.23574 
  545000       544497   -6905.1966    590.79713   -7495.9937    4254.4967    -11750.49    108.72199    -399.2577   -880.06226   -584.21651    44.647683   -189.10059    141.74445      46.7237      46.7237      46.7237           90           90           90     102002.7   -621.17882 
  546000       545497   -6924.1065    570.64882   -7494.7553    4275.3987   -11770.154    105.01418   -571.05531   -299.07388   -365.16242    26.302847    4.3334743    102.06598      46.7237      46.7237      46.7237           90           90           90     102002.7   -411.76387 
  547000       546497   -6888.2081    602.25625   -7490.4643    4259.5454    -11750.01    110.83077   -889.56956    -656.5903   -1112.5022    18.993198   -23.606686   -13.007871      46.7237      46.7237      46.7237           90           90           90     102002.7   -886.22069 
  548000       547497   -6884.4899     615.1548   -7499.6447    4262.2264   -11761.871    113.20444   -778.05273   -487.60579   -780.06532   -64.336498    261.61667    252.94935      46.7237      46.7237      46.7237           90           90           90     102002.7   -681.90795 
  549000       548497   -6900.3826    591.57591   -7491.9585      4259.06   -11751.019    108.86531    -453.5052   -784.39179   -606.68895    107.73398   -215.20972    99.138063      46.7237      46.7237      46.7237           90           90           90     102002.7   -614.86198 
  550000       549497   -6853.3706    614.06624   -7467.4368    4290.4476   -11757.884    113.00411   -384.45309   -530.79442    -533.1692    159.43801    61.495207    220.25497      46.7237      46.7237      46.7237           90           90           90     102002.7   -482.80557 
  551000       550497   -6879.1297    593.40062   -7472.5303    4281.6704   -11754.201     109.2011   -569.44178   -676.89172   -888.03293    103.18173    243.84665    77.274812      46.7237      46.7237      46.7237           90           90           90     102002.7   -711.45548 
  552000       551497   -6898.2944    604.70452   -7502.9989    4261.9385   -11764.937    111.28131    -500.4894   -1045.1407   -693.27342   -363.28856   -89.359023    157.24316      46.7237      46.7237      46.7237           90           90           90     102002.7   -746.30119 
  553000       552497   -6903.1426    606.68245   -7509.8251    4257.6064   -11767.431     111.6453   -360.45245   -618.57574   -715.26269    148.65178   -11.580289    2.4415857      46.7237      46.7237      46.7237           90           90           90     102002.7   -564.76363 
  554000       553497   -6877.2164    608.65415   -7485.8706    4279.1876   -11765.058    112.00815   -951.21615   -767.57222    -671.3541    161.98614     1.878496    158.13205      46.7237      46.7237      46.7237           90           90           90     102002.7   -796.71416 
  555000       554497   -6906.2094    598.02175   -7504.2312    4277.6075   -11781.839    110.05151   -573.69344   -671.84537   -1142.9423   -73.520045    59.175735     231.7465      46.7237      46.7237      46.7237           90           90           90     102002.7   -796.16039 
[...]
  936000       935497   -6904.6585    594.93949    -7499.598    4280.9905   -11780.589    109.48429   -521.34686   -1064.7971   -512.08886   -230.08611    36.586303   -114.32595      46.7237      46.7237      46.7237           90           90           90     102002.7   -699.41094 
  937000       936497   -6905.0811    575.99465   -7481.0757    4310.3981   -11791.474    105.99795   -579.95718   -1100.2215   -812.01263   -33.404595   -85.835041   -44.164372      46.7237      46.7237      46.7237           90           90           90     102002.7   -830.73044 
  938000       937497   -6903.8644    597.48715   -7501.3516    4269.9012   -11771.253    109.95313   -461.10614   -769.30265   -339.08489    28.931295   -136.91423    241.98457      46.7237      46.7237      46.7237           90           90           90     102002.7   -523.16456 
  939000       938497   -6894.4011    582.34968   -7476.7508    4306.3515   -11783.102    107.16744   -1121.0957   -502.20393   -826.48408    71.777522   -50.076415   -21.855303      46.7237      46.7237      46.7237           90           90           90     102002.7   -816.59455 
  940000       939497   -6905.7089    603.28605   -7508.9949    4248.4968   -11757.492    111.02028   -527.08626   -617.33692   -472.42338    12.921012   -119.57892   -14.516101      46.7237      46.7237      46.7237           90           90           90     102002.7   -538.94885 
  941000       940497   -6908.4558    592.70306   -7501.1589    4268.1617   -11769.321    109.07273   -865.67161   -1062.3311   -722.48969   -154.33659   -71.419385    62.063747      46.7237      46.7237      46.7237           90           90           90     102002.7   -883.49747 
  942000       941497   -6907.9993    589.57999   -7497.5793    4258.0028   -11755.582    108.49801   -567.71826   -282.89821   -974.08618    55.880621    132.70512    60.682168      46.7237      46.7237      46.7237           90           90           90     102002.7   -608.23422 
  943000       942497   -6899.1401    600.18872   -7499.3288    4259.3293   -11758.658    110.45029   -714.82822   -813.00377   -577.92499    130.12908    179.67141   -232.55229      46.7237      46.7237      46.7237           90           90           90     102002.7   -701.91899 
  944000       943497   -6893.3163    588.29084   -7481.6071      4277.06   -11758.667    108.26077   -499.88072   -692.61605   -1228.0846    76.255532    176.56476    27.807326      46.7237      46.7237      46.7237           90           90           90     102002.7   -806.86045 
  945000       944497   -6878.6324    610.53647   -7489.1689    4275.6887   -11764.858    112.35454   -345.58182   -793.21556   -256.83166   -93.058725    116.67713   -52.984918      46.7237      46.7237      46.7237           90           90           90     102002.7   -465.20968 
  946000       945497   -6894.2245    588.00744   -7482.2319    4282.9685     -11765.2    108.20862   -828.31991   -798.51956   -644.35548   -74.223625    176.41831    -290.7524      46.7237      46.7237      46.7237           90           90           90     102002.7   -757.06498 
  947000       946497   -6885.4186    596.46864   -7481.8872    4291.5911   -11773.478     109.7657   -517.97037   -539.22267   -529.31682    -64.86209   -264.82363   -230.30786      46.7237      46.7237      46.7237           90           90           90     102002.7   -528.83662 
  948000       947497   -6888.5855    606.22685   -7494.8124    4253.9918   -11748.804    111.56146   -744.71227   -597.57754   -749.36829    18.306011   -255.76936    280.80921      46.7237      46.7237      46.7237           90           90           90     102002.7   -697.21937 
  949000       948497   -6908.1136    579.39509   -7487.5087    4289.2416    -11776.75    106.62372   -433.94354   -311.70629   -960.92462    205.51923   -126.26309   -368.18696      46.7237      46.7237      46.7237           90           90           90     102002.7   -568.85815 
  950000       949497   -6912.7749    588.07763   -7500.8525    4268.0645   -11768.917    108.22153   -927.89576   -690.24614    -824.4101   -74.486983    53.031012    100.57526      46.7237      46.7237      46.7237           90           90           90     102002.7     -814.184 
  951000       950497   -6876.5016    595.70772   -7472.2093    4275.7263   -11747.936    109.62567   -549.96827   -120.84154   -755.30699     70.87184    72.196753    61.459612      46.7237      46.7237      46.7237           90           90           90     102002.7   -475.37226 
  952000       951497   -6848.5793    616.56623   -7465.1455    4304.0556   -11769.201    113.46418   -1104.5872   -762.19457   -360.40159   -213.89368   -324.36526    96.052389      46.7237      46.7237      46.7237           90           90           90     102002.7   -742.39444 
  953000       952497   -6896.3614     586.0375   -7482.3989    4265.5141   -11747.913     107.8461   -151.12314   -868.39313   -690.20026   -166.90667   -92.230294    7.3860632      46.7237      46.7237      46.7237           90           90           90     102002.7   -569.90551 
  954000       953497   -6915.5251    580.86867   -7496.3938    4273.1704   -11769.564     106.8949   -683.21928   -617.80744   -237.77849   -222.36192    39.924796   -77.986549      46.7237      46.7237      46.7237           90           90           90     102002.7   -512.93507 
  955000       954497   -6885.5293    598.20305   -7483.7323    4284.9278    -11768.66    110.08487   -1032.9308   -394.97432   -981.57113    58.613448    -44.13393    58.817584      46.7237      46.7237      46.7237           90           90           90     102002.7   -803.15876 
  956000       955497   -6894.5828    597.09051   -7491.6733    4264.6615   -11756.335    109.88014   -380.65718   -563.25884    -322.6325    51.101432    158.28376   -17.152373      46.7237      46.7237      46.7237           90           90           90     102002.7   -422.18284 
  957000       956497   -6923.2567    571.51579   -7494.7725    4255.0286   -11749.801    105.17373   -332.70624   -595.23868   -672.52589    69.827355   -88.796279    113.67313      46.7237      46.7237      46.7237           90           90           90     102002.7   -533.49027 
  958000       957497   -6891.4475    601.57093   -7493.0185    4251.7579   -11744.776    110.70465   -622.88367   -291.29015   -732.48434   -49.244188    119.13998   -124.22968      46.7237      46.7237      46.7237           90           90           90     102002.7   -548.88605 
  959000       958497   -6858.6258    614.75752   -7473.3833    4293.8508   -11767.234    113.13133   -1076.5674   -383.31186    -795.8084   -157.99996   -267.11222    26.393151      46.7237      46.7237      46.7237           90           90           90     102002.7   -751.89588 
  960000       959497   -6880.9632    599.34025   -7480.3034    4289.0306   -11769.334    110.29415   -966.56288   -981.37764   -270.31922    70.646767    141.20803   -46.159123      46.7237      46.7237      46.7237           90           90           90     102002.7   -739.41992 
  961000       960497    -6916.001    591.15834   -7507.1594    4252.3017   -11759.461    108.78846   -264.43486   -640.76945   -353.35966    -97.80091   -27.460506   -118.77336      46.7237      46.7237      46.7237           90           90           90     102002.7   -419.52132 
  962000       961497   -6912.8713    591.15741   -7504.0287     4263.688   -11767.717    108.78829   -822.83808    -223.3457   -1106.0204    96.823163   -355.53936    -51.13595      46.7237      46.7237      46.7237           90           90           90     102002.7   -717.40139 
  963000       962497   -6885.6487    598.33535    -7483.984    4276.4964    -11760.48    110.10922   -1075.2379   -1170.6767   -1278.0429   -32.385701    114.15602   -168.80961      46.7237      46.7237      46.7237           90           90           90     102002.7   -1174.6525 
  964000       963497   -6876.2185    594.11148     -7470.33    4281.0349   -11751.365    109.33192   -598.90559   -314.90815   -309.60898   -34.008948    204.13533    26.759472      46.7237      46.7237      46.7237           90           90           90     102002.7   -407.80757 
  965000       964497   -6904.3558    596.97834   -7501.3342    4263.0086   -11764.343     109.8595    -649.2013   -66.141277   -622.98736    12.772297   -194.60632   -86.728289      46.7237      46.7237      46.7237           90           90           90     102002.7   -446.10998 
  966000       965497   -6911.6851    590.52621   -7502.2113     4262.866   -11765.077    108.67214   -641.90026   -146.86647   -368.72398   -54.395521   -133.62189   -219.69007      46.7237      46.7237      46.7237           90           90           90     102002.7   -385.83024 
  967000       966497   -6866.4847     612.4362   -7478.9209    4264.7003   -11743.621    112.70414   -297.79774   -764.43873    96.915416    -91.17177    87.270946   -137.24115      46.7237      46.7237      46.7237           90           90           90     102002.7   -321.77368 
  968000       967497   -6901.0801    581.96048   -7483.0406    4262.0262   -11745.067    107.09582   -730.52183   -435.94485   -624.62643   -46.090651    106.60199   -27.020154      46.7237      46.7237      46.7237           90           90           90     102002.7   -597.03104 
  969000       968497   -6885.7286    587.64245    -7473.371    4272.1338   -11745.505    108.14145   -433.84712   -120.28489   -596.83848   -112.59746   -188.84476     173.9509      46.7237      46.7237      46.7237           90           90           90     102002.7   -383.65683 
  970000       969497   -6867.5607    613.00778   -7480.5684    4263.9935   -11744.562    112.80933   -522.13249   -970.54574   -869.80677    131.87513    54.843533    19.824795      46.7237      46.7237      46.7237           90           90           90     102002.7     -787.495 
  971000       970497   -6912.9798    589.53393   -7502.5137    4262.2446   -11764.758    108.48953   -859.53684   -523.39402   -1114.9017    293.38083   -57.203646   -82.354505      46.7237      46.7237      46.7237           90           90           90     102002.7   -832.61087 
  972000       971497   -6905.1568    602.01218    -7507.169    4238.1895   -11745.358    110.78585   -509.70699   -798.24175   -716.26615    146.31435    118.01091   -90.642691      46.7237      46.7237      46.7237           90           90           90     102002.7    -674.7383 
  973000       972497   -6894.0871    609.94828   -7504.0354    4271.5547    -11775.59     112.2463   -10.558156   -647.67809    -892.5604   -143.09532    305.19014    255.12028      46.7237      46.7237      46.7237           90           90           90     102002.7   -516.93221 
  974000       973497   -6858.6879     609.2854   -7467.9733    4279.6034   -11747.577    112.12432   -827.17446   -668.48817    -884.3457       71.898    38.557048    52.731508      46.7237      46.7237      46.7237           90           90           90     102002.7   -793.33611 
  975000       974497   -6882.9608    599.04451   -7482.0053    4280.3907   -11762.396    110.23972   -775.04355   -563.14872   -986.54639   -151.25372    -177.4702   -117.72374      46.7237      46.7237      46.7237           90           90           90     102002.7   -774.91289 
  976000       975497   -6891.8805    589.30907   -7481.1896    4267.3449   -11748.535    108.44815   -1183.7116   -347.36504    81.514975   -67.219385    18.241616    133.78478      46.7237      46.7237      46.7237           90           90           90     102002.7   -483.18721 
  977000       976497   -6891.9094    593.67804   -7485.5874    4257.6691   -11743.257    109.25216   -756.41289   -341.07091   -808.47715   -265.63103   -36.126012   -111.97083      46.7237      46.7237      46.7237           90           90           90     102002.7   -635.32032 
  978000       977497   -6928.4348    563.11627   -7491.5511    4278.3764   -11769.927      103.628   -370.10249   -358.66742   -764.03441   -180.18227   -79.569066     140.2087      46.7237      46.7237      46.7237           90           90           90     102002.7   -497.60144 
  979000       978497   -6898.1059    604.97936   -7503.0853     4254.963   -11758.048    111.33189   -393.85739   -895.69048   -596.17857    75.072669    242.00249    76.666039      46.7237      46.7237      46.7237           90           90           90     102002.7   -628.57548 
  980000       979497   -6858.5325    621.54558    -7480.078    4291.6981   -11771.776    114.38051   -485.16634   -415.68073   -304.14346    76.188193   -2.1049546    164.51277      46.7237      46.7237      46.7237           90           90           90     102002.7   -401.66351 
  981000       980497   -6882.1422    602.44425   -7484.5865    4284.0283   -11768.615    110.86536   -853.49582   -514.21605   -375.07228   -131.68013   -78.834157    34.837323      46.7237      46.7237      46.7237           90           90           90     102002.7   -580.92805 
  982000       981497   -6904.7354    584.03733   -7488.7728    4272.0827   -11760.855    107.47802   -43.768969   -194.12584   -231.75206    -80.90843    66.225411   -194.65424      46.7237      46.7237      46.7237           90           90           90     102002.7   -156.54896 
  983000       982497   -6875.7103    612.47579   -7488.1861    4272.7225   -11760.909    112.71143    -591.7664   -523.59318   -570.37424    69.766391   -68.675021    51.045139      46.7237      46.7237      46.7237           90           90           90     102002.7   -561.91128 
  984000       983497   -6896.4947    577.80054   -7474.2952    4281.0548    -11755.35    106.33028   -597.48108   -318.75523   -671.37071    54.136775   -173.46163    23.483554      46.7237      46.7237      46.7237           90           90           90     102002.7   -529.20234 
  985000       984497   -6871.5049    612.50587   -7484.0107    4295.7619   -11779.773    112.71697   -734.76571   -153.65637   -614.97473   -60.174691     35.71249   -315.33881      46.7237      46.7237      46.7237           90           90           90     102002.7   -501.13227 
  986000       985497   -6916.7985    578.68275   -7495.4812     4274.637   -11770.118    106.49263   -562.73761   -395.04677   -736.44045    336.05294   -153.00281    43.985596      46.7237      46.7237      46.7237           90           90           90     102002.7   -564.74161 
  987000       986497   -6885.3121    600.37113   -7485.6832    4281.2721   -11766.955    110.48386   -224.59043   -837.75141   -714.79403    242.62286    66.006707   -211.52725      46.7237      46.7237      46.7237           90           90           90     102002.7   -592.37862 
  988000       987497   -6896.0328    587.39582   -7483.4286    4277.1433   -11760.572    108.09606   -392.59237    -676.8649   -402.77418    8.2127845   -139.06578   -135.20611      46.7237      46.7237      46.7237           90           90           90     102002.7   -490.74381 
  989000       988497   -6911.1422    584.21083   -7495.3531    4261.9714   -11757.325    107.50994   -251.25902   -263.41391     143.7571    193.00853    -225.9475    182.21803      46.7237      46.7237      46.7237           90           90           90     102002.7   -123.63861 
  990000       989497   -6883.1096    585.21717   -7468.3267    4291.7049   -11760.032    107.69514   -598.31932   -151.52942   -423.63246   -159.07953    118.24511   -35.490573      46.7237      46.7237      46.7237           90           90           90     102002.7    -391.1604 
  991000       990497   -6896.8283    590.53388   -7487.3622    4275.4885   -11762.851    108.67355   -991.14656   -892.71634   -449.09192   -14.203067   -119.45854   -75.682174      46.7237      46.7237      46.7237           90           90           90     102002.7   -777.65161 
  992000       991497   -6851.7092    631.03532   -7482.7445     4268.796    -11751.54    116.12686   -468.82866   -430.71508    -643.6032    136.18264     49.59242     159.8185      46.7237      46.7237      46.7237           90           90           90     102002.7   -514.38231 
  993000       992497   -6897.4653    596.39132   -7493.8566    4272.2144   -11766.071    109.75147   -716.18938   -368.00349    -636.8033   -223.66721   -94.694384    124.14095      46.7237      46.7237      46.7237           90           90           90     102002.7   -573.66539 
  994000       993497   -6892.8513    599.84889   -7492.7002      4283.17    -11775.87    110.38775   -534.82264   -132.13573   -864.58269    20.819637   -64.760416   -121.92941      46.7237      46.7237      46.7237           90           90           90     102002.7   -510.51369 
  995000       994497   -6899.1374    599.11522   -7498.2526    4272.8609   -11771.113    110.25274   -343.24303   -438.71615   -709.14884    -83.18595    94.467139    -176.6775      46.7237      46.7237      46.7237           90           90           90     102002.7   -497.03601 
  996000       995497   -6907.8606    597.29798   -7505.1586     4282.161    -11787.32    109.91832   -829.60552   -964.23063   -599.71061    141.07014    -271.9683    137.22805      46.7237      46.7237      46.7237           90           90           90     102002.7   -797.84892 
  997000       996497   -6886.8263    607.67246   -7494.4988    4258.4006   -11752.899    111.82749   -669.61018   -203.40446   -234.43885   -14.623553   -78.339503     106.9334      46.7237      46.7237      46.7237           90           90           90     102002.7   -369.15116 
  998000       997497   -6907.1519    592.17954   -7499.3315    4262.9878   -11762.319    108.97639   -954.36526    -984.3425    -676.4774    34.376744    14.702195    69.588139      46.7237      46.7237      46.7237           90           90           90     102002.7   -871.72839 
  999000       998497   -6889.9504    592.20218   -7482.1526    4265.6961   -11747.849    108.98056   -826.02899   -595.56814   -296.28027    144.76518    58.726166    52.786922      46.7237      46.7237      46.7237           90           90           90     102002.7    -572.6258 
 1000000       999497   -6866.2203    615.33247   -7481.5528    4275.2572    -11756.81    113.23713   -285.41144   -549.26859   -593.24625   -248.66069   -150.11395    72.479593      46.7237      46.7237      46.7237           90           90           90     102002.7   -475.97542 
 1000503      1000000   -6855.0405    619.88762   -7474.9282    4292.3269   -11767.255     114.0754   -1140.5652   -562.14374   -507.34562   -216.29722    83.065805   -36.943813      46.7237      46.7237      46.7237           90           90           90     102002.7   -736.68485 
Loop time of 614.333 on 24 procs for 500000 steps with 1824 atoms

Performance: 70.320 ns/day, 0.341 hours/ns, 813.891 timesteps/s
99.9% CPU use with 24 MPI tasks x no OpenMP threads

MPI task timing breakdown:
Section |  min time  |  avg time  |  max time  |%varavg| %total
---------------------------------------------------------------
Pair    | 241.82     | 313.5      | 383.31     | 222.4 | 51.03
Bond    | 67.849     | 82.144     | 100.09     | 102.9 | 13.37
Neigh   | 2.4345     | 2.4576     | 2.4747     |   1.0 |  0.40
Comm    | 127.01     | 200.8      | 269.94     | 264.9 | 32.69
Output  | 0.36851    | 0.40785    | 0.40978    |   1.3 |  0.07
Modify  | 11.496     | 11.971     | 12.568     |   8.4 |  1.95
Other   |            | 3.058      |            |       |  0.50

Nlocal:    76 ave 110 max 60 min
Histogram: 5 7 2 2 2 1 2 1 1 1
Nghost:    2071.04 ave 2221 max 1969 min
Histogram: 5 7 4 0 0 0 0 0 4 4
Neighs:    7646.08 ave 11157 max 5004 min
Histogram: 2 1 4 5 4 3 3 0 0 2

Total # of neighbors = 183506
Ave neighs/atom = 100.606
Ave special neighs/atom = 6.31579
Neighbor list builds = 4129
Dangerous builds = 0
Total wall time: 0:20:02
