LAMMPS (30 Mar 2018)
Reading data file ...
  orthogonal box = (0 0 0) to (46.7237 46.7237 46.7237)
  2 by 3 by 4 MPI processor grid
  reading atoms ...
  1950 atoms
  scanning bonds ...
  5 = max bonds/atom
  scanning angles ...
  10 = max angles/atom
  scanning dihedrals ...
  32 = max dihedrals/atom
  scanning impropers ...
  3 = max impropers/atom
  reading bonds ...
  2064 bonds
  reading angles ...
  3696 angles
  reading dihedrals ...
  6240 dihedrals
  reading impropers ...
  1008 impropers
Finding 1-2 1-3 1-4 neighbors ...
  special bond factors lj:   0          0          0         
  special bond factors coul: 0          0          0         
  5 = max # of 1-2 neighbors
  8 = max # of 1-3 neighbors
  20 = max # of 1-4 neighbors
  19 = max # of special neighbors
Finding 1-2 1-3 1-4 neighbors ...
  special bond factors lj:   0          0          1         
  special bond factors coul: 1          1          1         
  5 = max # of 1-2 neighbors
  8 = max # of 1-3 neighbors
  19 = max # of special neighbors
WARNING: Using 'neigh_modify every 1 delay 0 check yes' setting during minimization (../min.cpp:168)
Neighbor list info ...
  update every 1 steps, delay 0 steps, check yes
  max neighbors/atom: 2000, page size: 100000
  master list distance cutoff = 16
  ghost atom cutoff = 16
  binsize = 8, bins = 6 6 6
  3 neighbor lists, perpetual/occasional/extra = 3 0 0
  (1) pair buck6d/coul/gauss/dsf, perpetual, skip from (3)
      attributes: half, newton on
      pair build: skip
      stencil: none
      bin: none
  (2) pair lj/cut, perpetual, skip from (3)
      attributes: half, newton on
      pair build: skip
      stencil: none
      bin: none
  (3) neighbor class addition, perpetual
      attributes: half, newton on
      pair build: half/bin/newton
      stencil: half/bin/3d/newton
      bin: standard
Setting up cg style minimization ...
  Unit style    : real
  Current step  : 0
WARNING: Inconsistent image flags (../domain.cpp:786)
Per MPI rank memory allocation (min/avg/max) = 22.88 | 23.29 | 24.43 Mbytes
Step Temp E_pair E_mol TotEng Press 
       0            0   -12192.837    6482.8914   -5709.9456    6114.3596 
     501            0   -12285.961     3734.061   -8551.8999   -677.60234 
Loop time of 1.31128 on 24 procs for 501 steps with 1950 atoms

99.7% CPU use with 24 MPI tasks x no OpenMP threads

Minimization stats:
  Stopping criterion = max force evaluations
  Energy initial, next-to-last, final = 
        -5709.94556799      -8551.8754252     -8551.89989208
  Force two-norm initial, final = 2575.94 6.93474
  Force max component initial, final = 152.06 0.820983
  Final line search alpha, max atom move = 0.00943243 0.00774386
  Iterations, force evaluations = 501 1000

MPI task timing breakdown:
Section |  min time  |  avg time  |  max time  |%varavg| %total
---------------------------------------------------------------
Pair    | 0.47269    | 0.67115    | 0.90408    |  13.9 | 51.18
Bond    | 0.12488    | 0.15733    | 0.18926    |   4.4 | 12.00
Neigh   | 0.0089772  | 0.010718   | 0.012047   |   1.3 |  0.82
Comm    | 0.18597    | 0.43777    | 0.64328    |  17.2 | 33.39
Output  | 0          | 0          | 0          |   0.0 |  0.00
Modify  | 0          | 0          | 0          |   0.0 |  0.00
Other   |            | 0.0343     |            |       |  2.62

Nlocal:    81.25 ave 97 max 64 min
Histogram: 1 0 1 7 4 2 4 1 3 1
Nghost:    2179.58 ave 2348 max 2082 min
Histogram: 14 2 0 0 0 0 0 0 0 8
Neighs:    7636.54 ave 11000 max 4470 min
Histogram: 2 3 1 3 4 1 5 3 1 1

Total # of neighbors = 183277
Ave neighs/atom = 93.9882
Ave special neighs/atom = 5.90769
Neighbor list builds = 13
Dangerous builds = 0
Neighbor list info ...
  update every 1 steps, delay 10 steps, check yes
  max neighbors/atom: 2000, page size: 100000
  master list distance cutoff = 16
  ghost atom cutoff = 16
  binsize = 8, bins = 6 6 6
  3 neighbor lists, perpetual/occasional/extra = 3 0 0
  (1) pair buck6d/coul/gauss/dsf, perpetual, skip from (3)
      attributes: half, newton on
      pair build: skip
      stencil: none
      bin: none
  (2) pair lj/cut, perpetual, skip from (3)
      attributes: half, newton on
      pair build: skip
      stencil: none
      bin: none
  (3) neighbor class addition, perpetual
      attributes: half, newton on
      pair build: half/bin/newton
      stencil: half/bin/3d/newton
      bin: standard
Setting up Verlet run ...
  Unit style    : real
  Current step  : 501
  Time step     : 1
WARNING: Inconsistent image flags (../domain.cpp:786)
Per MPI rank memory allocation (min/avg/max) = 22.53 | 22.71 | 23.31 Mbytes
Step Temp PotEng TotEng Press Volume Lx Ly Lz 
     501          110   -8551.8999    -7912.844   -391.21092     102002.7      46.7237      46.7237      46.7237 
    1000    94.019176     -7974.99   -7428.7763   -496.13946     102002.7      46.7237      46.7237      46.7237 
    2000    117.88834   -7903.5728   -7218.6888   -872.25076     102002.7      46.7237      46.7237      46.7237 
    3000    107.82142   -7880.3987   -7253.9995   -1080.8017     102002.7      46.7237      46.7237      46.7237 
    4000     108.9286   -7881.7138   -7248.8823   -926.77248     102002.7      46.7237      46.7237      46.7237 
    5000    110.75646   -7900.8842   -7257.4336   -873.40746     102002.7      46.7237      46.7237      46.7237 
    6000    112.10822    -7877.096   -7225.7922   -779.30359     102002.7      46.7237      46.7237      46.7237 
    7000    110.43601   -7864.5894   -7223.0005   -737.29061     102002.7      46.7237      46.7237      46.7237 
    8000    108.69569   -7881.3778   -7249.8994   -864.71687     102002.7      46.7237      46.7237      46.7237 
    9000    108.94341   -7883.2084   -7250.2909    -823.4605     102002.7      46.7237      46.7237      46.7237 
   10000    111.01572   -7880.4459   -7235.4891    -696.9347     102002.7      46.7237      46.7237      46.7237 
   11000    115.51462   -7862.3898   -7191.2962   -783.93459     102002.7      46.7237      46.7237      46.7237 
   12000     106.9172   -7877.9452   -7256.7992    -925.4198     102002.7      46.7237      46.7237      46.7237 
   13000    110.56007   -7873.8588   -7231.5491   -1188.7194     102002.7      46.7237      46.7237      46.7237 
   14000    109.17644   -7866.5101   -7232.2388   -938.45438     102002.7      46.7237      46.7237      46.7237 
   15000     108.3761    -7889.029   -7259.4073   -973.81042     102002.7      46.7237      46.7237      46.7237 
   16000    112.10678   -7867.1204    -7215.825   -1043.1333     102002.7      46.7237      46.7237      46.7237 
   17000    114.42415   -7892.1811   -7227.4227   -916.52891     102002.7      46.7237      46.7237      46.7237 
   18000    110.13354    -7886.572   -7246.7403   -1039.7932     102002.7      46.7237      46.7237      46.7237 
   19000    108.02628    -7880.003   -7252.4136   -1194.6516     102002.7      46.7237      46.7237      46.7237 
   20000    112.54049   -7874.0086   -7220.1935   -966.46354     102002.7      46.7237      46.7237      46.7237 
   21000    108.11897   -7904.8382   -7276.7103   -930.38463     102002.7      46.7237      46.7237      46.7237 
   22000    111.84625   -7880.0214   -7230.2396   -622.32099     102002.7      46.7237      46.7237      46.7237 
   23000    114.77147   -7876.1604   -7209.3841   -561.69569     102002.7      46.7237      46.7237      46.7237 
   24000    108.73016   -7889.1876    -7257.509   -567.90278     102002.7      46.7237      46.7237      46.7237 
   25000    112.08993   -7872.5996    -7221.402   -718.23513     102002.7      46.7237      46.7237      46.7237 
   26000    107.10891   -7883.7742   -7261.5144   -839.31432     102002.7      46.7237      46.7237      46.7237 
   27000    107.52048   -7910.2582   -7285.6074   -773.34356     102002.7      46.7237      46.7237      46.7237 
   28000    108.54932   -7860.3218   -7229.6938   -985.03266     102002.7      46.7237      46.7237      46.7237 
   29000    110.48782   -7888.4148   -7246.5249   -716.91401     102002.7      46.7237      46.7237      46.7237 
   30000    111.58691   -7873.5913   -7225.3161   -856.66856     102002.7      46.7237      46.7237      46.7237 
   31000    112.32431   -7861.4204   -7208.8612   -849.15443     102002.7      46.7237      46.7237      46.7237 
   32000    108.74332    -7892.136    -7260.381   -684.98606     102002.7      46.7237      46.7237      46.7237 
   33000     110.7943   -7855.2614    -7211.591   -615.79631     102002.7      46.7237      46.7237      46.7237 
   34000    111.13512   -7879.7174   -7234.0669   -562.72286     102002.7      46.7237      46.7237      46.7237 
   35000    108.14693   -7898.8564   -7270.5661   -639.87413     102002.7      46.7237      46.7237      46.7237 
   36000    109.77324   -7857.8097   -7220.0712   -649.17982     102002.7      46.7237      46.7237      46.7237 
   37000    111.09611   -7876.8942   -7231.4704   -815.64814     102002.7      46.7237      46.7237      46.7237 
   38000    110.43676   -7858.4306   -7216.8373   -684.35213     102002.7      46.7237      46.7237      46.7237 
   39000    110.33719   -7881.5313   -7240.5165   -1043.5948     102002.7      46.7237      46.7237      46.7237 
   40000    111.41065   -7889.5665   -7242.3152   -943.37326     102002.7      46.7237      46.7237      46.7237 
   41000    109.35321   -7863.7178   -7228.4195   -1028.2637     102002.7      46.7237      46.7237      46.7237 
   42000    111.38677   -7879.4905   -7232.3781   -738.28124     102002.7      46.7237      46.7237      46.7237 
   43000    109.60946   -7851.2164   -7214.4294   -710.27703     102002.7      46.7237      46.7237      46.7237 
   44000    109.67057   -7876.6835   -7239.5414   -876.15859     102002.7      46.7237      46.7237      46.7237 
   45000    108.66183   -7868.7507    -7237.469   -625.45106     102002.7      46.7237      46.7237      46.7237 
   46000    107.12594   -7894.5921   -7272.2334   -854.85131     102002.7      46.7237      46.7237      46.7237 
   47000    112.19218   -7867.9476    -7216.156    -876.3497     102002.7      46.7237      46.7237      46.7237 
   48000    111.98118   -7868.1299   -7217.5641    -983.1692     102002.7      46.7237      46.7237      46.7237 
   49000    108.44143   -7885.1265   -7255.1253   -627.86354     102002.7      46.7237      46.7237      46.7237 
   50000     110.3123   -7878.4703   -7237.6001   -683.36283     102002.7      46.7237      46.7237      46.7237 
   51000    108.88998   -7884.2426   -7251.6355   -505.05783     102002.7      46.7237      46.7237      46.7237 
   52000    109.07875   -7877.7523   -7244.0485   -696.85494     102002.7      46.7237      46.7237      46.7237 
   53000    106.87656   -7873.7433   -7252.8333   -699.11755     102002.7      46.7237      46.7237      46.7237 
   54000    109.75463   -7874.6266   -7236.9962   -777.00793     102002.7      46.7237      46.7237      46.7237 
   55000     107.9157   -7884.3251   -7257.3781   -697.92955     102002.7      46.7237      46.7237      46.7237 
   56000    110.69251   -7874.3464   -7231.2673   -964.67856     102002.7      46.7237      46.7237      46.7237 
   57000    110.92474   -7865.2345   -7220.8063   -820.08552     102002.7      46.7237      46.7237      46.7237 
   58000    110.26012   -7868.0142   -7227.4472   -814.83479     102002.7      46.7237      46.7237      46.7237 
   59000    111.38237   -7871.1453   -7224.0584   -1095.9809     102002.7      46.7237      46.7237      46.7237 
   60000    111.67506   -7875.6279   -7226.8406   -750.44417     102002.7      46.7237      46.7237      46.7237 
   61000    109.33233   -7873.4067   -7238.2298   -982.78724     102002.7      46.7237      46.7237      46.7237 
   62000    112.63232     -7860.13   -7205.7815   -964.12125     102002.7      46.7237      46.7237      46.7237 
   63000    106.93042    -7854.575   -7233.3521   -682.98002     102002.7      46.7237      46.7237      46.7237 
   64000    111.13608   -7883.6738   -7238.0178   -683.52234     102002.7      46.7237      46.7237      46.7237 
   65000      106.995   -7864.7038   -7243.1057   -518.16727     102002.7      46.7237      46.7237      46.7237 
   66000    110.82164   -7853.3977   -7209.5684   -741.34792     102002.7      46.7237      46.7237      46.7237 
   67000    111.27058   -7872.3098   -7225.8724   -929.29711     102002.7      46.7237      46.7237      46.7237 
   68000    106.85318   -7883.8351   -7263.0609   -920.30225     102002.7      46.7237      46.7237      46.7237 
   69000    108.46128    -7874.502   -7244.3855   -643.88817     102002.7      46.7237      46.7237      46.7237 
   70000    108.67369   -7886.5258   -7255.1753   -712.47197     102002.7      46.7237      46.7237      46.7237 
   71000    110.23682   -7862.4651   -7222.0335   -935.13474     102002.7      46.7237      46.7237      46.7237 
   72000    108.17304   -7873.0153   -7244.5734   -563.21045     102002.7      46.7237      46.7237      46.7237 
   73000    110.42754   -7875.4369   -7233.8972   -671.98785     102002.7      46.7237      46.7237      46.7237 
   74000    106.56756   -7888.1496   -7269.0348   -867.18003     102002.7      46.7237      46.7237      46.7237 
   75000    111.50116   -7869.5948   -7221.8178   -968.75018     102002.7      46.7237      46.7237      46.7237 
   76000    104.05061   -7876.4722   -7271.9799   -746.23658     102002.7      46.7237      46.7237      46.7237 
   77000    109.07898   -7862.0722   -7228.3671   -957.60989     102002.7      46.7237      46.7237      46.7237 
   78000     111.2714    -7875.393   -7228.9508   -775.68366     102002.7      46.7237      46.7237      46.7237 
   79000    108.79503   -7868.7694   -7236.7139   -919.87646     102002.7      46.7237      46.7237      46.7237 
   80000    110.76347   -7882.2428   -7238.7515   -741.90372     102002.7      46.7237      46.7237      46.7237 
   81000    111.10135   -7868.7989   -7223.3446   -969.28217     102002.7      46.7237      46.7237      46.7237 
   82000    116.28133   -7868.0175   -7192.4696   -497.64017     102002.7      46.7237      46.7237      46.7237 
   83000    109.91513   -7876.7058    -7238.143   -892.35389     102002.7      46.7237      46.7237      46.7237 
   84000    111.97645   -7865.9284   -7215.3902   -817.99591     102002.7      46.7237      46.7237      46.7237 
   85000    105.97148   -7872.0237   -7256.3719   -919.31378     102002.7      46.7237      46.7237      46.7237 
   86000    109.09742   -7904.7107   -7270.8984   -765.66182     102002.7      46.7237      46.7237      46.7237 
   87000      110.169   -7865.6891   -7225.6514   -609.08179     102002.7      46.7237      46.7237      46.7237 
   88000    110.75336    -7888.475   -7245.0424   -840.40841     102002.7      46.7237      46.7237      46.7237 
   89000    112.45616   -7853.0577   -7199.7325   -709.08808     102002.7      46.7237      46.7237      46.7237 
   90000    110.99212   -7855.2421   -7210.4224   -1108.8336     102002.7      46.7237      46.7237      46.7237 
   91000    111.05625   -7879.1571   -7233.9649   -803.78544     102002.7      46.7237      46.7237      46.7237 
   92000    107.41503   -7848.1414   -7224.1031   -855.30004     102002.7      46.7237      46.7237      46.7237 
   93000    108.91995   -7865.0927   -7232.3115   -945.72063     102002.7      46.7237      46.7237      46.7237 
   94000    107.89773   -7876.6065    -7249.764   -775.89642     102002.7      46.7237      46.7237      46.7237 
   95000    108.27002   -7856.7216   -7227.7162   -1013.4738     102002.7      46.7237      46.7237      46.7237 
   96000    110.08108   -7850.2114   -7210.6845   -776.02451     102002.7      46.7237      46.7237      46.7237 
   97000    109.95297   -7875.3137    -7236.531   -745.66576     102002.7      46.7237      46.7237      46.7237 
   98000    109.94983   -7871.2184    -7232.454   -946.43773     102002.7      46.7237      46.7237      46.7237 
   99000    107.43303   -7852.1073   -7227.9645   -713.83678     102002.7      46.7237      46.7237      46.7237 
  100000    112.96082   -7847.0383   -7190.7813   -968.93869     102002.7      46.7237      46.7237      46.7237 
  101000    113.03527   -7866.5041   -7209.8146   -846.43191     102002.7      46.7237      46.7237      46.7237 
  102000    110.75768   -7859.0125   -7215.5549   -797.49925     102002.7      46.7237      46.7237      46.7237 
  103000    108.26498   -7877.2205   -7248.2444   -879.58355     102002.7      46.7237      46.7237      46.7237 
  104000    110.85723   -7889.6289   -7245.5928   -684.70806     102002.7      46.7237      46.7237      46.7237 
  105000    109.06095   -7880.5092   -7246.9089   -737.85596     102002.7      46.7237      46.7237      46.7237 
  106000    113.09324   -7865.4399   -7208.4136   -776.20642     102002.7      46.7237      46.7237      46.7237 
  107000    108.06763   -7859.6799   -7231.8503   -746.33044     102002.7      46.7237      46.7237      46.7237 
  108000    113.41464   -7850.3923   -7191.4988   -977.10244     102002.7      46.7237      46.7237      46.7237 
  109000     108.8765   -7846.8478   -7214.3191   -624.94456     102002.7      46.7237      46.7237      46.7237 
  110000    108.78918   -7851.2262   -7219.2047   -1043.7815     102002.7      46.7237      46.7237      46.7237 
  111000    110.98043    -7861.633   -7216.8813   -858.43701     102002.7      46.7237      46.7237      46.7237 
  112000    107.56852   -7872.3068   -7247.3768   -661.89832     102002.7      46.7237      46.7237      46.7237 
  113000     111.4717   -7885.0589   -7237.4531   -1080.8111     102002.7      46.7237      46.7237      46.7237 
  114000    110.59774   -7866.3387   -7223.8102   -837.09826     102002.7      46.7237      46.7237      46.7237 
  115000    110.45065   -7851.8575   -7210.1836   -848.34171     102002.7      46.7237      46.7237      46.7237 
  116000      108.412   -7847.4673   -7217.6371    -537.8984     102002.7      46.7237      46.7237      46.7237 
  117000    110.79523   -7871.2238    -7227.548   -933.96116     102002.7      46.7237      46.7237      46.7237 
  118000    108.28374   -7858.0469   -7228.9618   -959.57912     102002.7      46.7237      46.7237      46.7237 
  119000    109.85874   -7846.8146   -7208.5794   -463.55812     102002.7      46.7237      46.7237      46.7237 
  120000    110.00784   -7822.9777   -7183.8763   -720.17062     102002.7      46.7237      46.7237      46.7237 
  121000    112.76914   -7863.8599   -7208.7165   -461.51134     102002.7      46.7237      46.7237      46.7237 
  122000      108.695   -7860.8066   -7229.3323   -619.62119     102002.7      46.7237      46.7237      46.7237 
  123000    110.83868   -7854.6634   -7210.7351   -533.07249     102002.7      46.7237      46.7237      46.7237 
  124000    111.67679   -7883.7047   -7234.9074   -618.52909     102002.7      46.7237      46.7237      46.7237 
  125000    111.62834    -7857.688   -7209.1721    -855.7732     102002.7      46.7237      46.7237      46.7237 
  126000    109.95708    -7865.929   -7227.1224   -657.02205     102002.7      46.7237      46.7237      46.7237 
  127000    111.17991   -7889.2489   -7243.3383   -838.56221     102002.7      46.7237      46.7237      46.7237 
  128000    111.70918   -7859.8624   -7210.8769   -828.84087     102002.7      46.7237      46.7237      46.7237 
  129000    110.91872   -7881.7458   -7237.3525   -946.01597     102002.7      46.7237      46.7237      46.7237 
  130000     110.9683   -7874.7025   -7230.0212   -752.43556     102002.7      46.7237      46.7237      46.7237 
  131000    108.25251   -7892.0884   -7263.1848   -926.31897     102002.7      46.7237      46.7237      46.7237 
  132000    110.48946   -7864.6686   -7222.7692   -914.83295     102002.7      46.7237      46.7237      46.7237 
  133000    107.37864   -7853.8462   -7230.0193   -790.14459     102002.7      46.7237      46.7237      46.7237 
  134000     109.7518   -7849.8165   -7212.2026    -666.9727     102002.7      46.7237      46.7237      46.7237 
  135000    113.23621   -7865.5637   -7207.7067   -670.44258     102002.7      46.7237      46.7237      46.7237 
  136000    112.52807   -7898.9662   -7245.2233   -595.50172     102002.7      46.7237      46.7237      46.7237 
  137000    109.76178   -7876.5837   -7238.9118   -844.45947     102002.7      46.7237      46.7237      46.7237 
  138000    107.87782   -7862.9628    -7236.236   -519.56842     102002.7      46.7237      46.7237      46.7237 
  139000    107.87394   -7895.7274   -7269.0231   -741.83304     102002.7      46.7237      46.7237      46.7237 
  140000    110.05657   -7871.8962   -7232.5117   -427.76342     102002.7      46.7237      46.7237      46.7237 
  141000    108.11455   -7885.0435   -7256.9413   -662.13142     102002.7      46.7237      46.7237      46.7237 
  142000    109.74347   -7866.3408   -7228.7752    -518.3117     102002.7      46.7237      46.7237      46.7237 
  143000    108.84824   -7859.4345   -7227.0699   -859.91686     102002.7      46.7237      46.7237      46.7237 
  144000    107.26899    -7852.757   -7229.5673   -1096.7812     102002.7      46.7237      46.7237      46.7237 
  145000    109.15419   -7852.2742   -7218.1321   -580.80794     102002.7      46.7237      46.7237      46.7237 
  146000    106.98763   -7879.8989   -7258.3437   -710.27049     102002.7      46.7237      46.7237      46.7237 
  147000    112.45724   -7864.9388   -7211.6074   -820.30787     102002.7      46.7237      46.7237      46.7237 
  148000    109.56972   -7873.6608   -7237.1046    -514.4758     102002.7      46.7237      46.7237      46.7237 
  149000    111.05412   -7860.9156   -7215.7357   -565.38206     102002.7      46.7237      46.7237      46.7237 
  150000    111.60743   -7864.3622   -7215.9678   -326.56132     102002.7      46.7237      46.7237      46.7237 
  151000    108.65631   -7881.7937   -7250.5442   -484.26908     102002.7      46.7237      46.7237      46.7237 
  152000    106.80963    -7869.734   -7249.2129   -798.06185     102002.7      46.7237      46.7237      46.7237 
  153000    110.42573   -7861.4492     -7219.92   -565.97371     102002.7      46.7237      46.7237      46.7237 
  154000    111.38011   -7852.7581   -7205.6843   -689.98359     102002.7      46.7237      46.7237      46.7237 
  155000     111.3341   -7865.9233   -7219.1168   -661.31831     102002.7      46.7237      46.7237      46.7237 
  156000    112.14827   -7872.5749   -7221.0384    -656.5176     102002.7      46.7237      46.7237      46.7237 
  157000     110.8989   -7872.7422   -7228.4641   -847.67704     102002.7      46.7237      46.7237      46.7237 
  158000    108.23818   -7884.5151   -7255.6947   -703.63851     102002.7      46.7237      46.7237      46.7237 
  159000    110.33409   -7869.5834   -7228.5866    -663.8565     102002.7      46.7237      46.7237      46.7237 
  160000    114.45814     -7877.18   -7212.2242   -805.58163     102002.7      46.7237      46.7237      46.7237 
  161000     112.1828    -7876.046   -7224.3089   -666.96738     102002.7      46.7237      46.7237      46.7237 
  162000    116.18946   -7868.6516   -7193.6374   -658.14528     102002.7      46.7237      46.7237      46.7237 
  163000    108.84781   -7847.5598   -7215.1977    -819.1414     102002.7      46.7237      46.7237      46.7237 
  164000    108.61725   -7863.4748   -7232.4521   -836.71297     102002.7      46.7237      46.7237      46.7237 
  165000    107.13181   -7877.1269   -7254.7341    -842.4465     102002.7      46.7237      46.7237      46.7237 
  166000    110.62265   -7886.7193   -7244.0461    -765.4558     102002.7      46.7237      46.7237      46.7237 
  167000    109.24889   -7871.3497   -7236.6574   -849.35726     102002.7      46.7237      46.7237      46.7237 
  168000    107.47508   -7876.7261    -7252.339    -821.9304     102002.7      46.7237      46.7237      46.7237 
  169000    110.35845   -7870.0111   -7228.8728   -825.25698     102002.7      46.7237      46.7237      46.7237 
  170000    105.93256    -7894.765   -7279.3393   -923.63982     102002.7      46.7237      46.7237      46.7237 
  171000    113.58481   -7887.0205   -7227.1383   -1041.6158     102002.7      46.7237      46.7237      46.7237 
  172000    108.98235   -7863.4263   -7230.2825   -824.09779     102002.7      46.7237      46.7237      46.7237 
  173000    107.34125   -7880.2459   -7256.6363   -853.62775     102002.7      46.7237      46.7237      46.7237 
  174000    109.28593   -7879.8058   -7244.8985   -773.20367     102002.7      46.7237      46.7237      46.7237 
  175000    111.55892   -7838.0532   -7189.9406   -1021.8357     102002.7      46.7237      46.7237      46.7237 
  176000    110.80965   -7871.6886   -7227.9291   -933.48998     102002.7      46.7237      46.7237      46.7237 
  177000    109.07337   -7876.8232   -7243.1507   -815.75453     102002.7      46.7237      46.7237      46.7237 
  178000    112.01656   -7866.7092    -7215.938   -728.83886     102002.7      46.7237      46.7237      46.7237 
  179000    110.36107   -7867.2834   -7226.1299   -753.96059     102002.7      46.7237      46.7237      46.7237 
  180000    111.66334   -7858.3376   -7209.6184   -814.37659     102002.7      46.7237      46.7237      46.7237 
  181000    108.77717   -7867.2853   -7235.3336   -897.87267     102002.7      46.7237      46.7237      46.7237 
  182000    114.40087   -7859.9967   -7195.3735   -982.93976     102002.7      46.7237      46.7237      46.7237 
  183000    110.29673   -7845.3502   -7204.5704   -897.06352     102002.7      46.7237      46.7237      46.7237 
  184000    108.01872   -7872.9915   -7245.4461   -725.15642     102002.7      46.7237      46.7237      46.7237 
  185000    108.48268   -7850.4541   -7220.2132   -858.47505     102002.7      46.7237      46.7237      46.7237 
  186000    109.52844   -7838.3562   -7202.0399   -728.33105     102002.7      46.7237      46.7237      46.7237 
  187000    115.12337   -7863.2847   -7194.4641    -857.6771     102002.7      46.7237      46.7237      46.7237 
  188000    107.42249   -7866.7259   -7242.6444   -880.87005     102002.7      46.7237      46.7237      46.7237 
  189000     110.7873   -7867.1253   -7223.4956   -647.95252     102002.7      46.7237      46.7237      46.7237 
  190000     110.0551   -7860.4779   -7221.1019   -394.04392     102002.7      46.7237      46.7237      46.7237 
  191000    115.31042   -7865.7243    -7195.817   -838.54967     102002.7      46.7237      46.7237      46.7237 
  192000    109.56434   -7853.4722   -7216.9474   -727.22937     102002.7      46.7237      46.7237      46.7237 
  193000    113.84154    -7871.703   -7210.3294   -813.30273     102002.7      46.7237      46.7237      46.7237 
  194000     110.0889   -7872.1743    -7232.602   -715.75026     102002.7      46.7237      46.7237      46.7237 
  195000     107.1943   -7874.5164   -7251.7606   -817.06197     102002.7      46.7237      46.7237      46.7237 
  196000    111.37707   -7871.8524   -7224.7963   -1027.0517     102002.7      46.7237      46.7237      46.7237 
  197000    112.49389   -7877.3628   -7223.8184   -950.10247     102002.7      46.7237      46.7237      46.7237 
  198000    110.90126   -7866.0358    -7221.744   -913.34028     102002.7      46.7237      46.7237      46.7237 
  199000    107.64794   -7858.7256   -7233.3343   -988.14287     102002.7      46.7237      46.7237      46.7237 
  200000    109.61107   -7869.6641   -7232.8678   -1108.8114     102002.7      46.7237      46.7237      46.7237 
  201000    111.03075   -7878.6265   -7233.5824   -890.38683     102002.7      46.7237      46.7237      46.7237 
  202000    110.02363   -7876.1528   -7236.9596   -923.05613     102002.7      46.7237      46.7237      46.7237 
  203000     106.3302     -7872.81   -7255.0742   -822.25033     102002.7      46.7237      46.7237      46.7237 
  204000    110.02789   -7868.9251   -7229.7072   -817.59114     102002.7      46.7237      46.7237      46.7237 
  205000    110.79261    -7850.792   -7207.1314   -847.46657     102002.7      46.7237      46.7237      46.7237 
  206000    110.21085   -7887.7975   -7247.5166   -951.08283     102002.7      46.7237      46.7237      46.7237 
  207000    112.22526   -7848.4275   -7196.4438    -1141.163     102002.7      46.7237      46.7237      46.7237 
  208000    108.99069   -7871.9695   -7238.7774   -821.17357     102002.7      46.7237      46.7237      46.7237 
  209000    111.18791   -7871.7148   -7225.7577    -826.0098     102002.7      46.7237      46.7237      46.7237 
  210000    109.10476    -7888.405   -7254.5501   -895.75243     102002.7      46.7237      46.7237      46.7237 
  211000    109.81403   -7844.3068   -7206.3313   -702.55462     102002.7      46.7237      46.7237      46.7237 
  212000    110.85232   -7878.9586    -7234.951   -899.44029     102002.7      46.7237      46.7237      46.7237 
  213000    109.78367   -7852.3623   -7214.5631   -982.17213     102002.7      46.7237      46.7237      46.7237 
  214000    110.00981   -7878.0095   -7238.8966   -998.84715     102002.7      46.7237      46.7237      46.7237 
  215000    111.21168   -7850.3191   -7204.2239   -770.42779     102002.7      46.7237      46.7237      46.7237 
  216000    106.74896   -7854.9624   -7234.7938   -760.82741     102002.7      46.7237      46.7237      46.7237 
  217000    111.00381   -7873.5257   -7228.6381    -946.5156     102002.7      46.7237      46.7237      46.7237 
  218000    112.06254   -7869.7556   -7218.7171   -615.22878     102002.7      46.7237      46.7237      46.7237 
  219000     110.3709   -7874.3487    -7233.138   -685.98311     102002.7      46.7237      46.7237      46.7237 
  220000    111.36382   -7858.8269   -7211.8477   -933.73711     102002.7      46.7237      46.7237      46.7237 
  221000    113.31391   -7853.2123   -7194.9039   -869.56708     102002.7      46.7237      46.7237      46.7237 
  222000    109.83381   -7868.2188   -7230.1284    -572.3694     102002.7      46.7237      46.7237      46.7237 
  223000    105.00844     -7864.36   -7254.3032   -736.83936     102002.7      46.7237      46.7237      46.7237 
  224000    111.55962   -7855.9547   -7207.8381   -678.88369     102002.7      46.7237      46.7237      46.7237 
  225000    111.50627   -7878.4608   -7230.6541   -582.64255     102002.7      46.7237      46.7237      46.7237 
  226000    106.18715   -7879.5796   -7262.6748   -610.34525     102002.7      46.7237      46.7237      46.7237 
  227000    109.46762    -7869.478    -7233.515   -435.55946     102002.7      46.7237      46.7237      46.7237 
  228000    109.51924   -7852.7785   -7216.5157    -610.4763     102002.7      46.7237      46.7237      46.7237 
  229000    111.34302   -7849.9955   -7203.1372   -614.27938     102002.7      46.7237      46.7237      46.7237 
  230000    110.05573   -7863.1533   -7223.7737   -480.42783     102002.7      46.7237      46.7237      46.7237 
  231000    109.28327   -7857.5179   -7222.6259   -507.57882     102002.7      46.7237      46.7237      46.7237 
  232000    112.25952   -7852.9209   -7200.7382   -594.52954     102002.7      46.7237      46.7237      46.7237 
  233000    113.55045   -7844.7611   -7185.0785   -573.16803     102002.7      46.7237      46.7237      46.7237 
  234000    110.84622   -7862.7851    -7218.813   -980.23716     102002.7      46.7237      46.7237      46.7237 
  235000    110.06231   -7865.0518   -7225.6339   -521.36275     102002.7      46.7237      46.7237      46.7237 
  236000    107.95982   -7857.0351   -7229.8319   -643.30463     102002.7      46.7237      46.7237      46.7237 
  237000    109.05478   -7865.1612   -7231.5967   -740.95251     102002.7      46.7237      46.7237      46.7237 
  238000    113.08074   -7867.3059   -7210.3522   -709.74821     102002.7      46.7237      46.7237      46.7237 
  239000    110.57758   -7855.9079   -7213.4965   -723.77571     102002.7      46.7237      46.7237      46.7237 
  240000    109.93033   -7866.8726   -7228.2214   -718.24539     102002.7      46.7237      46.7237      46.7237 
  241000    109.96267   -7852.6395   -7213.8005   -620.74723     102002.7      46.7237      46.7237      46.7237 
  242000     110.9936   -7862.8931   -7218.0648   -908.61622     102002.7      46.7237      46.7237      46.7237 
  243000    110.42028   -7869.2276   -7227.7302   -821.56747     102002.7      46.7237      46.7237      46.7237 
  244000     109.7973   -7879.5953    -7241.717   -1014.5582     102002.7      46.7237      46.7237      46.7237 
  245000    112.91796   -7842.6811   -7186.6731   -1229.7444     102002.7      46.7237      46.7237      46.7237 
  246000    109.13451   -7874.6169   -7240.5892   -885.87216     102002.7      46.7237      46.7237      46.7237 
  247000    107.64167   -7885.7165   -7260.3616   -943.49128     102002.7      46.7237      46.7237      46.7237 
  248000    110.35444   -7880.9552   -7239.8402   -1123.3767     102002.7      46.7237      46.7237      46.7237 
  249000    111.86122   -7856.1319   -7206.2631   -887.96393     102002.7      46.7237      46.7237      46.7237 
  250000    110.20689   -7885.5764   -7245.3185   -822.58845     102002.7      46.7237      46.7237      46.7237 
  251000    112.65878   -7889.6359   -7235.1336   -861.42632     102002.7      46.7237      46.7237      46.7237 
  252000    107.39286   -7856.0903   -7232.1808   -727.67897     102002.7      46.7237      46.7237      46.7237 
  253000    112.24863   -7875.6033   -7223.4838   -771.77108     102002.7      46.7237      46.7237      46.7237 
  254000     110.3056   -7874.0866   -7233.2553   -678.05054     102002.7      46.7237      46.7237      46.7237 
  255000    115.36417    -7859.063   -7188.8434   -622.72986     102002.7      46.7237      46.7237      46.7237 
  256000     109.7014   -7862.1545   -7224.8334   -942.38912     102002.7      46.7237      46.7237      46.7237 
  257000     108.2651   -7870.3238    -7241.347   -733.12764     102002.7      46.7237      46.7237      46.7237 
  258000    109.45401   -7862.1077   -7226.2238   -487.83117     102002.7      46.7237      46.7237      46.7237 
  259000    110.65415   -7866.3698   -7223.5136   -874.71427     102002.7      46.7237      46.7237      46.7237 
  260000    112.01004   -7855.3999   -7204.6665   -801.93876     102002.7      46.7237      46.7237      46.7237 
  261000    108.81933   -7872.4712   -7240.2745   -815.13093     102002.7      46.7237      46.7237      46.7237 
  262000    109.93966   -7853.8879   -7215.1826    -1002.557     102002.7      46.7237      46.7237      46.7237 
  263000    110.73588   -7871.7587   -7228.4276   -669.57731     102002.7      46.7237      46.7237      46.7237 
  264000    108.68768   -7878.1859   -7246.7541   -859.15398     102002.7      46.7237      46.7237      46.7237 
  265000     115.2013   -7877.9853    -7208.712   -696.66521     102002.7      46.7237      46.7237      46.7237 
  266000    108.93682   -7867.6927   -7234.8135   -932.75448     102002.7      46.7237      46.7237      46.7237 
  267000    113.04599   -7876.4899    -7219.738   -792.38615     102002.7      46.7237      46.7237      46.7237 
  268000    112.80084    -7874.733   -7219.4054   -729.07058     102002.7      46.7237      46.7237      46.7237 
  269000    109.57818   -7858.8098   -7222.2045   -796.46458     102002.7      46.7237      46.7237      46.7237 
  270000    112.43955   -7878.2613   -7225.0327   -1038.9239     102002.7      46.7237      46.7237      46.7237 
  271000    107.38424   -7885.3254   -7261.4661   -847.28829     102002.7      46.7237      46.7237      46.7237 
  272000    108.80335   -7879.0316   -7246.9278   -829.88068     102002.7      46.7237      46.7237      46.7237 
  273000    111.18748   -7849.1427    -7203.188   -806.12881     102002.7      46.7237      46.7237      46.7237 
  274000    112.51932   -7887.1596   -7233.4675   -848.16523     102002.7      46.7237      46.7237      46.7237 
  275000    110.61495   -7867.9638   -7225.3354   -912.10397     102002.7      46.7237      46.7237      46.7237 
  276000    103.30853   -7880.1316   -7279.9504   -894.30996     102002.7      46.7237      46.7237      46.7237 
  277000    107.84168   -7866.1687   -7239.6518   -740.27469     102002.7      46.7237      46.7237      46.7237 
  278000     111.6682   -7862.1279   -7213.3805   -734.12381     102002.7      46.7237      46.7237      46.7237 
  279000    108.55656   -7862.0226   -7231.3526   -579.36479     102002.7      46.7237      46.7237      46.7237 
  280000    107.68288   -7850.2205   -7224.6262   -664.63623     102002.7      46.7237      46.7237      46.7237 
  281000    112.45465   -7870.4289   -7217.1125    -708.8279     102002.7      46.7237      46.7237      46.7237 
  282000    110.26762   -7875.3675   -7234.7569    -526.8236     102002.7      46.7237      46.7237      46.7237 
  283000     112.3361   -7861.1424   -7208.5147   -703.20067     102002.7      46.7237      46.7237      46.7237 
  284000    107.14492   -7883.2608   -7260.7918   -566.89127     102002.7      46.7237      46.7237      46.7237 
  285000    111.36927   -7867.5021   -7220.4913    -635.9135     102002.7      46.7237      46.7237      46.7237 
  286000     105.5388    -7891.924   -7278.7859   -778.14876     102002.7      46.7237      46.7237      46.7237 
  287000    111.71198   -7878.3735   -7229.3717   -552.93686     102002.7      46.7237      46.7237      46.7237 
  288000    110.38223    -7849.932   -7208.6555   -842.31707     102002.7      46.7237      46.7237      46.7237 
  289000      111.871   -7864.3943   -7214.4687    -628.4296     102002.7      46.7237      46.7237      46.7237 
  290000     108.0268   -7886.3029   -7258.7105   -729.48335     102002.7      46.7237      46.7237      46.7237 
  291000    106.88112   -7877.3711   -7256.4347   -880.78197     102002.7      46.7237      46.7237      46.7237 
  292000    109.35213    -7865.328    -7230.036   -800.64929     102002.7      46.7237      46.7237      46.7237 
  293000    106.51309   -7852.9259   -7234.1276   -731.17478     102002.7      46.7237      46.7237      46.7237 
  294000     111.8742   -7835.2446   -7185.3004   -637.23198     102002.7      46.7237      46.7237      46.7237 
  295000    109.07226   -7875.9338   -7242.2677   -826.79513     102002.7      46.7237      46.7237      46.7237 
  296000    111.48462   -7882.7505   -7235.0696   -872.49265     102002.7      46.7237      46.7237      46.7237 
  297000    109.24342   -7872.6028   -7237.9424   -766.21748     102002.7      46.7237      46.7237      46.7237 
  298000    111.14331   -7844.3392   -7198.6412   -635.72492     102002.7      46.7237      46.7237      46.7237 
  299000    108.01258   -7854.2455   -7226.7357   -342.62572     102002.7      46.7237      46.7237      46.7237 
  300000    109.27089   -7875.6926   -7240.8726   -781.02891     102002.7      46.7237      46.7237      46.7237 
  301000    110.74026   -7852.6791   -7209.3227   -768.35653     102002.7      46.7237      46.7237      46.7237 
  302000    110.91263   -7856.9662   -7212.6083   -372.62994     102002.7      46.7237      46.7237      46.7237 
  303000    110.73944   -7881.4326   -7238.0809   -833.63499     102002.7      46.7237      46.7237      46.7237 
  304000    108.95798   -7845.8928   -7212.8906   -752.60753     102002.7      46.7237      46.7237      46.7237 
  305000     109.8192   -7889.4328   -7251.4273   -750.76564     102002.7      46.7237      46.7237      46.7237 
  306000    111.44411   -7874.9572   -7227.5117   -921.05189     102002.7      46.7237      46.7237      46.7237 
  307000     109.2703   -7861.0387    -7226.222   -940.79855     102002.7      46.7237      46.7237      46.7237 
  308000    110.49903   -7895.2034   -7253.2483   -836.56225     102002.7      46.7237      46.7237      46.7237 
  309000    112.26443   -7871.9748   -7219.7635   -695.53296     102002.7      46.7237      46.7237      46.7237 
  310000    110.41561   -7875.0507   -7233.5803   -754.36708     102002.7      46.7237      46.7237      46.7237 
  311000    108.09457   -7869.4335   -7241.4474    -790.2685     102002.7      46.7237      46.7237      46.7237 
  312000    111.07253   -7881.0308    -7235.744   -743.19373     102002.7      46.7237      46.7237      46.7237 
  313000    110.03959   -7864.5731   -7225.2872   -1099.5571     102002.7      46.7237      46.7237      46.7237 
  314000    112.52274   -7892.5063   -7238.7943   -620.83267     102002.7      46.7237      46.7237      46.7237 
  315000    109.72797   -7878.7045   -7241.2291   -857.75547     102002.7      46.7237      46.7237      46.7237 
  316000    110.62027   -7868.8393   -7226.1799   -1034.0566     102002.7      46.7237      46.7237      46.7237 
  317000    108.38896   -7877.7812   -7248.0848   -949.53468     102002.7      46.7237      46.7237      46.7237 
  318000    112.89134    -7856.523   -7200.6696   -867.98189     102002.7      46.7237      46.7237      46.7237 
  319000    109.96811   -7864.5705      -7225.7   -811.82451     102002.7      46.7237      46.7237      46.7237 
  320000    105.65477   -7868.2817   -7254.4699   -765.42426     102002.7      46.7237      46.7237      46.7237 
  321000    107.95348   -7879.5761   -7252.4097   -674.13125     102002.7      46.7237      46.7237      46.7237 
  322000     111.6114   -7874.3375   -7225.9201   -797.54799     102002.7      46.7237      46.7237      46.7237 
  323000    110.02945   -7862.5375   -7223.3106   -891.50574     102002.7      46.7237      46.7237      46.7237 
  324000    108.82799   -7869.6979   -7237.4509   -896.97087     102002.7      46.7237      46.7237      46.7237 
  325000    110.75168    -7873.072   -7229.6491   -533.57827     102002.7      46.7237      46.7237      46.7237 
  326000    108.48543   -7878.3853   -7248.1285   -668.62234     102002.7      46.7237      46.7237      46.7237 
  327000     113.0317   -7869.1413   -7212.4725   -908.07184     102002.7      46.7237      46.7237      46.7237 
  328000    111.09402   -7884.2609   -7238.8492   -737.37659     102002.7      46.7237      46.7237      46.7237 
  329000    109.19244   -7896.3135   -7261.9493   -957.45563     102002.7      46.7237      46.7237      46.7237 
  330000    109.12391   -7864.6602   -7230.6941   -897.25082     102002.7      46.7237      46.7237      46.7237 
  331000    109.00755   -7858.4823   -7225.1922     -860.082     102002.7      46.7237      46.7237      46.7237 
  332000    109.01613   -7885.0843   -7251.7443   -680.60511     102002.7      46.7237      46.7237      46.7237 
  333000    110.08169   -7874.3811   -7234.8506   -763.68601     102002.7      46.7237      46.7237      46.7237 
  334000    109.33104   -7885.3799   -7250.2104   -901.11152     102002.7      46.7237      46.7237      46.7237 
  335000     108.8039   -7834.0373   -7201.9303   -905.08632     102002.7      46.7237      46.7237      46.7237 
  336000    111.60282   -7865.0809   -7216.7133   -926.09083     102002.7      46.7237      46.7237      46.7237 
  337000    110.74842   -7871.7221   -7228.3182   -1060.6173     102002.7      46.7237      46.7237      46.7237 
  338000    109.42574   -7883.1354   -7247.4158   -889.22255     102002.7      46.7237      46.7237      46.7237 
  339000    107.25734   -7890.7555   -7267.6334   -483.79794     102002.7      46.7237      46.7237      46.7237 
  340000    111.15828   -7859.2112   -7213.4262   -658.30252     102002.7      46.7237      46.7237      46.7237 
  341000    108.94333   -7866.0511   -7233.1341   -764.64278     102002.7      46.7237      46.7237      46.7237 
  342000    109.12754   -7872.3968   -7238.4096     -675.831     102002.7      46.7237      46.7237      46.7237 
  343000    108.01405   -7871.9649   -7244.4467   -592.21338     102002.7      46.7237      46.7237      46.7237 
  344000    112.32201    -7875.306   -7222.7602   -678.92362     102002.7      46.7237      46.7237      46.7237 
  345000    111.12604   -7876.0655   -7230.4678   -628.74905     102002.7      46.7237      46.7237      46.7237 
  346000    110.31157    -7875.894    -7235.028   -895.35007     102002.7      46.7237      46.7237      46.7237 
  347000    108.08095   -7870.5493   -7242.6423   -854.57973     102002.7      46.7237      46.7237      46.7237 
  348000    110.70147   -7845.9043   -7202.7732   -923.26112     102002.7      46.7237      46.7237      46.7237 
  349000     111.2348   -7861.8753   -7215.6458   -864.90887     102002.7      46.7237      46.7237      46.7237 
  350000    105.65224   -7851.0373   -7237.2402   -723.32982     102002.7      46.7237      46.7237      46.7237 
  351000    108.61739   -7853.2087   -7222.1852   -911.97775     102002.7      46.7237      46.7237      46.7237 
  352000    110.94303   -7869.2321   -7224.6976   -695.75389     102002.7      46.7237      46.7237      46.7237 
  353000    110.99187   -7861.5587   -7216.7405    -887.6521     102002.7      46.7237      46.7237      46.7237 
  354000    109.98079   -7869.7132   -7230.7689   -902.56456     102002.7      46.7237      46.7237      46.7237 
  355000    110.95179    -7866.868   -7222.2826   -724.44419     102002.7      46.7237      46.7237      46.7237 
  356000    112.37815   -7858.3537   -7205.4817   -758.94637     102002.7      46.7237      46.7237      46.7237 
  357000    112.59624   -7851.3534   -7197.2144   -597.54147     102002.7      46.7237      46.7237      46.7237 
  358000    110.83886   -7873.5347   -7229.6054   -794.53735     102002.7      46.7237      46.7237      46.7237 
  359000    109.27527   -7866.4668   -7231.6213   -479.55239     102002.7      46.7237      46.7237      46.7237 
  360000    108.17498   -7878.7102    -7250.257   -789.69437     102002.7      46.7237      46.7237      46.7237 
  361000    114.48483    -7871.196   -7206.0851   -866.19009     102002.7      46.7237      46.7237      46.7237 
  362000    108.04278    -7872.368   -7244.6828    -736.2145     102002.7      46.7237      46.7237      46.7237 
  363000    109.98728   -7875.1639   -7236.1819   -863.12815     102002.7      46.7237      46.7237      46.7237 
  364000    111.65165   -7865.5707   -7216.9194   -830.32828     102002.7      46.7237      46.7237      46.7237 
  365000    110.30087   -7880.2492   -7239.4453   -851.47591     102002.7      46.7237      46.7237      46.7237 
  366000    110.74657    -7879.676   -7236.2828   -705.53207     102002.7      46.7237      46.7237      46.7237 
  367000    109.84553   -7870.5373   -7232.3789   -988.22183     102002.7      46.7237      46.7237      46.7237 
  368000    106.56703   -7866.4253   -7247.3136   -935.35084     102002.7      46.7237      46.7237      46.7237 
  369000    110.74666   -7876.1024   -7232.7087   -1185.8044     102002.7      46.7237      46.7237      46.7237 
  370000    112.01465   -7879.2527   -7228.4926   -934.23948     102002.7      46.7237      46.7237      46.7237 
  371000    108.30887    -7876.832   -7247.6009   -707.08942     102002.7      46.7237      46.7237      46.7237 
  372000    110.21305   -7868.6292   -7228.3356   -735.85918     102002.7      46.7237      46.7237      46.7237 
  373000    110.44358   -7869.5346   -7227.9018   -671.06057     102002.7      46.7237      46.7237      46.7237 
  374000     111.8265    -7877.803   -7228.1359   -546.97668     102002.7      46.7237      46.7237      46.7237 
  375000    111.28939   -7873.4936   -7226.9468   -699.46166     102002.7      46.7237      46.7237      46.7237 
  376000    110.60575   -7866.7503   -7224.1752   -724.40261     102002.7      46.7237      46.7237      46.7237 
  377000    112.85814   -7880.4461   -7224.7856   -645.70064     102002.7      46.7237      46.7237      46.7237 
  378000    109.39778   -7869.8668   -7234.3096   -728.19614     102002.7      46.7237      46.7237      46.7237 
  379000    109.33661   -7885.2863   -7250.0844   -534.75042     102002.7      46.7237      46.7237      46.7237 
  380000    107.48606   -7867.1296   -7242.6788   -748.25753     102002.7      46.7237      46.7237      46.7237 
  381000    110.29256   -7860.4074   -7219.6519   -1074.9937     102002.7      46.7237      46.7237      46.7237 
  382000    108.43014   -7873.8005   -7243.8649   -724.00074     102002.7      46.7237      46.7237      46.7237 
  383000    110.54026   -7870.0469   -7227.8523   -697.09223     102002.7      46.7237      46.7237      46.7237 
  384000    108.84443   -7872.5832   -7240.2407   -1017.4096     102002.7      46.7237      46.7237      46.7237 
  385000    108.34627   -7876.9446   -7247.4962   -720.89366     102002.7      46.7237      46.7237      46.7237 
  386000    108.57872   -7892.3203   -7261.5215   -956.17882     102002.7      46.7237      46.7237      46.7237 
  387000    106.05158   -7864.7597   -7248.6426   -974.98104     102002.7      46.7237      46.7237      46.7237 
  388000    112.77258   -7876.7044   -7221.5409   -986.22909     102002.7      46.7237      46.7237      46.7237 
  389000    109.91482   -7849.0728   -7210.5119   -597.91726     102002.7      46.7237      46.7237      46.7237 
  390000    111.78223   -7878.7691   -7229.3592   -679.72989     102002.7      46.7237      46.7237      46.7237 
  391000    109.71154   -7879.5365   -7242.1565   -794.77116     102002.7      46.7237      46.7237      46.7237 
  392000    112.20421   -7873.4329   -7221.5714   -693.56292     102002.7      46.7237      46.7237      46.7237 
  393000    110.67427   -7861.5377   -7218.5646   -732.04412     102002.7      46.7237      46.7237      46.7237 
  394000    108.74912   -7894.1665   -7262.3777   -787.79664     102002.7      46.7237      46.7237      46.7237 
  395000    110.16141   -7868.0789   -7228.0853   -973.70663     102002.7      46.7237      46.7237      46.7237 
  396000    112.91011   -7863.1098   -7207.1473   -674.94821     102002.7      46.7237      46.7237      46.7237 
  397000    109.56283   -7878.7122   -7242.1962   -844.33234     102002.7      46.7237      46.7237      46.7237 
  398000    109.52884     -7886.39   -7250.0714   -877.29018     102002.7      46.7237      46.7237      46.7237 
  399000    110.90617   -7851.7119   -7207.3916   -816.89575     102002.7      46.7237      46.7237      46.7237 
  400000    111.19952   -7879.4054   -7233.3808   -564.26574     102002.7      46.7237      46.7237      46.7237 
  401000    106.65165   -7905.1181   -7285.5148   -735.55191     102002.7      46.7237      46.7237      46.7237 
  402000    110.52235   -7884.1143   -7242.0238   -736.86343     102002.7      46.7237      46.7237      46.7237 
  403000     111.4396   -7856.3859   -7208.9666    -624.2268     102002.7      46.7237      46.7237      46.7237 
  404000    112.73564   -7895.7011   -7240.7523   -727.33007     102002.7      46.7237      46.7237      46.7237 
  405000    110.71771    -7869.321   -7226.0955    -652.5413     102002.7      46.7237      46.7237      46.7237 
  406000    108.59428   -7873.5465   -7242.6574   -609.20795     102002.7      46.7237      46.7237      46.7237 
  407000    113.00619   -7874.5929   -7218.0722   -969.57526     102002.7      46.7237      46.7237      46.7237 
  408000    108.97286   -7885.4151   -7252.3265   -499.06974     102002.7      46.7237      46.7237      46.7237 
  409000    111.62897   -7868.4023   -7219.8827   -749.14187     102002.7      46.7237      46.7237      46.7237 
  410000    111.53952   -7880.7382   -7232.7384   -722.92887     102002.7      46.7237      46.7237      46.7237 
  411000    108.78952   -7882.8736   -7250.8502     -879.851     102002.7      46.7237      46.7237      46.7237 
  412000    111.24658   -7877.9656   -7231.6676   -939.18282     102002.7      46.7237      46.7237      46.7237 
  413000    110.59272   -7857.4231   -7214.9238   -878.80726     102002.7      46.7237      46.7237      46.7237 
  414000    107.99034   -7887.5997   -7260.2192   -809.67854     102002.7      46.7237      46.7237      46.7237 
  415000    113.42049   -7877.4002   -7218.4727   -852.45781     102002.7      46.7237      46.7237      46.7237 
  416000    107.88171   -7879.6574   -7252.9079   -678.42129     102002.7      46.7237      46.7237      46.7237 
  417000    111.49597   -7855.8794   -7208.1326   -818.03783     102002.7      46.7237      46.7237      46.7237 
  418000     109.9115   -7865.9753   -7227.4336   -848.61216     102002.7      46.7237      46.7237      46.7237 
  419000    107.36586   -7853.5288   -7229.7762   -849.04796     102002.7      46.7237      46.7237      46.7237 
  420000    106.83054   -7874.4713   -7253.8287   -1153.2505     102002.7      46.7237      46.7237      46.7237 
  421000    110.76676   -7865.9989   -7222.4884   -1070.8974     102002.7      46.7237      46.7237      46.7237 
  422000    115.07399   -7867.6154   -7199.0817   -724.94303     102002.7      46.7237      46.7237      46.7237 
  423000    107.46763   -7853.1811   -7228.8373   -926.22091     102002.7      46.7237      46.7237      46.7237 
  424000     105.8458   -7876.7511   -7261.8294   -1008.5292     102002.7      46.7237      46.7237      46.7237 
  425000    111.32432   -7866.1764   -7219.4268   -828.96237     102002.7      46.7237      46.7237      46.7237 
  426000    109.55553   -7878.8033   -7242.3296   -1121.9871     102002.7      46.7237      46.7237      46.7237 
  427000    109.73734    -7884.745   -7247.2151   -642.09869     102002.7      46.7237      46.7237      46.7237 
  428000    108.63115   -7862.5985   -7231.4951   -899.46063     102002.7      46.7237      46.7237      46.7237 
  429000    113.42454   -7870.7853   -7211.8342   -732.31549     102002.7      46.7237      46.7237      46.7237 
  430000    108.10248   -7874.1983   -7246.1663    -794.1621     102002.7      46.7237      46.7237      46.7237 
  431000    108.30073   -7855.0081   -7225.8244   -1041.0453     102002.7      46.7237      46.7237      46.7237 
  432000    107.90993   -7882.7869   -7255.8734    -878.8775     102002.7      46.7237      46.7237      46.7237 
  433000    111.72364   -7861.5767   -7212.5072   -1031.0963     102002.7      46.7237      46.7237      46.7237 
  434000    111.04805   -7880.5798   -7235.4352   -643.41059     102002.7      46.7237      46.7237      46.7237 
  435000    107.04508   -7847.0258   -7225.1369    -535.9764     102002.7      46.7237      46.7237      46.7237 
  436000    111.76859   -7874.3887   -7225.0581   -813.46365     102002.7      46.7237      46.7237      46.7237 
  437000     110.5969   -7892.8182   -7250.2945   -796.36446     102002.7      46.7237      46.7237      46.7237 
  438000     110.3563   -7857.7789   -7216.6531   -941.95494     102002.7      46.7237      46.7237      46.7237 
  439000    110.24107   -7841.1204    -7200.664   -678.04071     102002.7      46.7237      46.7237      46.7237 
  440000    111.08745   -7860.5958   -7215.2223   -863.46467     102002.7      46.7237      46.7237      46.7237 
  441000    109.20438   -7913.2496   -7278.8159   -954.74593     102002.7      46.7237      46.7237      46.7237 
  442000    112.71172    -7878.304   -7223.4941   -856.03428     102002.7      46.7237      46.7237      46.7237 
  443000     107.9961   -7878.6386   -7251.2246   -838.75638     102002.7      46.7237      46.7237      46.7237 
  444000    108.86972   -7861.2829   -7228.7935   -852.05606     102002.7      46.7237      46.7237      46.7237 
  445000    113.66705   -7863.8163   -7203.4563   -895.72595     102002.7      46.7237      46.7237      46.7237 
  446000    106.42593   -7862.3451   -7244.0532   -1096.4331     102002.7      46.7237      46.7237      46.7237 
  447000     109.2194   -7863.7758    -7229.255   -663.22792     102002.7      46.7237      46.7237      46.7237 
  448000    111.01495   -7897.9204   -7252.9681   -622.95426     102002.7      46.7237      46.7237      46.7237 
  449000    109.18887   -7867.2961   -7232.9526   -770.20351     102002.7      46.7237      46.7237      46.7237 
  450000    111.50213    -7863.457   -7215.6744   -866.22583     102002.7      46.7237      46.7237      46.7237 
  451000    110.85373   -7881.4106   -7237.3949   -1006.1047     102002.7      46.7237      46.7237      46.7237 
  452000    109.93109   -7873.9483   -7235.2928   -1072.3617     102002.7      46.7237      46.7237      46.7237 
  453000    109.17722    -7884.405   -7250.1292   -924.22197     102002.7      46.7237      46.7237      46.7237 
  454000    107.73129   -7860.0183   -7234.1427   -800.84564     102002.7      46.7237      46.7237      46.7237 
  455000    113.50335   -7871.7483   -7212.3394   -822.64549     102002.7      46.7237      46.7237      46.7237 
  456000     114.6477   -7893.8481   -7227.7909   -842.75744     102002.7      46.7237      46.7237      46.7237 
  457000    107.91449   -7879.7795   -7252.8396    -808.0211     102002.7      46.7237      46.7237      46.7237 
  458000    112.64694   -7878.9019   -7224.4684   -823.51973     102002.7      46.7237      46.7237      46.7237 
  459000    108.44335   -7872.3958   -7242.3835   -775.74748     102002.7      46.7237      46.7237      46.7237 
  460000    109.13066   -7866.8648   -7232.8595    -1025.212     102002.7      46.7237      46.7237      46.7237 
  461000    113.13089   -7893.7193   -7236.4742   -742.66064     102002.7      46.7237      46.7237      46.7237 
  462000    110.98884   -7848.7968   -7203.9962   -530.26064     102002.7      46.7237      46.7237      46.7237 
  463000    108.47676   -7858.3495   -7228.1431   -859.62308     102002.7      46.7237      46.7237      46.7237 
  464000    110.42948   -7889.2242   -7247.6732    -448.5745     102002.7      46.7237      46.7237      46.7237 
  465000    108.27907   -7886.2625   -7257.2046    -839.3411     102002.7      46.7237      46.7237      46.7237 
  466000    111.60383    -7874.394   -7226.0205   -822.39109     102002.7      46.7237      46.7237      46.7237 
  467000    110.86887   -7861.5331   -7217.4294   -675.02928     102002.7      46.7237      46.7237      46.7237 
  468000    110.02435     -7881.47   -7242.2727   -769.23471     102002.7      46.7237      46.7237      46.7237 
  469000    110.82925    -7873.523   -7229.6496   -974.13924     102002.7      46.7237      46.7237      46.7237 
  470000    110.52802    -7881.186   -7239.0626   -844.02206     102002.7      46.7237      46.7237      46.7237 
  471000    108.37387   -7877.7608   -7248.1521   -680.15918     102002.7      46.7237      46.7237      46.7237 
  472000     110.1572   -7870.9763   -7231.0072   -724.40946     102002.7      46.7237      46.7237      46.7237 
  473000    107.69039   -7881.5205   -7255.8826     -858.983     102002.7      46.7237      46.7237      46.7237 
  474000    109.38914   -7878.7515   -7243.2445   -862.77625     102002.7      46.7237      46.7237      46.7237 
  475000    110.67503     -7859.22   -7216.2425    -808.8874     102002.7      46.7237      46.7237      46.7237 
  476000    109.02768   -7887.3335   -7253.9264   -634.00607     102002.7      46.7237      46.7237      46.7237 
  477000     109.3001   -7873.9884   -7238.9987   -959.57482     102002.7      46.7237      46.7237      46.7237 
  478000    110.82458   -7890.5956   -7246.7493   -630.34068     102002.7      46.7237      46.7237      46.7237 
  479000    107.14891   -7858.3909   -7235.8987   -459.02057     102002.7      46.7237      46.7237      46.7237 
  480000    110.66135   -7863.5332   -7220.6352   -883.03563     102002.7      46.7237      46.7237      46.7237 
  481000    111.97059   -7851.9047   -7201.4005   -715.59069     102002.7      46.7237      46.7237      46.7237 
  482000     108.4024   -7867.3692   -7237.5947   -708.25615     102002.7      46.7237      46.7237      46.7237 
  483000    107.34473   -7861.9497   -7238.3199   -1017.8001     102002.7      46.7237      46.7237      46.7237 
  484000    108.93089   -7862.9158    -7230.071   -831.15962     102002.7      46.7237      46.7237      46.7237 
  485000    107.70702    -7872.016   -7246.2814   -811.74419     102002.7      46.7237      46.7237      46.7237 
  486000    107.56437   -7829.9813   -7205.0754   -835.66101     102002.7      46.7237      46.7237      46.7237 
  487000    108.33192   -7872.3114   -7242.9464   -725.10303     102002.7      46.7237      46.7237      46.7237 
  488000    106.39368   -7854.9192   -7236.8146   -773.32157     102002.7      46.7237      46.7237      46.7237 
  489000    110.65057   -7855.9514    -7213.116   -893.39435     102002.7      46.7237      46.7237      46.7237 
  490000    111.10561   -7859.0773   -7213.5983   -957.34018     102002.7      46.7237      46.7237      46.7237 
  491000    113.34964   -7863.2717   -7204.7558   -1154.5172     102002.7      46.7237      46.7237      46.7237 
  492000    111.88733   -7885.2111   -7235.1906   -552.30396     102002.7      46.7237      46.7237      46.7237 
  493000    111.60242   -7874.7661   -7226.4008   -973.19158     102002.7      46.7237      46.7237      46.7237 
  494000    107.74928   -7848.1347   -7222.1546   -940.02519     102002.7      46.7237      46.7237      46.7237 
  495000    107.08878   -7894.8222   -7272.6794   -625.53985     102002.7      46.7237      46.7237      46.7237 
  496000    107.81877   -7872.1841   -7245.8003   -695.93088     102002.7      46.7237      46.7237      46.7237 
  497000    109.21301   -7867.2468    -7232.763   -970.95007     102002.7      46.7237      46.7237      46.7237 
  498000    112.94256   -7886.6959   -7230.5449   -884.69087     102002.7      46.7237      46.7237      46.7237 
  499000    109.02938    -7888.226    -7254.809   -1000.5832     102002.7      46.7237      46.7237      46.7237 
  500000    108.53362   -7841.3703   -7210.8335   -801.70984     102002.7      46.7237      46.7237      46.7237 
  500501    110.23872   -7849.1258    -7208.683   -650.59343     102002.7      46.7237      46.7237      46.7237 
Loop time of 632.234 on 24 procs for 500000 steps with 1950 atoms

Performance: 68.329 ns/day, 0.351 hours/ns, 790.846 timesteps/s
99.7% CPU use with 24 MPI tasks x no OpenMP threads

MPI task timing breakdown:
Section |  min time  |  avg time  |  max time  |%varavg| %total
---------------------------------------------------------------
Pair    | 176.99     | 297.59     | 425        | 450.6 | 47.07
Bond    | 63.618     | 78.23      | 93.8       | 113.6 | 12.37
Neigh   | 3.0601     | 3.09       | 3.1094     |   1.0 |  0.49
Comm    | 103.63     | 245.6      | 372.87     | 549.8 | 38.85
Output  | 0.3234     | 0.32375    | 0.32821    |   0.2 |  0.05
Modify  | 3.5111     | 4.1646     | 4.5708     |  16.0 |  0.66
Other   |            | 3.234      |            |       |  0.51

Nlocal:    81.25 ave 117 max 54 min
Histogram: 3 3 3 3 1 3 4 2 0 2
Nghost:    2199.75 ave 2362 max 2105 min
Histogram: 7 7 2 0 0 0 0 1 4 3
Neighs:    7640.33 ave 13275 max 2276 min
Histogram: 1 3 6 2 1 0 3 3 3 2

Total # of neighbors = 183368
Ave neighs/atom = 94.0349
Ave special neighs/atom = 5.90769
Neighbor list builds = 4258
Dangerous builds = 0
Neighbor list info ...
  update every 1 steps, delay 10 steps, check yes
  max neighbors/atom: 2000, page size: 100000
  master list distance cutoff = 16
  ghost atom cutoff = 16
  binsize = 8, bins = 6 6 6
  3 neighbor lists, perpetual/occasional/extra = 3 0 0
  (1) pair buck6d/coul/gauss/dsf, perpetual, skip from (3)
      attributes: half, newton on
      pair build: skip
      stencil: none
      bin: none
  (2) pair lj/cut, perpetual, skip from (3)
      attributes: half, newton on
      pair build: skip
      stencil: none
      bin: none
  (3) neighbor class addition, perpetual
      attributes: half, newton on
      pair build: half/bin/newton
      stencil: half/bin/3d/newton
      bin: standard
Setting up Verlet run ...
  Unit style    : real
  Current step  : 500501
  Time step     : 1
WARNING: Inconsistent image flags (../domain.cpp:786)
Per MPI rank memory allocation (min/avg/max) = 24.14 | 24.49 | 24.59 Mbytes
Step Time TotEng KinEng PotEng E_mol E_pair Temp Pxx Pyy Pzz Pxy Pxz Pyz Cella Cellb Cellc CellAlpha CellBeta CellGamma Volume Press 
  500501       500000    -7208.683    640.44276   -7849.1258    4317.2381   -12166.364    110.23872   -581.46917   -751.43655   -618.87455    160.68501   -171.52135   -121.82266      46.7237      46.7237      46.7237           90           90           90     102002.7   -650.59343 
  501000       500499   -7245.9306    636.58387   -7882.5144    4281.8502   -12164.365     109.5745   -745.00616    -508.4462   -357.23016   -20.236171    14.190237   -19.165104      46.7237      46.7237      46.7237           90           90           90     102002.7   -536.89417 
  502000       501499   -7246.7332    618.57996   -7865.3132    4309.5867     -12174.9     106.4755   -951.38598   -1425.1489   -1381.1477   -111.09978    21.741605   -4.5097135      46.7237      46.7237      46.7237           90           90           90     102002.7   -1252.5609 
  503000       502499   -7250.0347    655.16633    -7905.201      4265.06   -12170.261    112.77308    -626.5217   -279.29948   -879.23582   -114.84289    69.410803   -135.90305      46.7237      46.7237      46.7237           90           90           90     102002.7     -595.019 
  504000       503499   -7210.2055    649.62233   -7859.8279    4287.6653   -12147.493    111.81879   -810.48041   -1164.4599    -518.6718   -210.11403    176.98948   -243.60056      46.7237      46.7237      46.7237           90           90           90     102002.7   -831.20404 
  505000       504499   -7232.1535    637.72898   -7869.8825    4299.7015   -12169.584     109.7716   -994.07823   -1000.1708   -1046.9493   -239.29107   -104.56835   -96.396844      46.7237      46.7237      46.7237           90           90           90     102002.7   -1013.7328 
  506000       505499   -7213.3799    656.49151   -7869.8714    4280.5536   -12150.425    113.00118    -659.4203   -758.78359     -758.823   -235.45168    69.847686    63.404284      46.7237      46.7237      46.7237           90           90           90     102002.7   -725.67563 
  507000       506499    -7232.043    635.29719   -7867.3402    4306.8864   -12174.227    109.35302   -1013.2527   -920.38839   -810.96642    76.907448    151.04115   -83.260474      46.7237      46.7237      46.7237           90           90           90     102002.7   -914.86917 
  508000       507499   -7212.2061    641.63702   -7853.8431     4305.503   -12159.346    110.44429   -817.54711   -479.42561   -883.50035    77.848553   -5.6109458   -65.448418      46.7237      46.7237      46.7237           90           90           90     102002.7   -726.82436 
  509000       508499   -7251.9448    629.12324    -7881.068    4286.4448   -12167.513    108.29031   -963.47422   -1202.2548   -868.35817   -246.58325    135.08348   -134.15285      46.7237      46.7237      46.7237           90           90           90     102002.7   -1011.3624 
  510000       509499   -7219.7602    633.45696   -7853.2172    4315.0815   -12168.299    109.03627   -1010.7889   -1106.1126    -878.3149   -166.51878   -89.151067    73.354709      46.7237      46.7237      46.7237           90           90           90     102002.7   -998.40547 
  511000       510499   -7231.7302    646.23132   -7877.9616    4273.8434   -12151.805     111.2351    -771.9068   -1016.4196   -245.80906    81.054197     248.5856   -51.452461      46.7237      46.7237      46.7237           90           90           90     102002.7   -678.04514 
  512000       511499   -7233.9079    628.61337   -7862.5212    4295.4808   -12158.002    108.20254   -1068.4807   -797.29004   -995.02032   -23.280994    172.38644    45.624029      46.7237      46.7237      46.7237           90           90           90     102002.7   -953.59703 
  513000       512499   -7219.2287    652.56253   -7871.7913    4286.1633   -12157.955    112.32489   -582.49785   -696.38222   -438.38445    21.117173   -87.398744   -51.255139      46.7237      46.7237      46.7237           90           90           90     102002.7   -572.42151 
  514000       513499    -7244.088    614.42359   -7858.5116     4301.195   -12159.707    105.76007   -599.86894   -699.41306   -1243.0259   -100.45504    241.80121    92.562488      46.7237      46.7237      46.7237           90           90           90     102002.7   -847.43596 
  515000       514499   -7212.9655    643.16171   -7856.1272    4294.0541   -12150.181    110.70674   -737.03467   -388.41525   -318.72619      67.1853   -44.582797    67.617708      46.7237      46.7237      46.7237           90           90           90     102002.7   -481.39204 
  516000       515499   -7192.8254    668.02965   -7860.8551    4280.8949    -12141.75    114.98723   -816.95184   -574.80345   -904.72363   -25.617098     215.1392   -78.333594      46.7237      46.7237      46.7237           90           90           90     102002.7   -765.49297 
  517000       516499   -7226.8246    651.77322   -7878.5978    4284.6252   -12163.223    112.18903   -958.62651    -1180.442   -1185.4584   -48.131757   -169.26286    38.821325      46.7237      46.7237      46.7237           90           90           90     102002.7   -1108.1756 
  518000       517499   -7209.9776    643.03829   -7853.0159    4292.0063   -12145.022    110.68549   -1079.4765   -152.85692   -403.50105     54.66442   -167.15899   -176.30046      46.7237      46.7237      46.7237           90           90           90     102002.7   -545.27816 
  519000       518499   -7174.8902    648.56198   -7823.4522    4336.9977    -12160.45    111.63628   -1294.3127   -1564.4497   -133.63788   -114.25732   -86.844782    28.857384      46.7237      46.7237      46.7237           90           90           90     102002.7   -997.46675 
  520000       519499   -7229.4015    653.04303   -7882.4446    4290.5638   -12173.008    112.40759    -405.7929   -462.56491    -704.6836   -18.763861   -351.62329    244.63315      46.7237      46.7237      46.7237           90           90           90     102002.7   -524.34713 
  521000       520499   -7192.8428    648.75993   -7841.6027     4316.122   -12157.725    111.67035   -272.29377   -716.90316   -742.61541   -38.187195    261.42556    105.20435      46.7237      46.7237      46.7237           90           90           90     102002.7   -577.27078 
  522000       521499   -7230.1608    657.67134   -7887.8322    4289.5623   -12177.395    113.20426   -851.82546   -1165.7573   -834.65517    191.17779   -160.15549    61.732785      46.7237      46.7237      46.7237           90           90           90     102002.7   -950.74597 
  523000       522499   -7242.9701    624.02698   -7866.9971    4301.3824    -12168.38    107.41309   -893.73531   -984.05863   -313.12312    44.893032    3.3979724    -30.02785      46.7237      46.7237      46.7237           90           90           90     102002.7   -730.30569 
  524000       523499   -7218.9145    665.95016   -7884.8646    4281.1026   -12165.967    114.62929   -1366.4971   -839.58121   -946.17838    -76.60577    100.49183    -189.1731      46.7237      46.7237      46.7237           90           90           90     102002.7   -1050.7522 
  525000       524499   -7235.1781    643.62938   -7878.8074    4262.3126    -12141.12    110.78723   -1013.8671   -1229.8463   -701.16749    4.4431738    201.35962   -86.998216      46.7237      46.7237      46.7237           90           90           90     102002.7   -981.62696 
  526000       525499   -7213.8306    639.27797   -7853.1086    4312.3515    -12165.46    110.03823   -867.26302   -772.95421   -1030.7745   -203.77403   -261.51345    375.81575      46.7237      46.7237      46.7237           90           90           90     102002.7   -890.33057 
  527000       526499   -7255.4533    620.67558   -7876.1289     4291.676   -12167.805    106.83622   -1150.5851   -1164.1838   -1070.3247   -191.92655    99.393325    243.07307      46.7237      46.7237      46.7237           90           90           90     102002.7   -1128.3645 
  528000       527499   -7230.3011    605.99733   -7836.2985    4301.9232   -12138.222    104.30967   -1112.5632   -809.97541   -635.01354    72.175442   -11.183743   -119.67781      46.7237      46.7237      46.7237           90           90           90     102002.7   -852.51739 
  529000       528499   -7230.6859    625.83532   -7856.5212    4316.0611   -12172.582    107.72436   -573.86086   -1009.7762   -782.83467    222.27291   -81.513125   -23.182689      46.7237      46.7237      46.7237           90           90           90     102002.7   -788.82391 
  530000       529499   -7216.4014    644.56733   -7860.9687    4291.7343   -12152.703    110.94868   -962.54513   -888.93608   -600.40762   -237.33611     2.119364     104.5577      46.7237      46.7237      46.7237           90           90           90     102002.7   -817.29627 
  531000       530499   -7246.9444    640.46721   -7887.4116    4282.4281    -12169.84    110.24293   -950.76224   -474.42795   -355.24728   -54.253319    120.41601   -32.402282      46.7237      46.7237      46.7237           90           90           90     102002.7   -593.47915 
  532000       531499   -7234.9213    642.26277   -7877.1841    4287.5972   -12164.781      110.552   -682.19388   -748.41445   -892.89826    94.373513    3.0983352    137.42311      46.7237      46.7237      46.7237           90           90           90     102002.7    -774.5022 
  533000       532499   -7205.0178    668.14473   -7873.1626    4271.8818   -12145.044    115.00703   -570.63237   -409.79595   -360.96804   -89.338546   -35.096768   -82.168608      46.7237      46.7237      46.7237           90           90           90     102002.7   -447.13212 
  534000       533499   -7206.5749    655.98833   -7862.5632    4299.9585   -12162.522    112.91457   -833.85118   -258.51941    -498.4445    -21.72727   -42.590622    147.42287      46.7237      46.7237      46.7237           90           90           90     102002.7    -530.2717 
  535000       534499    -7202.688    654.39571   -7857.0837    4285.8257   -12142.909    112.64043   -191.61403   -955.80619   -678.14285   -50.086443   -214.47923    132.35318      46.7237      46.7237      46.7237           90           90           90     102002.7   -608.52102 
  536000       535499   -7198.7605    653.82184   -7852.5823    4297.9809   -12150.563    112.54165   -816.57923   -579.61546   -927.91746    131.93329    137.15232    104.77593      46.7237      46.7237      46.7237           90           90           90     102002.7   -774.70405 
  537000       536499   -7227.9423    639.40461   -7867.3469    4285.8169   -12153.164    110.06003   -766.42315    -618.4446   -488.91816   -40.553885   -37.996401    195.29217      46.7237      46.7237      46.7237           90           90           90     102002.7    -624.5953 
  538000       537499   -7222.0445    632.38017   -7854.4246    4311.1516   -12165.576    108.85092   -740.92686   -764.83645   -575.61645   -13.996554   -90.420058     41.41545      46.7237      46.7237      46.7237           90           90           90     102002.7   -693.79325 
  539000       538499   -7222.8469    632.45715    -7855.304    4325.7525   -12181.056    108.86417   -937.16485   -680.97625   -806.45948   -81.606634   -70.546296    -186.0312      46.7237      46.7237      46.7237           90           90           90     102002.7   -808.20019 
  540000       539499   -7239.8002    639.74029   -7879.5404    4288.1972   -12167.738    110.11781    -633.6745   -1506.7564   -313.15482    54.580924   -8.5565971   -111.21378      46.7237      46.7237      46.7237           90           90           90     102002.7   -817.86191 
  541000       540499   -7214.1335    655.94608   -7870.0795    4294.8671   -12164.947    112.90729    -731.3507   -570.34473   -845.34714    94.563754   -11.451302   -137.27172      46.7237      46.7237      46.7237           90           90           90     102002.7   -715.68086 
  542000       541499   -7207.9516    649.58275   -7857.5343    4311.2271   -12168.761    111.81198   -724.25793    -831.8815   -706.91387   -195.51318   -26.784308    133.89225      46.7237      46.7237      46.7237           90           90           90     102002.7    -754.3511 
  543000       542499   -7203.5564    653.94691   -7857.5033    4294.5392   -12152.043    112.56318   -429.05859   -877.60097   -497.17195    74.299514    -3.799634   -157.48038      46.7237      46.7237      46.7237           90           90           90     102002.7   -601.27717 
  544000       543499   -7203.4691    663.81823   -7867.2873    4297.5588   -12164.846    114.26232   -1197.1105   -499.47836   -656.76153   -235.12638   -14.673373    88.081294      46.7237      46.7237      46.7237           90           90           90     102002.7   -784.45013 
  545000       544499   -7229.0789     632.2486   -7861.3274    4288.4737   -12149.801    108.82827   -676.38123   -550.28454    -574.1982   -120.05509   -23.320067   -33.436604      46.7237      46.7237      46.7237           90           90           90     102002.7   -600.28799 
  546000       545499    -7243.466    634.03294   -7877.4989    4302.4725   -12179.971    109.13541   -546.50044   -747.43904   -1151.9808    198.26202    45.136275    89.497703      46.7237      46.7237      46.7237           90           90           90     102002.7   -815.30677 
  547000       546499   -7218.7241    644.90903   -7863.6331     4295.833   -12159.466     111.0075   -634.99384   -633.95572    -779.2433    32.001283   -193.99726   -112.58094      46.7237      46.7237      46.7237           90           90           90     102002.7   -682.73095 
  548000       547499   -7219.9243    643.45898   -7863.3833    4291.7449   -12155.128     110.7579   -1112.7538   -882.17846   -896.18156   -69.902921    42.158285   -83.783428      46.7237      46.7237      46.7237           90           90           90     102002.7   -963.70459 
  549000       548499   -7237.2336    642.44927   -7879.6829     4282.224   -12161.907     110.5841   -663.19972   -774.93383   -824.75844    116.17047     141.3147    228.10313      46.7237      46.7237      46.7237           90           90           90     102002.7   -754.29733 
  550000       549499   -7232.1097     632.8799   -7864.9896     4294.846   -12159.836    108.93694   -1116.9608   -297.35044    -962.4898   -124.01076    14.768746    189.86342      46.7237      46.7237      46.7237           90           90           90     102002.7     -792.267 
  551000       550499   -7203.3497    656.19958   -7859.5493    4308.9312   -12168.481    112.95093   -632.13632     -452.855   -993.12185    -232.5778   -143.99345   -1.5239223      46.7237      46.7237      46.7237           90           90           90     102002.7   -692.70439 
  552000       551499   -7200.0539    651.52479   -7851.5787    4310.5567   -12162.135    112.14626   -680.17769   -787.85276   -623.98962   -185.18551    52.961139   -202.11729      46.7237      46.7237      46.7237           90           90           90     102002.7   -697.34002 
  553000       552499   -7217.6947    645.81912   -7863.5138    4279.9774   -12143.491    111.16415   -237.06151   -547.35082   -715.54746   -96.089207   -228.00745   -163.23373      46.7237      46.7237      46.7237           90           90           90     102002.7    -499.9866 
  554000       553499    -7240.666    622.07679   -7862.7428    4315.7373    -12178.48    107.07741    -657.1946   -657.37038    -1100.854     51.27784    1.3965907    295.95202      46.7237      46.7237      46.7237           90           90           90     102002.7   -805.13965 
  555000       554499     -7199.64    644.39264   -7844.0327    4322.5926   -12166.625    110.91861   -1026.6019   -1295.5747   -601.62402     158.1379   -65.796447   -36.047283      46.7237      46.7237      46.7237           90           90           90     102002.7   -974.60023 
[...]
  936000       935499   -7227.0764    639.68666    -7866.763    4288.1824   -12154.945    110.10858   -894.27713   -731.65002   -943.22879   -92.999205    10.403715   -160.23174      46.7237      46.7237      46.7237           90           90           90     102002.7   -856.38531 
  937000       936499   -7239.0557    618.34842   -7857.4041    4310.4837   -12167.888    106.43565     -815.842   -1074.1654   -1147.7401    38.855131   -62.811125    137.01394      46.7237      46.7237      46.7237           90           90           90     102002.7   -1012.5825 
  938000       937499   -7209.0132    644.15228   -7853.1655    4337.5123   -12190.678    110.87724   -1046.8229   -883.90952   -821.97403   -101.22605   -111.88372    19.028401      46.7237      46.7237      46.7237           90           90           90     102002.7   -917.56881 
  939000       938499   -7241.9758    633.67862   -7875.6544    4298.5942   -12174.249    109.07442   -1207.7713   -955.73324   -1041.3492   -177.92736    20.865562   0.89239807      46.7237      46.7237      46.7237           90           90           90     102002.7   -1068.2846 
  940000       939499   -7245.0624    619.43274   -7864.4951    4305.6916   -12170.187    106.62229   -964.88479   -1334.9276   -1295.1731    32.224634    164.20697    435.59109      46.7237      46.7237      46.7237           90           90           90     102002.7   -1198.3285 
  941000       940499    -7235.147    644.31304   -7879.4601    4280.6908   -12160.151    110.90491   -1121.7206     -613.806   -897.27147   -168.88176    235.50021   -191.74164      46.7237      46.7237      46.7237           90           90           90     102002.7   -877.59934 
  942000       941499   -7228.1201    646.54252   -7874.6626    4293.2174    -12167.88    111.28867   -457.61072   -929.99446   -597.74718    13.791844   -13.098652    104.66261      46.7237      46.7237      46.7237           90           90           90     102002.7   -661.78412 
  943000       942499   -7209.8504    668.92997   -7878.7803     4272.733   -12151.513     115.1422   -732.35448   -534.50319   -866.97803    143.22586   -86.969671    12.294148      46.7237      46.7237      46.7237           90           90           90     102002.7   -711.27857 
  944000       943499    -7231.245    644.55142   -7875.7964    4299.3449   -12175.141    110.94594   -1318.6828   -235.34762     -713.171    139.68084    13.280463   -403.06869      46.7237      46.7237      46.7237           90           90           90     102002.7   -755.73379 
  945000       944499   -7216.6707    641.28196   -7857.9527    4286.3984   -12144.351    110.38318   -831.82369   -148.68406   -973.74961   -177.34673    83.068636    29.464374      46.7237      46.7237      46.7237           90           90           90     102002.7   -651.41912 
  946000       945499   -7231.1855    640.66177   -7871.8473    4313.7567   -12185.604    110.27642   -1057.2966   -918.26959   -971.34004   -259.16157    269.49259    45.931975      46.7237      46.7237      46.7237           90           90           90     102002.7   -982.30208 
  947000       946499   -7231.9505    637.11035   -7869.0608    4290.8543   -12159.915    109.66512   -893.93537   -692.56975   -988.85058    -60.15794     97.85561   -151.28833      46.7237      46.7237      46.7237           90           90           90     102002.7    -858.4519 
  948000       947499   -7227.7006    631.16344    -7858.864    4303.9451   -12162.809    108.64148   -920.79231   -1239.5317   -987.44224     119.1567   -175.42166    130.33192      46.7237      46.7237      46.7237           90           90           90     102002.7   -1049.2554 
  949000       948499   -7223.6973    638.75684   -7862.4541    4290.9325   -12153.387    109.94853   -935.29476   -1094.4237   -527.67935   -155.26234    53.654395    126.28818      46.7237      46.7237      46.7237           90           90           90     102002.7   -852.46595 
  950000       949499   -7185.6438    655.92471   -7841.5685    4330.7079   -12172.276    112.90362   -1027.6027   -960.10138   -1295.2427    103.19254    60.119075    -113.7479      46.7237      46.7237      46.7237           90           90           90     102002.7   -1094.3156 
  951000       950499   -7255.6092    616.66052   -7872.2697    4291.0345   -12163.304    106.14511   -1109.5181   -1464.1725   -1268.4724   -55.777564   -179.02529    105.86844      46.7237      46.7237      46.7237           90           90           90     102002.7    -1280.721 
  952000       951499   -7224.7555    638.79827   -7863.5538    4305.9445   -12169.498    109.95566   -797.40398   -876.33453    -517.2626    -135.3226    112.87792    85.852218      46.7237      46.7237      46.7237           90           90           90     102002.7    -730.3337 
  953000       952499   -7280.0809    617.31229   -7897.3932     4274.776   -12172.169     106.2573   -472.73784   -707.64776   -558.67694   -32.751832   -8.3200209    97.619262      46.7237      46.7237      46.7237           90           90           90     102002.7   -579.68751 
  954000       953499   -7215.5365    642.19625   -7857.7327    4332.8132   -12190.546    110.54055   -1116.9044   -954.54182   -568.31616   -21.785133   -82.546675    -174.0929      46.7237      46.7237      46.7237           90           90           90     102002.7    -879.9208 
  955000       954499   -7239.4159    628.55826   -7867.9741    4294.8618   -12162.836    108.19306    -547.6383   -678.55632   -533.33011   -7.4786304    130.36253   -31.900107      46.7237      46.7237      46.7237           90           90           90     102002.7   -586.50824 
  956000       955499   -7232.9757     632.5793    -7865.555    4311.5626   -12177.118     108.8852   -543.47014   -647.36613   -879.46763   -70.006333    277.07327   -20.378866      46.7237      46.7237      46.7237           90           90           90     102002.7    -690.1013 
  957000       956499   -7238.2533    644.24805   -7882.5014    4297.2102   -12179.712    110.89373   -888.64333   -1326.6704   -809.00383    19.140706    43.349049   -84.271503      46.7237      46.7237      46.7237           90           90           90     102002.7   -1008.1059 
  958000       957499   -7260.3168    626.08614    -7886.403    4281.1008   -12167.504    107.76754   -654.76328   -674.82957   -652.92484    54.504629    17.175074    42.990756      46.7237      46.7237      46.7237           90           90           90     102002.7   -660.83923 
  959000       958499   -7228.8719    650.74303    -7879.615    4278.1905   -12157.805     112.0117   -565.62829    -535.1612   -746.49524   -107.31689   -78.127242    30.764185      46.7237      46.7237      46.7237           90           90           90     102002.7   -615.76158 
  960000       959499   -7227.6266    632.36515   -7859.9918    4313.2047   -12173.197    108.84833   -890.89087   -705.66374    -957.1362   -134.55064   -62.343805    36.684443      46.7237      46.7237      46.7237           90           90           90     102002.7   -851.23027 
  961000       960499   -7245.5711    621.12454   -7866.6956    4304.0487   -12170.744     106.9135    -706.9933    -785.6795   -620.88632    50.553504   -73.285838   -146.97814      46.7237      46.7237      46.7237           90           90           90     102002.7   -704.51971 
  962000       961499   -7219.6985    642.06058   -7861.7591    4283.5313    -12145.29     110.5172   -710.61046   -595.24613   -725.34653    2.3725682   -271.60521   -248.66275      46.7237      46.7237      46.7237           90           90           90     102002.7   -677.06771 
  963000       962499   -7246.1071    628.37292     -7874.48    4276.7646   -12151.245    108.16116   -1074.6291   -340.71486   -1057.6435    59.065357    95.187012   -271.01456      46.7237      46.7237      46.7237           90           90           90     102002.7   -824.32915 
  964000       963499   -7220.5656    649.72127   -7870.2869    4297.8046   -12168.092    111.83582   -826.13898   -1007.4151   -587.67392   -105.55212    37.791678   -42.278775      46.7237      46.7237      46.7237           90           90           90     102002.7   -807.07599 
  965000       964499   -7242.2236    635.04363   -7877.2672    4294.5977   -12171.865    109.30938   -933.42196   -817.55048   -1271.2742    8.9449117    59.994378   -111.93153      46.7237      46.7237      46.7237           90           90           90     102002.7   -1007.4156 
  966000       965499   -7234.2877    632.38411   -7866.6718    4300.5298   -12167.202     108.8516   -756.19607   -303.36107   -905.42655    338.66863    -10.76345   -323.84601      46.7237      46.7237      46.7237           90           90           90     102002.7   -654.99456 
  967000       966499   -7226.9728     632.3955   -7859.3683    4296.1436   -12155.512    108.85356   -576.75776   -983.60065   -644.62401   -122.25526   -18.337423    20.259375      46.7237      46.7237      46.7237           90           90           90     102002.7   -734.99414 
  968000       967499   -7227.6142    641.38108   -7868.9953    4290.7509   -12159.746    110.40024   -817.99718   -1136.6916   -830.85119   -309.09368    293.43723   -177.93255      46.7237      46.7237      46.7237           90           90           90     102002.7   -928.51332 
  969000       968499   -7240.5101    650.00918   -7890.5193    4276.2355   -12166.755    111.88538   -735.46268   -420.59527   -791.68078   -455.23803    33.073523    254.82808      46.7237      46.7237      46.7237           90           90           90     102002.7   -649.24624 
  970000       969499   -7213.5269    657.41224   -7870.9392    4296.4228   -12167.362    113.15966   -1076.0072   -780.89296   -697.09289    130.63609   -72.289226    131.50262      46.7237      46.7237      46.7237           90           90           90     102002.7   -851.33102 
  971000       970499   -7230.4935     626.0127   -7856.5062    4300.0288   -12156.535    107.75489   -472.09173   -532.36555   -939.48716    23.792423    192.01651     59.71581      46.7237      46.7237      46.7237           90           90           90     102002.7   -647.98148 
  972000       971499   -7245.8253    632.99272   -7878.8181    4288.9422    -12167.76    108.95636   -462.00572   -568.33438   -836.88037   -69.786339   -38.274398    30.169756      46.7237      46.7237      46.7237           90           90           90     102002.7   -622.40682 
  973000       972499   -7247.0674    637.54058    -7884.608    4281.2811   -12165.889    109.73918   -1175.5763   -662.16919   -674.21062     112.2894    313.27244    24.080671      46.7237      46.7237      46.7237           90           90           90     102002.7    -837.3187 
  974000       973499   -7237.7098    634.49839   -7872.2082    4300.2159   -12172.424    109.21553   -961.81234   -560.33606   -776.73089     122.9811    96.440792   -18.709871      46.7237      46.7237      46.7237           90           90           90     102002.7   -766.29309 
  975000       974499   -7221.8375    637.67093   -7859.5085    4315.5156   -12175.024    109.76161   -524.28892   -797.65557   -1091.7195    8.1611511    -296.5602   -160.13189      46.7237      46.7237      46.7237           90           90           90     102002.7   -804.55466 
  976000       975499   -7214.5125    641.47018   -7855.9826    4308.6626   -12164.645    110.41557   -595.63264    -1006.225    -751.7064   -284.25448    72.533928    200.88765      46.7237      46.7237      46.7237           90           90           90     102002.7   -784.52135 
  977000       976499   -7242.1872    629.00845   -7871.1956     4291.449   -12162.645    108.27055   -652.67145   -589.05795   -862.26545    225.68902   -102.46387   -273.59486      46.7237      46.7237      46.7237           90           90           90     102002.7   -701.33162 
  978000       977499   -7227.2317    638.38856   -7865.6203    4307.7992    -12173.42    109.88514   -779.93102   -360.03499   -902.44753   -218.52638    162.58233    132.13798      46.7237      46.7237      46.7237           90           90           90     102002.7   -680.80451 
  979000       978499   -7222.1927    636.01169   -7858.2044    4298.0274   -12156.232    109.47601   -646.67023   -351.98628   -1167.8117   -89.261154     7.849055    9.0460966      46.7237      46.7237      46.7237           90           90           90     102002.7   -722.15607 
  980000       979499   -7249.4655    627.90148    -7877.367    4286.2187   -12163.586    108.08001   -679.04325   -732.10696   -640.25979   -10.136514   -40.520225   -9.6752027      46.7237      46.7237      46.7237           90           90           90     102002.7   -683.80333 
  981000       980499   -7208.9718    648.20153   -7857.1733    4302.6699   -12159.843    111.57423   -638.98425   -802.83833   -843.27103   -256.15403   -23.240804   -114.63899      46.7237      46.7237      46.7237           90           90           90     102002.7   -761.69787 
  982000       981499   -7242.5396    620.77282   -7863.3124    4291.4681    -12154.78    106.85296   -956.83047   -392.58703   -952.01782    71.032716   -82.663609    22.041891      46.7237      46.7237      46.7237           90           90           90     102002.7   -767.14511 
  983000       982499    -7229.427    641.19625   -7870.6232    4295.5462   -12166.169    110.36842   -596.29868   -483.88377   -356.94132    142.74696    148.84574   -298.73425      46.7237      46.7237      46.7237           90           90           90     102002.7   -479.04125 
  984000       983499   -7255.3592    632.16267   -7887.5219     4261.192   -12148.714    108.81348   -741.78728   -946.62684   -739.96001   -9.3772712   -15.113576   -62.726427      46.7237      46.7237      46.7237           90           90           90     102002.7   -809.45804 
  985000       984499   -7239.2494    617.76717   -7857.0166    4310.2832     -12167.3     106.3356   -1187.2775   -490.51775    -975.2987   -4.6490432   -88.280817   -1.8938449      46.7237      46.7237      46.7237           90           90           90     102002.7   -884.36466 
  986000       985499   -7223.4066    639.74662   -7863.1532      4308.98   -12172.133     110.1189   -800.56003   -334.98892   -832.12712    161.02442    129.04631   -137.52676      46.7237      46.7237      46.7237           90           90           90     102002.7   -655.89202 
  987000       986499   -7241.3712    633.32476    -7874.696    4309.5016   -12184.198    109.01351   -1344.7763   -930.74383    -1082.627    158.98195   -121.12185   -447.54174      46.7237      46.7237      46.7237           90           90           90     102002.7   -1119.3824 
  988000       987499   -7247.1163    634.65531   -7881.7716    4280.2871   -12162.059    109.24254    -405.3437   -622.09815   -322.30075   -263.55388   -7.0411598   -167.44911      46.7237      46.7237      46.7237           90           90           90     102002.7    -449.9142 
  989000       988499   -7239.7464     630.5766    -7870.323    4300.0014   -12170.324    108.54047   -761.24669   -739.33122   -753.28281   -7.5309652    35.599516    54.550126      46.7237      46.7237      46.7237           90           90           90     102002.7   -751.28691 
  990000       989499   -7212.6721    638.23235   -7850.9044    4323.2335   -12174.138    109.85825   -688.03834   -631.10062   -623.83549    130.57622    68.074435    103.63066      46.7237      46.7237      46.7237           90           90           90     102002.7   -647.65815 
  991000       990499   -7233.4044    630.64731   -7864.0517    4309.9848   -12174.037    108.55264   -1064.5111   -497.17925   -1064.9758     43.05908     121.9298    126.93943      46.7237      46.7237      46.7237           90           90           90     102002.7   -875.55537 
  992000       991499    -7222.772     647.1394   -7869.9114     4300.651   -12170.562    111.39141   -1326.3659   -671.97059   -1100.9925    60.400148    156.50803    135.75846      46.7237      46.7237      46.7237           90           90           90     102002.7   -1033.1097 
  993000       992499    -7235.723    642.73775   -7878.4607    4291.1505   -12169.611    110.63376   -685.58815   -974.66343   -483.32593    -119.2365    5.4586194    99.918385      46.7237      46.7237      46.7237           90           90           90     102002.7   -714.52584 
  994000       993499   -7258.8584    635.79689   -7894.6553    4271.1634   -12165.819    109.43904   -880.28941   -1497.4795   -1123.3572    291.58409    -170.2844    168.47517      46.7237      46.7237      46.7237           90           90           90     102002.7    -1167.042 
  995000       994499   -7204.9702    648.56244   -7853.5327    4315.2929   -12168.826    111.63636   -862.88712   -748.93728    -869.2001   -50.152141    -93.33262    329.74115      46.7237      46.7237      46.7237           90           90           90     102002.7   -827.00817 
  996000       995499   -7225.8466    649.94106   -7875.7876    4298.6556   -12174.443    111.87366   -717.72839   -1053.7158   -948.53138   -218.99929    256.63803    208.06452      46.7237      46.7237      46.7237           90           90           90     102002.7   -906.65852 
  997000       996499   -7274.8367    620.68018   -7895.5169    4268.2499   -12163.767    106.83701   -653.51963   -1072.3579   -595.71396    77.820855    44.937068    161.10457      46.7237      46.7237      46.7237           90           90           90     102002.7   -773.86383 
  998000       997499   -7218.5167    646.35723   -7864.8739    4299.0949   -12163.969    111.25678   -980.76076   -1216.4313   -733.52461   -137.79878    21.457678   -23.806565      46.7237      46.7237      46.7237           90           90           90     102002.7   -976.90556 
  999000       998499    -7219.697    643.22279   -7862.9198    4296.0627   -12158.982    110.71725    -923.7603    -1268.362   -1162.1018   -115.86382    245.04651   -102.95056      46.7237      46.7237      46.7237           90           90           90     102002.7   -1118.0747 
 1000000       999499    -7222.475    637.57041   -7860.0454    4317.5767   -12177.622    109.74431   -1284.2877   -899.74014    -780.0204   -109.11001   -300.64053    4.7964901      46.7237      46.7237      46.7237           90           90           90     102002.7   -988.01607 
 1000501      1000000   -7211.6301    642.45331   -7854.0835    4307.9552   -12162.039     110.5848   -180.88526   -835.49661    -958.5375    29.817467   -147.13184   -173.69006      46.7237      46.7237      46.7237           90           90           90     102002.7   -658.30646 
Loop time of 715.894 on 24 procs for 500000 steps with 1950 atoms

Performance: 60.344 ns/day, 0.398 hours/ns, 698.428 timesteps/s
99.7% CPU use with 24 MPI tasks x no OpenMP threads

MPI task timing breakdown:
Section |  min time  |  avg time  |  max time  |%varavg| %total
---------------------------------------------------------------
Pair    | 192.14     | 334.43     | 479.87     | 512.0 | 46.71
Bond    | 63.714     | 82.202     | 102.31     | 149.2 | 11.48
Neigh   | 3.1239     | 3.1524     | 3.1772     |   1.0 |  0.44
Comm    | 115.31     | 280.09     | 434.52     | 631.8 | 39.12
Output  | 0.38617    | 0.44994    | 0.45285    |   2.0 |  0.06
Modify  | 11.609     | 12.274     | 12.814     |  10.4 |  1.71
Other   |            | 3.299      |            |       |  0.46

Nlocal:    81.25 ave 118 max 43 min
Histogram: 1 1 2 2 6 5 3 2 1 1
Nghost:    2199.42 ave 2363 max 2083 min
Histogram: 4 9 2 1 0 0 0 0 1 7
Neighs:    7640.75 ave 13716 max 2628 min
Histogram: 2 2 3 4 3 3 2 1 3 1

Total # of neighbors = 183378
Ave neighs/atom = 94.04
Ave special neighs/atom = 5.90769
Neighbor list builds = 4297
Dangerous builds = 0
Total wall time: 0:22:29
