LAMMPS (30 Mar 2018)
Reading data file ...
  orthogonal box = (0 0 0) to (46.7237 46.7237 46.7237)
  2 by 3 by 4 MPI processor grid
  reading atoms ...
  3156 atoms
  scanning bonds ...
  5 = max bonds/atom
  scanning angles ...
  10 = max angles/atom
  scanning dihedrals ...
  32 = max dihedrals/atom
  scanning impropers ...
  3 = max impropers/atom
  reading bonds ...
  2064 bonds
  reading angles ...
  3696 angles
  reading dihedrals ...
  6240 dihedrals
  reading impropers ...
  1008 impropers
Finding 1-2 1-3 1-4 neighbors ...
  special bond factors lj:   0          0          0         
  special bond factors coul: 0          0          0         
  5 = max # of 1-2 neighbors
  8 = max # of 1-3 neighbors
  20 = max # of 1-4 neighbors
  19 = max # of special neighbors
Finding 1-2 1-3 1-4 neighbors ...
  special bond factors lj:   0          0          1         
  special bond factors coul: 1          1          1         
  5 = max # of 1-2 neighbors
  8 = max # of 1-3 neighbors
  19 = max # of special neighbors
WARNING: Using 'neigh_modify every 1 delay 0 check yes' setting during minimization (../min.cpp:168)
Neighbor list info ...
  update every 1 steps, delay 0 steps, check yes
  max neighbors/atom: 2000, page size: 100000
  master list distance cutoff = 16
  ghost atom cutoff = 16
  binsize = 8, bins = 6 6 6
  3 neighbor lists, perpetual/occasional/extra = 3 0 0
  (1) pair buck6d/coul/gauss/dsf, perpetual, skip from (3)
      attributes: half, newton on
      pair build: skip
      stencil: none
      bin: none
  (2) pair lj/cut, perpetual, skip from (3)
      attributes: half, newton on
      pair build: skip
      stencil: none
      bin: none
  (3) neighbor class addition, perpetual
      attributes: half, newton on
      pair build: half/bin/newton
      stencil: half/bin/3d/newton
      bin: standard
Setting up cg style minimization ...
  Unit style    : real
  Current step  : 0
WARNING: Inconsistent image flags (../domain.cpp:786)
Per MPI rank memory allocation (min/avg/max) = 22.97 | 23.34 | 24.52 Mbytes
Step Temp E_pair E_mol TotEng Press 
       0            0   -15344.512    6482.8914   -8861.6207    5926.3236 
     500            0   -15736.816       3754.8   -11982.016    -2088.938 
Loop time of 1.88561 on 24 procs for 500 steps with 3156 atoms

98.3% CPU use with 24 MPI tasks x no OpenMP threads

Minimization stats:
  Stopping criterion = max force evaluations
  Energy initial, next-to-last, final = 
        -8861.62072656     -11981.9067651     -11982.0163193
  Force two-norm initial, final = 2575.23 15.1119
  Force max component initial, final = 152.077 2.89981
  Final line search alpha, max atom move = 0.00574544 0.0166607
  Iterations, force evaluations = 500 1000

MPI task timing breakdown:
Section |  min time  |  avg time  |  max time  |%varavg| %total
---------------------------------------------------------------
Pair    | 0.86263    | 1.0961     | 1.3958     |  12.8 | 58.13
Bond    | 0.124      | 0.15785    | 0.20326    |   5.5 |  8.37
Neigh   | 0.01503    | 0.015102   | 0.015194   |   0.0 |  0.80
Comm    | 0.23369    | 0.57763    | 0.81431    |  19.0 | 30.63
Output  | 0          | 0          | 0          |   0.0 |  0.00
Modify  | 0          | 0          | 0          |   0.0 |  0.00
Other   |            | 0.03896    |            |       |  2.07

Nlocal:    131.5 ave 147 max 117 min
Histogram: 4 1 0 3 2 3 6 4 0 1
Nghost:    3491.38 ave 3657 max 3400 min
Histogram: 14 2 0 0 0 0 0 0 0 8
Neighs:    7646.92 ave 11079 max 3423 min
Histogram: 1 1 1 4 3 3 3 5 1 2

Total # of neighbors = 183526
Ave neighs/atom = 58.1515
Ave special neighs/atom = 3.65019
Neighbor list builds = 10
Dangerous builds = 0
Neighbor list info ...
  update every 1 steps, delay 10 steps, check yes
  max neighbors/atom: 2000, page size: 100000
  master list distance cutoff = 16
  ghost atom cutoff = 16
  binsize = 8, bins = 6 6 6
  3 neighbor lists, perpetual/occasional/extra = 3 0 0
  (1) pair buck6d/coul/gauss/dsf, perpetual, skip from (3)
      attributes: half, newton on
      pair build: skip
      stencil: none
      bin: none
  (2) pair lj/cut, perpetual, skip from (3)
      attributes: half, newton on
      pair build: skip
      stencil: none
      bin: none
  (3) neighbor class addition, perpetual
      attributes: half, newton on
      pair build: half/bin/newton
      stencil: half/bin/3d/newton
      bin: standard
Setting up Verlet run ...
  Unit style    : real
  Current step  : 500
  Time step     : 1
WARNING: Inconsistent image flags (../domain.cpp:786)
Per MPI rank memory allocation (min/avg/max) = 22.62 | 22.78 | 23.4 Mbytes
Step Temp PotEng TotEng Press Volume Lx Ly Lz 
     500          110   -11982.016   -10947.526   -1625.3336     102002.7      46.7237      46.7237      46.7237 
    1000    94.298319   -11139.299   -10252.475   -485.60595     102002.7      46.7237      46.7237      46.7237 
    2000     110.4079   -10967.909   -9929.5828   -478.04367     102002.7      46.7237      46.7237      46.7237 
    3000    109.19025   -11011.502   -9984.6267   -262.86776     102002.7      46.7237      46.7237      46.7237 
    4000    109.39804   -11012.441   -9983.6118   -109.89792     102002.7      46.7237      46.7237      46.7237 
    5000    112.66195   -11010.603   -9951.0787   -411.91831     102002.7      46.7237      46.7237      46.7237 
    6000     108.7134   -11007.251   -9984.8606   -418.83374     102002.7      46.7237      46.7237      46.7237 
    7000    110.26395   -11009.733   -9972.7606   -459.56718     102002.7      46.7237      46.7237      46.7237 
    8000     109.8418   -10978.036   -9945.0336     -475.182     102002.7      46.7237      46.7237      46.7237 
    9000    110.84502   -11008.807     -9966.37   -398.52597     102002.7      46.7237      46.7237      46.7237 
   10000    107.95025   -11034.404   -10019.191   -456.32627     102002.7      46.7237      46.7237      46.7237 
   11000     109.8367   -10999.832   -9966.8774   -541.78026     102002.7      46.7237      46.7237      46.7237 
   12000    110.83254   -11009.709   -9967.3895   -363.17969     102002.7      46.7237      46.7237      46.7237 
   13000    113.03707   -11007.601   -9944.5485   -173.30787     102002.7      46.7237      46.7237      46.7237 
   14000    108.79038   -11012.591   -9989.4766   -530.83291     102002.7      46.7237      46.7237      46.7237 
   15000    109.94732    -11021.46   -9987.4651   -399.79194     102002.7      46.7237      46.7237      46.7237 
   16000    109.89677   -11000.014   -9966.4946   -548.08524     102002.7      46.7237      46.7237      46.7237 
   17000    110.88035   -11006.699   -9963.9293   -477.14147     102002.7      46.7237      46.7237      46.7237 
   18000    108.90053   -11027.097   -10002.946     -338.312     102002.7      46.7237      46.7237      46.7237 
   19000      112.563   -11011.627   -9953.0333   -438.87018     102002.7      46.7237      46.7237      46.7237 
   20000    110.04415   -11031.319   -9996.4138   -471.03031     102002.7      46.7237      46.7237      46.7237 
   21000    110.70145   -11022.762   -9981.6751   -276.48632     102002.7      46.7237      46.7237      46.7237 
   22000    109.87988   -11016.351   -9982.9903   -284.23589     102002.7      46.7237      46.7237      46.7237 
   23000    109.79828   -11020.426   -9987.8329   -370.57632     102002.7      46.7237      46.7237      46.7237 
   24000    112.19534   -11011.856   -9956.7195   -512.09739     102002.7      46.7237      46.7237      46.7237 
   25000     111.1054   -11003.308   -9958.4224    -379.0072     102002.7      46.7237      46.7237      46.7237 
   26000    106.65817   -11012.766   -10009.704    -573.9321     102002.7      46.7237      46.7237      46.7237 
   27000    109.40938   -10985.827   -9956.8916   -251.05271     102002.7      46.7237      46.7237      46.7237 
   28000    111.19111   -10985.585   -9939.8936    48.454606     102002.7      46.7237      46.7237      46.7237 
   29000    108.33142   -11007.002   -9988.2041    -383.1075     102002.7      46.7237      46.7237      46.7237 
   30000    108.31306   -11026.799   -10008.174   -249.61263     102002.7      46.7237      46.7237      46.7237 
   31000    109.74572   -11003.357   -9971.2584    -538.0906     102002.7      46.7237      46.7237      46.7237 
   32000    111.12008    -10975.75   -9930.7265   -377.11775     102002.7      46.7237      46.7237      46.7237 
   33000    111.28047   -10992.067   -9945.5349   -296.39254     102002.7      46.7237      46.7237      46.7237 
   34000    107.76624   -10999.811   -9986.3283   -552.41517     102002.7      46.7237      46.7237      46.7237 
   35000    112.10203   -10991.857   -9937.5987   -329.30453     102002.7      46.7237      46.7237      46.7237 
   36000    110.79834   -11023.284   -9981.2856   -539.99475     102002.7      46.7237      46.7237      46.7237 
   37000     111.6482   -11017.953   -9967.9626   -265.81122     102002.7      46.7237      46.7237      46.7237 
   38000    109.01355    -11036.75   -10011.537   -244.71646     102002.7      46.7237      46.7237      46.7237 
   39000    110.96961   -10993.926   -9950.3175   -350.92046     102002.7      46.7237      46.7237      46.7237 
   40000     110.3683   -11026.655   -9988.7007   -288.05058     102002.7      46.7237      46.7237      46.7237 
   41000    112.74917   -10975.364   -9915.0193   -231.89758     102002.7      46.7237      46.7237      46.7237 
   42000    109.53504    -11013.17   -9983.0523   -180.73861     102002.7      46.7237      46.7237      46.7237 
   43000    109.30833   -11021.403   -9993.4176   -451.57658     102002.7      46.7237      46.7237      46.7237 
   44000    109.19521    -10992.26   -9965.3382   -104.81039     102002.7      46.7237      46.7237      46.7237 
   45000    105.77085   -11000.141   -10005.424   -105.95115     102002.7      46.7237      46.7237      46.7237 
   46000    111.23203   -11010.351   -9964.2743   -323.63748     102002.7      46.7237      46.7237      46.7237 
   47000    112.14833   -11018.694   -9963.9997   -232.40152     102002.7      46.7237      46.7237      46.7237 
   48000    109.90466   -10999.732   -9966.1381   -478.39853     102002.7      46.7237      46.7237      46.7237 
   49000     107.7796   -11026.955   -10013.347   -493.11366     102002.7      46.7237      46.7237      46.7237 
   50000    110.67422   -10985.922   -9945.0913   -589.77076     102002.7      46.7237      46.7237      46.7237 
   51000    111.03071   -11005.534   -9961.3506   -805.02351     102002.7      46.7237      46.7237      46.7237 
   52000    110.37291   -11029.249   -9991.2517   -388.20319     102002.7      46.7237      46.7237      46.7237 
   53000    110.08128   -10989.299   -9954.0442   -200.71863     102002.7      46.7237      46.7237      46.7237 
   54000    108.60213   -11007.817   -9986.4734   -574.23754     102002.7      46.7237      46.7237      46.7237 
   55000    109.29261   -10982.777   -9954.9396   -356.27443     102002.7      46.7237      46.7237      46.7237 
   56000    112.04405   -11012.158   -9958.4448   -530.99346     102002.7      46.7237      46.7237      46.7237 
   57000     109.1574   -11021.428   -9994.8623   -714.60426     102002.7      46.7237      46.7237      46.7237 
   58000    112.27389   -10980.302   -9924.4273   -70.648538     102002.7      46.7237      46.7237      46.7237 
   59000    109.80282   -10991.549   -9958.9131   -478.85759     102002.7      46.7237      46.7237      46.7237 
   60000    111.67104   -11004.522   -9954.3164    -148.1571     102002.7      46.7237      46.7237      46.7237 
   61000    110.18151   -11025.963   -9989.7655   0.85227164     102002.7      46.7237      46.7237      46.7237 
   62000    109.93654   -11028.141   -9994.2472   -296.74972     102002.7      46.7237      46.7237      46.7237 
   63000    108.74861   -11004.609    -9981.888   -293.50026     102002.7      46.7237      46.7237      46.7237 
   64000    108.74124   -11014.513   -9991.8613   -76.038352     102002.7      46.7237      46.7237      46.7237 
   65000    111.86587    -11007.35    -9955.312   -278.05191     102002.7      46.7237      46.7237      46.7237 
   66000    107.30749   -11009.244   -10000.075   -398.48102     102002.7      46.7237      46.7237      46.7237 
   67000    109.06539   -11026.722   -10001.022   -416.67497     102002.7      46.7237      46.7237      46.7237 
   68000     112.2335   -11007.849   -9952.3537   -396.78306     102002.7      46.7237      46.7237      46.7237 
   69000     108.2505   -11027.271   -10009.234   -438.34741     102002.7      46.7237      46.7237      46.7237 
   70000    110.72716   -11011.151   -9969.8224   -256.87206     102002.7      46.7237      46.7237      46.7237 
   71000    108.31542   -11004.096    -9985.448   -384.35983     102002.7      46.7237      46.7237      46.7237 
   72000    107.62042   -11003.648   -9991.5362   -494.04187     102002.7      46.7237      46.7237      46.7237 
   73000    108.77737   -10999.477   -9976.4851   -631.82659     102002.7      46.7237      46.7237      46.7237 
   74000    109.34339   -11023.199   -9994.8842    -447.6652     102002.7      46.7237      46.7237      46.7237 
   75000    109.55032   -11018.494    -9988.233   -404.49029     102002.7      46.7237      46.7237      46.7237 
   76000    109.81007   -10997.469   -9964.7647   -718.94278     102002.7      46.7237      46.7237      46.7237 
   77000    111.90633   -10985.231    -9932.813   -653.49863     102002.7      46.7237      46.7237      46.7237 
   78000    108.59959   -11006.118   -9984.7981   -431.81767     102002.7      46.7237      46.7237      46.7237 
   79000    109.13624   -10998.914   -9972.5469   -194.46052     102002.7      46.7237      46.7237      46.7237 
   80000    109.69739   -11023.992    -9992.348   -512.65463     102002.7      46.7237      46.7237      46.7237 
   81000    109.27063    -11026.06   -9998.4296   -340.87153     102002.7      46.7237      46.7237      46.7237 
   82000    112.31904   -11020.782   -9964.4826   -540.61046     102002.7      46.7237      46.7237      46.7237 
   83000    111.09374   -11001.904   -9957.1276   -67.640097     102002.7      46.7237      46.7237      46.7237 
   84000    110.30587   -11024.721    -9987.354   -356.28662     102002.7      46.7237      46.7237      46.7237 
   85000    110.78349   -11019.956   -9978.0974   -216.59333     102002.7      46.7237      46.7237      46.7237 
   86000     111.6445   -11019.117   -9969.1614   -646.46062     102002.7      46.7237      46.7237      46.7237 
   87000    112.42944   -10997.158   -9939.8208   -501.11129     102002.7      46.7237      46.7237      46.7237 
   88000    109.47783   -11011.472   -9981.8922   -414.78114     102002.7      46.7237      46.7237      46.7237 
   89000    109.20384   -10999.838   -9972.8354    -441.8303     102002.7      46.7237      46.7237      46.7237 
   90000    112.55075   -11006.258   -9947.7791     -355.413     102002.7      46.7237      46.7237      46.7237 
   91000    107.56198   -11005.291   -9993.7294   -269.98052     102002.7      46.7237      46.7237      46.7237 
   92000    108.88102   -10990.699   -9966.7326   -591.32939     102002.7      46.7237      46.7237      46.7237 
   93000    108.65618   -11008.318   -9986.4656   -343.52777     102002.7      46.7237      46.7237      46.7237 
   94000    110.13306   -11019.987   -9984.2457   -536.59008     102002.7      46.7237      46.7237      46.7237 
   95000    107.59796   -10967.377   -9955.4763   -515.89768     102002.7      46.7237      46.7237      46.7237 
   96000    109.13208   -11008.134   -9981.8066   -453.19878     102002.7      46.7237      46.7237      46.7237 
   97000     111.0316   -11033.252   -9989.0599   -620.91139     102002.7      46.7237      46.7237      46.7237 
   98000    108.21631   -11006.361   -9988.6459   -209.09852     102002.7      46.7237      46.7237      46.7237 
   99000    109.45703   -11014.464   -9985.0797   -473.60521     102002.7      46.7237      46.7237      46.7237 
  100000    110.34971   -11009.418   -9971.6392   -530.06703     102002.7      46.7237      46.7237      46.7237 
  101000    107.76001   -11020.246   -10006.822   -579.67354     102002.7      46.7237      46.7237      46.7237 
  102000    110.67909   -11019.661   -9978.7847   -414.64991     102002.7      46.7237      46.7237      46.7237 
  103000    111.21567   -11018.859    -9972.936   -414.34299     102002.7      46.7237      46.7237      46.7237 
  104000     110.5603   -11011.187   -9971.4279   -257.64375     102002.7      46.7237      46.7237      46.7237 
  105000    109.88285   -11037.091   -10003.703   -801.15585     102002.7      46.7237      46.7237      46.7237 
  106000    110.20963   -11040.162   -10003.701   -530.80943     102002.7      46.7237      46.7237      46.7237 
  107000     110.1645   -11024.468   -9988.4307   -519.06355     102002.7      46.7237      46.7237      46.7237 
  108000    110.95004   -11032.611   -9989.1866   -749.72463     102002.7      46.7237      46.7237      46.7237 
  109000    110.26369   -11004.486   -9967.5163    -712.3288     102002.7      46.7237      46.7237      46.7237 
  110000    111.76544   -11009.454   -9958.3611   -764.89193     102002.7      46.7237      46.7237      46.7237 
  111000    108.78668   -11011.275   -9988.1959    -465.6948     102002.7      46.7237      46.7237      46.7237 
  112000    111.20271   -10989.738   -9943.9371   -357.84155     102002.7      46.7237      46.7237      46.7237 
  113000     109.5249    -10993.81   -9963.7876    -421.6662     102002.7      46.7237      46.7237      46.7237 
  114000    109.41542   -11008.574   -9979.5814   -195.03201     102002.7      46.7237      46.7237      46.7237 
  115000    110.64947    -10997.57   -9956.9723   -578.43181     102002.7      46.7237      46.7237      46.7237 
  116000    109.61054   -11012.893   -9982.0655   -562.91114     102002.7      46.7237      46.7237      46.7237 
  117000    108.43623   -11005.622   -9985.8381   -436.88306     102002.7      46.7237      46.7237      46.7237 
  118000    111.39731   -11002.339   -9954.7077   -504.94516     102002.7      46.7237      46.7237      46.7237 
  119000    110.99429   -11023.176   -9979.3356   -485.95058     102002.7      46.7237      46.7237      46.7237 
  120000     111.2737   -11025.606   -9979.1377   -451.45804     102002.7      46.7237      46.7237      46.7237 
  121000     109.7993   -11041.473   -10008.871   -452.33821     102002.7      46.7237      46.7237      46.7237 
  122000    109.31748    -11007.65   -9979.5784   -287.70926     102002.7      46.7237      46.7237      46.7237 
  123000    108.89656   -11000.889   -9976.7759   -278.07637     102002.7      46.7237      46.7237      46.7237 
  124000    112.88412   -11027.507   -9965.8933    -153.1431     102002.7      46.7237      46.7237      46.7237 
  125000    108.14074   -10987.472   -9970.4672   -277.85163     102002.7      46.7237      46.7237      46.7237 
  126000    108.90242   -10972.075   -9947.9073   -283.87153     102002.7      46.7237      46.7237      46.7237 
  127000    111.39923   -11006.145   -9958.4959   -428.95488     102002.7      46.7237      46.7237      46.7237 
  128000     108.2468   -11018.686   -10000.684    -593.1508     102002.7      46.7237      46.7237      46.7237 
  129000    113.50213   -10982.356   -9914.9306    -454.0989     102002.7      46.7237      46.7237      46.7237 
  130000    111.30018   -11025.109    -9978.391    -356.9779     102002.7      46.7237      46.7237      46.7237 
  131000    112.30902    -11008.72   -9952.5146   -582.21027     102002.7      46.7237      46.7237      46.7237 
  132000    111.47117   -11005.333   -9957.0074   -409.65576     102002.7      46.7237      46.7237      46.7237 
  133000    108.09015   -11016.299   -9999.7704   -806.45082     102002.7      46.7237      46.7237      46.7237 
  134000    107.94461   -10999.553   -9984.3926   -506.71738     102002.7      46.7237      46.7237      46.7237 
  135000    107.77727    -11016.33   -10002.743   -522.10635     102002.7      46.7237      46.7237      46.7237 
  136000     109.6666   -10997.062   -9965.7077   -593.95849     102002.7      46.7237      46.7237      46.7237 
  137000    111.83901   -11010.276   -9958.4907    -523.0806     102002.7      46.7237      46.7237      46.7237 
  138000    111.06398   -10996.478   -9951.9818   -158.49412     102002.7      46.7237      46.7237      46.7237 
  139000    108.29913   -11014.333   -9995.8381   -676.23359     102002.7      46.7237      46.7237      46.7237 
  140000     108.3104   -11016.857   -9998.2564   -199.95638     102002.7      46.7237      46.7237      46.7237 
  141000    110.27935   -10985.543   -9948.4254   -343.92043     102002.7      46.7237      46.7237      46.7237 
  142000    109.21453   -10995.989    -9968.886   -511.67246     102002.7      46.7237      46.7237      46.7237 
  143000    112.11997   -11036.441   -9982.0135   -172.74584     102002.7      46.7237      46.7237      46.7237 
  144000    108.70396   -10976.765   -9954.4634   -416.55321     102002.7      46.7237      46.7237      46.7237 
  145000    107.66945   -11014.801   -10002.229   -559.54246     102002.7      46.7237      46.7237      46.7237 
  146000    111.14101   -11020.282   -9975.0612   -204.18999     102002.7      46.7237      46.7237      46.7237 
  147000    109.37613   -11029.558   -10000.935   -606.75138     102002.7      46.7237      46.7237      46.7237 
  148000    111.16428   -11024.587   -9979.1477   -513.68337     102002.7      46.7237      46.7237      46.7237 
  149000    110.85123   -10988.308   -9945.8127   -113.73442     102002.7      46.7237      46.7237      46.7237 
  150000    111.08665    -11008.26   -9963.5504    -312.5712     102002.7      46.7237      46.7237      46.7237 
  151000    109.48531   -11011.937   -9982.2872   -580.78112     102002.7      46.7237      46.7237      46.7237 
  152000    111.23041   -11004.375   -9958.3135   -574.77545     102002.7      46.7237      46.7237      46.7237 
  153000    109.84694   -11026.623   -9993.5724   -683.19242     102002.7      46.7237      46.7237      46.7237 
  154000    109.02521   -11007.025   -9981.7022   -268.86222     102002.7      46.7237      46.7237      46.7237 
  155000    111.86963   -10984.669   -9932.5958   -618.42737     102002.7      46.7237      46.7237      46.7237 
  156000    112.17065   -11017.751    -9962.847   -625.26476     102002.7      46.7237      46.7237      46.7237 
  157000    110.23208   -11010.975   -9974.3021   -468.43067     102002.7      46.7237      46.7237      46.7237 
  158000    108.95117   -11000.832   -9976.2054   -539.55725     102002.7      46.7237      46.7237      46.7237 
  159000    111.35657   -11028.721   -9981.4728   -416.77122     102002.7      46.7237      46.7237      46.7237 
  160000    112.31057   -11011.286   -9955.0659   -600.31826     102002.7      46.7237      46.7237      46.7237 
  161000    111.71134   -10990.387   -9939.8026   -570.73057     102002.7      46.7237      46.7237      46.7237 
  162000    109.05632   -11011.345   -9985.7298   -573.25176     102002.7      46.7237      46.7237      46.7237 
  163000    108.53468   -10983.273   -9962.5634   -241.69797     102002.7      46.7237      46.7237      46.7237 
  164000    112.04262   -10980.123   -9926.4236   -488.77169     102002.7      46.7237      46.7237      46.7237 
  165000    111.99511   -11025.103   -9971.8496   -467.96048     102002.7      46.7237      46.7237      46.7237 
  166000    110.41319   -11003.868   -9965.4925   -22.998359     102002.7      46.7237      46.7237      46.7237 
  167000    107.72806   -11010.296    -9997.172   -392.66936     102002.7      46.7237      46.7237      46.7237 
  168000    110.83514   -10997.559   -9955.2147    31.840761     102002.7      46.7237      46.7237      46.7237 
  169000    109.86346   -11004.126   -9970.9195   -411.94673     102002.7      46.7237      46.7237      46.7237 
  170000    109.64663   -11025.678   -9994.5112   -478.37494     102002.7      46.7237      46.7237      46.7237 
  171000     112.6822   -11002.562   -9942.8468   -389.53175     102002.7      46.7237      46.7237      46.7237 
  172000    110.47801   -11036.629    -9997.643    -613.5897     102002.7      46.7237      46.7237      46.7237 
  173000    109.66418    -10980.46   -9949.1284   -166.97377     102002.7      46.7237      46.7237      46.7237 
  174000    107.36217   -10994.558   -9984.8752   -650.82875     102002.7      46.7237      46.7237      46.7237 
  175000    111.32474   -11002.434   -9955.4857   -466.96489     102002.7      46.7237      46.7237      46.7237 
  176000    112.19388   -11000.419   -9945.2961   -546.78391     102002.7      46.7237      46.7237      46.7237 
  177000    110.66804   -11017.425   -9976.6519   -812.19465     102002.7      46.7237      46.7237      46.7237 
  178000    110.35305   -11020.422   -9982.6118   -373.62014     102002.7      46.7237      46.7237      46.7237 
  179000    108.96964   -11014.676   -9989.8755   -772.03132     102002.7      46.7237      46.7237      46.7237 
  180000    111.17245   -10998.784   -9953.2675   -539.58364     102002.7      46.7237      46.7237      46.7237 
  181000    110.48303   -11025.455   -9986.4223   -544.60136     102002.7      46.7237      46.7237      46.7237 
  182000    111.51034   -10988.876   -9940.1821    -418.4855     102002.7      46.7237      46.7237      46.7237 
  183000    109.96011   -11002.292   -9968.1774   -278.51741     102002.7      46.7237      46.7237      46.7237 
  184000    110.50598   -11019.029   -9979.7809   -418.15337     102002.7      46.7237      46.7237      46.7237 
  185000    108.07155   -11032.405   -10016.051   -400.96673     102002.7      46.7237      46.7237      46.7237 
  186000    109.14525   -11008.851    -9982.399   -493.01074     102002.7      46.7237      46.7237      46.7237 
  187000    108.15031   -11015.327   -9998.2318   -437.54745     102002.7      46.7237      46.7237      46.7237 
  188000    109.08763   -11004.444    -9978.534   -222.06099     102002.7      46.7237      46.7237      46.7237 
  189000    105.60535   -10999.954   -10006.793   -424.65447     102002.7      46.7237      46.7237      46.7237 
  190000    108.31873   -11004.266   -9985.5873   -567.37628     102002.7      46.7237      46.7237      46.7237 
  191000    107.75657   -10991.956   -9978.5639   -457.74321     102002.7      46.7237      46.7237      46.7237 
  192000    108.10879   -11005.452   -9988.7477   -725.78365     102002.7      46.7237      46.7237      46.7237 
  193000    110.25962   -10973.407   -9936.4751   -185.89609     102002.7      46.7237      46.7237      46.7237 
  194000    109.37031   -11008.893   -9980.3248   -414.40902     102002.7      46.7237      46.7237      46.7237 
  195000      108.831   -10975.716   -9952.2199   -460.52829     102002.7      46.7237      46.7237      46.7237 
  196000    108.14791   -11012.579   -9995.5066   -605.48792     102002.7      46.7237      46.7237      46.7237 
  197000    112.92596    -11022.98   -9960.9727   -846.85403     102002.7      46.7237      46.7237      46.7237 
  198000     110.9347   -10991.075   -9947.7947   -453.93759     102002.7      46.7237      46.7237      46.7237 
  199000    111.39445   -11007.179   -9959.5743   -318.16772     102002.7      46.7237      46.7237      46.7237 
  200000    110.19501   -11009.862   -9973.5377   -483.58012     102002.7      46.7237      46.7237      46.7237 
  201000    109.36574   -10976.603   -9948.0776   -508.02581     102002.7      46.7237      46.7237      46.7237 
  202000    112.68798   -10984.943   -9925.1742   -319.66832     102002.7      46.7237      46.7237      46.7237 
  203000    108.56924    -11009.31   -9988.2755   -435.97041     102002.7      46.7237      46.7237      46.7237 
  204000    108.69799   -11039.045     -10016.8   -189.90702     102002.7      46.7237      46.7237      46.7237 
  205000    108.55541   -11020.476   -9999.5718   -165.39059     102002.7      46.7237      46.7237      46.7237 
  206000     107.0401   -11008.709   -10002.055   -557.66986     102002.7      46.7237      46.7237      46.7237 
  207000    109.58377   -11017.773   -9987.1976   -480.53009     102002.7      46.7237      46.7237      46.7237 
  208000    109.61027   -11022.491   -9991.6665   -416.58871     102002.7      46.7237      46.7237      46.7237 
  209000    106.82845   -10994.092   -9989.4288    -369.0041     102002.7      46.7237      46.7237      46.7237 
  210000    109.89308   -11009.379   -9975.8946   -428.50767     102002.7      46.7237      46.7237      46.7237 
  211000    111.68327   -10995.774   -9945.4539   -542.75036     102002.7      46.7237      46.7237      46.7237 
  212000    110.03778   -11028.115   -9993.2695   -125.87636     102002.7      46.7237      46.7237      46.7237 
  213000    108.57403    -11006.89   -9985.8103   -149.50568     102002.7      46.7237      46.7237      46.7237 
  214000    111.59186   -11016.086   -9966.6252   -310.85058     102002.7      46.7237      46.7237      46.7237 
  215000    111.76616   -11001.708   -9950.6082   -325.72413     102002.7      46.7237      46.7237      46.7237 
  216000    110.12017   -11017.339   -9981.7187   -490.83703     102002.7      46.7237      46.7237      46.7237 
  217000    110.20628   -11049.957   -10013.527   -488.61717     102002.7      46.7237      46.7237      46.7237 
  218000    111.41431   -11019.774    -9971.983    -400.2331     102002.7      46.7237      46.7237      46.7237 
  219000    109.13136   -11031.587   -10005.266   -512.70136     102002.7      46.7237      46.7237      46.7237 
  220000    108.50925   -11017.085   -9996.6145   -355.49636     102002.7      46.7237      46.7237      46.7237 
  221000    107.90567   -11028.839   -10014.045   -481.52252     102002.7      46.7237      46.7237      46.7237 
  222000    111.51464   -11045.769   -9997.0341    -297.8286     102002.7      46.7237      46.7237      46.7237 
  223000     110.7251   -11007.701   -9966.3917   -68.108253     102002.7      46.7237      46.7237      46.7237 
  224000    110.71764   -11011.278   -9970.0384   -295.61987     102002.7      46.7237      46.7237      46.7237 
  225000    108.76329   -11001.161   -9978.3016   -543.40119     102002.7      46.7237      46.7237      46.7237 
  226000    109.04622   -10975.431   -9949.9104   -384.21808     102002.7      46.7237      46.7237      46.7237 
  227000    110.71871   -11002.718   -9961.4685   -411.00086     102002.7      46.7237      46.7237      46.7237 
  228000    108.80037   -11019.408   -9996.1993   -607.51387     102002.7      46.7237      46.7237      46.7237 
  229000    109.94533   -11039.857   -10005.881     -516.555     102002.7      46.7237      46.7237      46.7237 
  230000    109.29891   -10959.428   -9931.5314   -681.55719     102002.7      46.7237      46.7237      46.7237 
  231000    109.59499   -11003.816   -9973.1346   -613.26327     102002.7      46.7237      46.7237      46.7237 
  232000    111.65494   -11006.535   -9956.4808   -487.72946     102002.7      46.7237      46.7237      46.7237 
  233000    108.45423   -11019.178   -9999.2249   -706.73767     102002.7      46.7237      46.7237      46.7237 
  234000    110.18145   -11005.664   -9969.4672   -317.38332     102002.7      46.7237      46.7237      46.7237 
  235000    109.26923   -11007.365   -9979.7477   -381.74966     102002.7      46.7237      46.7237      46.7237 
  236000    111.23895   -11028.869   -9982.7273   -565.27282     102002.7      46.7237      46.7237      46.7237 
  237000    109.65958   -10984.456    -9953.167   -329.37742     102002.7      46.7237      46.7237      46.7237 
  238000    110.57227   -11028.317   -9988.4446   -481.71789     102002.7      46.7237      46.7237      46.7237 
  239000     109.8768   -11025.971   -9992.6398   -532.59842     102002.7      46.7237      46.7237      46.7237 
  240000    108.38978   -10989.577   -9970.2302    -404.4457     102002.7      46.7237      46.7237      46.7237 
  241000    108.63934   -11007.975   -9986.2813   -491.27092     102002.7      46.7237      46.7237      46.7237 
  242000    109.58476    -10974.25   -9943.6646    -454.8628     102002.7      46.7237      46.7237      46.7237 
  243000    107.87855   -11011.355    -9996.816   -519.49688     102002.7      46.7237      46.7237      46.7237 
  244000    111.33453   -11029.189   -9982.1484   -284.88521     102002.7      46.7237      46.7237      46.7237 
  245000    109.52208   -11002.498   -9972.5027   -403.68916     102002.7      46.7237      46.7237      46.7237 
  246000     108.4639   -11007.182   -9987.1381   -505.53533     102002.7      46.7237      46.7237      46.7237 
  247000    110.35377   -11016.735   -9978.9174   -607.47497     102002.7      46.7237      46.7237      46.7237 
  248000    108.84216    -11000.44   -9976.8391   -764.65868     102002.7      46.7237      46.7237      46.7237 
  249000    111.43659   -11035.476    -9987.475    -410.0307     102002.7      46.7237      46.7237      46.7237 
  250000    108.93579   -11032.874   -10008.392   -302.70523     102002.7      46.7237      46.7237      46.7237 
  251000    110.23384   -11010.077   -9973.3874   -647.95642     102002.7      46.7237      46.7237      46.7237 
  252000    111.62484   -11024.327   -9974.5561    -517.3438     102002.7      46.7237      46.7237      46.7237 
  253000     112.4498   -10986.638   -9929.1088   -373.73525     102002.7      46.7237      46.7237      46.7237 
  254000    108.24219   -11027.974   -10010.015   -317.91149     102002.7      46.7237      46.7237      46.7237 
  255000    108.34264   -11009.803   -9990.8998    -131.6678     102002.7      46.7237      46.7237      46.7237 
  256000    109.08566   -11013.237   -9987.3459     -460.833     102002.7      46.7237      46.7237      46.7237 
  257000    112.29134   -11031.257   -9975.2178   -471.85527     102002.7      46.7237      46.7237      46.7237 
  258000    111.05584   -10996.215   -9951.7956   -420.36635     102002.7      46.7237      46.7237      46.7237 
  259000    109.84837     -11004.5   -9971.4357   -637.95728     102002.7      46.7237      46.7237      46.7237 
  260000    110.99112   -11036.827   -9993.0162    -107.8159     102002.7      46.7237      46.7237      46.7237 
  261000    109.06122   -11010.477   -9984.8155   -210.45439     102002.7      46.7237      46.7237      46.7237 
  262000    105.98477   -11021.601   -10024.872   -289.72825     102002.7      46.7237      46.7237      46.7237 
  263000      110.212   -10999.846   -9963.3621   -55.308099     102002.7      46.7237      46.7237      46.7237 
  264000    109.25579   -11011.453   -9983.9618   -207.43549     102002.7      46.7237      46.7237      46.7237 
  265000    111.41109   -10996.702   -9948.9416   -222.36918     102002.7      46.7237      46.7237      46.7237 
  266000      110.182   -11016.414   -9980.2126   -107.36576     102002.7      46.7237      46.7237      46.7237 
  267000    108.93732   -10983.301   -9958.8048   -470.81256     102002.7      46.7237      46.7237      46.7237 
  268000    110.55198   -11008.846    -9969.165     -587.285     102002.7      46.7237      46.7237      46.7237 
  269000    113.16956   -10988.688   -9924.3904   -334.21096     102002.7      46.7237      46.7237      46.7237 
  270000    109.06007   -11007.152   -9981.5017   -642.99001     102002.7      46.7237      46.7237      46.7237 
  271000    109.12036   -11017.944   -9991.7262   -511.86809     102002.7      46.7237      46.7237      46.7237 
  272000    110.65034   -10977.915   -9937.3091   -373.50846     102002.7      46.7237      46.7237      46.7237 
  273000    110.81581   -10997.825   -9955.6625   -305.29044     102002.7      46.7237      46.7237      46.7237 
  274000    109.39888   -11017.481   -9988.6444   -363.51611     102002.7      46.7237      46.7237      46.7237 
  275000    111.22654   -11017.787   -9971.7621   -543.94819     102002.7      46.7237      46.7237      46.7237 
  276000    109.96793       -10981   -9946.8112   -295.63967     102002.7      46.7237      46.7237      46.7237 
  277000    108.39488   -10990.205     -9970.81   -403.23211     102002.7      46.7237      46.7237      46.7237 
  278000    108.91442   -11002.552   -9978.2714   -607.56474     102002.7      46.7237      46.7237      46.7237 
  279000    110.85787   -11000.155   -9957.5966   -535.33692     102002.7      46.7237      46.7237      46.7237 
  280000    111.78914   -10989.599    -9938.283   -664.00521     102002.7      46.7237      46.7237      46.7237 
  281000    111.09977   -11004.077   -9959.2444   -581.89354     102002.7      46.7237      46.7237      46.7237 
  282000    109.56377   -11002.469   -9972.0813   -686.36295     102002.7      46.7237      46.7237      46.7237 
  283000    108.71941   -11003.417   -9980.9702   -736.50903     102002.7      46.7237      46.7237      46.7237 
  284000    110.27624   -10995.809   -9958.7208   -568.30483     102002.7      46.7237      46.7237      46.7237 
  285000    106.75303   -10996.239   -9992.2844   -773.19495     102002.7      46.7237      46.7237      46.7237 
  286000    108.58667    -11016.22   -9995.0215   -726.73187     102002.7      46.7237      46.7237      46.7237 
  287000    109.46596   -11015.261    -9985.793   -518.07016     102002.7      46.7237      46.7237      46.7237 
  288000    110.38368   -11035.319   -9997.2207   -755.91183     102002.7      46.7237      46.7237      46.7237 
  289000     110.7657    -11028.79   -9987.0987   -665.84954     102002.7      46.7237      46.7237      46.7237 
  290000    110.96158   -10993.106    -9949.573   -354.76323     102002.7      46.7237      46.7237      46.7237 
  291000    109.15571   -11030.732   -10004.182   -702.69705     102002.7      46.7237      46.7237      46.7237 
  292000     109.5102   -11020.093   -9990.2093    -619.0175     102002.7      46.7237      46.7237      46.7237 
  293000    111.45187   -11018.523   -9970.3789   -302.66744     102002.7      46.7237      46.7237      46.7237 
  294000    111.88043   -10990.424   -9938.2497     -588.722     102002.7      46.7237      46.7237      46.7237 
  295000     110.4527   -11008.199   -9969.4518   -258.08943     102002.7      46.7237      46.7237      46.7237 
  296000    110.27464   -11010.011   -9972.9379   -311.79433     102002.7      46.7237      46.7237      46.7237 
  297000    111.06153   -11026.067   -9981.5937   -770.52281     102002.7      46.7237      46.7237      46.7237 
  298000    110.44186   -10996.668   -9958.0229   -531.39833     102002.7      46.7237      46.7237      46.7237 
  299000    108.55515   -11024.845   -10003.943   -709.74456     102002.7      46.7237      46.7237      46.7237 
  300000    110.26587    -11013.46   -9976.4692    -671.6961     102002.7      46.7237      46.7237      46.7237 
  301000    111.55048   -11022.853   -9973.7819   -628.12519     102002.7      46.7237      46.7237      46.7237 
  302000    111.25287   -10997.408   -9951.1355   -435.58024     102002.7      46.7237      46.7237      46.7237 
  303000    110.01049   -11003.692   -9969.1037    -477.1415     102002.7      46.7237      46.7237      46.7237 
  304000    108.86983   -10986.989   -9963.1276   -507.85435     102002.7      46.7237      46.7237      46.7237 
  305000    112.31044   -10994.373   -9938.1546   -805.24046     102002.7      46.7237      46.7237      46.7237 
  306000    107.69668   -11019.551   -10006.722   -327.72283     102002.7      46.7237      46.7237      46.7237 
  307000    110.44895   -10990.696    -9951.984   -395.06695     102002.7      46.7237      46.7237      46.7237 
  308000     107.1089   -11005.308   -9998.0068   -587.78428     102002.7      46.7237      46.7237      46.7237 
  309000    112.21042   -10962.899   -9907.6212   -81.211878     102002.7      46.7237      46.7237      46.7237 
  310000    109.77248   -11012.805   -9980.4545   -514.58685     102002.7      46.7237      46.7237      46.7237 
  311000    109.24257   -11008.371   -9981.0039    -434.3836     102002.7      46.7237      46.7237      46.7237 
  312000     107.0901   -11026.874    -10019.75   -632.50937     102002.7      46.7237      46.7237      46.7237 
  313000    109.00034   -11014.459   -9989.3703   -279.82452     102002.7      46.7237      46.7237      46.7237 
  314000    111.80275   -10982.102   -9930.6579   -291.74432     102002.7      46.7237      46.7237      46.7237 
  315000    111.04409   -11021.622   -9977.3131   -365.52313     102002.7      46.7237      46.7237      46.7237 
  316000    110.94989   -11013.573   -9970.1496   -382.64381     102002.7      46.7237      46.7237      46.7237 
  317000    111.78748   -10995.944   -9944.6438    -802.7244     102002.7      46.7237      46.7237      46.7237 
  318000    110.09088   -11023.915     -9988.57   -744.80641     102002.7      46.7237      46.7237      46.7237 
  319000    108.55492   -11003.199   -9982.2991   -323.84408     102002.7      46.7237      46.7237      46.7237 
  320000    112.04628   -10974.358   -9920.6233   -678.37997     102002.7      46.7237      46.7237      46.7237 
  321000    111.12207   -11029.028   -9983.9859   -710.70555     102002.7      46.7237      46.7237      46.7237 
  322000    109.09033   -10994.909   -9968.9741   -780.38291     102002.7      46.7237      46.7237      46.7237 
  323000    110.47964   -11014.477   -9975.4762    -618.3681     102002.7      46.7237      46.7237      46.7237 
  324000     109.3325    -10994.46   -9966.2477   -411.23802     102002.7      46.7237      46.7237      46.7237 
  325000    110.47472   -11010.032   -9971.0776   -573.27319     102002.7      46.7237      46.7237      46.7237 
  326000    108.62165   -11001.783   -9980.2551   -513.85979     102002.7      46.7237      46.7237      46.7237 
  327000    109.86833   -10998.258   -9965.0063   -410.14158     102002.7      46.7237      46.7237      46.7237 
  328000    107.44595   -10988.614   -9978.1431    -264.9641     102002.7      46.7237      46.7237      46.7237 
  329000    109.98913   -10988.356   -9953.9682   -527.35123     102002.7      46.7237      46.7237      46.7237 
  330000    113.39798   -10997.171   -9930.7248   -733.70953     102002.7      46.7237      46.7237      46.7237 
  331000    107.94379   -11022.082   -10006.929   -351.77761     102002.7      46.7237      46.7237      46.7237 
  332000    109.79872    -11011.99   -9979.3931   -198.84105     102002.7      46.7237      46.7237      46.7237 
  333000    109.46915   -10989.839   -9960.3415   -358.23309     102002.7      46.7237      46.7237      46.7237 
  334000    110.84851   -11003.969   -9961.4993   -350.49288     102002.7      46.7237      46.7237      46.7237 
  335000    111.10024   -10999.767     -9954.93   -560.91804     102002.7      46.7237      46.7237      46.7237 
  336000    108.81809   -11000.974   -9977.5987   -223.00568     102002.7      46.7237      46.7237      46.7237 
  337000    109.99954   -10983.564   -9949.0781   -200.67168     102002.7      46.7237      46.7237      46.7237 
  338000    108.28527   -11005.205   -9986.8409   -379.04395     102002.7      46.7237      46.7237      46.7237 
  339000    112.03403   -10993.061   -9939.4424   -412.43043     102002.7      46.7237      46.7237      46.7237 
  340000    110.19143   -11019.534   -9983.2433   -333.56422     102002.7      46.7237      46.7237      46.7237 
  341000    107.59004   -11005.916   -9994.0899   -454.86609     102002.7      46.7237      46.7237      46.7237 
  342000    108.08495   -10998.803    -9982.323   -124.92035     102002.7      46.7237      46.7237      46.7237 
  343000     112.4257   -11029.103   -9971.8003   -609.11697     102002.7      46.7237      46.7237      46.7237 
  344000    107.60154   -11010.165    -9998.231   -308.92643     102002.7      46.7237      46.7237      46.7237 
  345000     111.2388    -11002.66   -9956.5191   -262.01956     102002.7      46.7237      46.7237      46.7237 
  346000    110.15436   -10993.381    -9957.439    -558.1449     102002.7      46.7237      46.7237      46.7237 
  347000    110.28986   -11007.551   -9970.3346    -558.1224     102002.7      46.7237      46.7237      46.7237 
  348000    110.87887   -11014.714   -9971.9589   -888.41647     102002.7      46.7237      46.7237      46.7237 
  349000    111.48641   -11006.517   -9958.0484   -568.67998     102002.7      46.7237      46.7237      46.7237 
  350000    109.99916   -11019.787   -9985.3044   -606.50614     102002.7      46.7237      46.7237      46.7237 
  351000    109.49308   -10986.288   -9956.5657   -660.25424     102002.7      46.7237      46.7237      46.7237 
  352000    107.47343   -10982.094   -9971.3648   -354.22836     102002.7      46.7237      46.7237      46.7237 
  353000    111.30355   -11003.391   -9956.6412   -663.48545     102002.7      46.7237      46.7237      46.7237 
  354000    111.04479   -10985.475   -9941.1592   -355.90196     102002.7      46.7237      46.7237      46.7237 
  355000     109.6471   -11010.882   -9979.7106   -408.38699     102002.7      46.7237      46.7237      46.7237 
  356000    107.20069   -11008.996   -10000.832   -184.41386     102002.7      46.7237      46.7237      46.7237 
  357000    112.54704   -11010.168   -9951.7243   -272.60192     102002.7      46.7237      46.7237      46.7237 
  358000     107.6431   -11019.224   -10006.899   -137.52042     102002.7      46.7237      46.7237      46.7237 
  359000     112.6032   -10988.629   -9929.6576    -227.0293     102002.7      46.7237      46.7237      46.7237 
  360000    109.70153   -11019.571   -9987.8873    -450.0264     102002.7      46.7237      46.7237      46.7237 
  361000    112.08874   -10997.911   -9943.7777   -1.0390743     102002.7      46.7237      46.7237      46.7237 
  362000    109.06008   -11031.134   -10005.483   -301.61055     102002.7      46.7237      46.7237      46.7237 
  363000    106.57075   -10966.966   -9964.7264   -367.83065     102002.7      46.7237      46.7237      46.7237 
  364000    110.50962   -10998.686   -9959.4036   -285.16335     102002.7      46.7237      46.7237      46.7237 
  365000    112.35779   -11005.894     -9949.23   -906.07617     102002.7      46.7237      46.7237      46.7237 
  366000    107.82918   -11010.218   -9996.1428   -367.38685     102002.7      46.7237      46.7237      46.7237 
  367000    109.76667   -10995.502   -9963.2063   -607.84709     102002.7      46.7237      46.7237      46.7237 
  368000    108.16432   -11012.291   -9995.0645   -411.73451     102002.7      46.7237      46.7237      46.7237 
  369000    110.12133   -10976.726   -9941.0949   -334.63294     102002.7      46.7237      46.7237      46.7237 
  370000    110.93473   -10987.465   -9944.1844   -523.54861     102002.7      46.7237      46.7237      46.7237 
  371000    107.75085    -10958.59   -9945.2522   -378.57025     102002.7      46.7237      46.7237      46.7237 
  372000    113.19874   -11002.471    -9937.898   -410.68131     102002.7      46.7237      46.7237      46.7237 
  373000    109.70705    -10996.07   -9964.3351   -311.42087     102002.7      46.7237      46.7237      46.7237 
  374000    112.86502    -11020.24   -9958.8055   -115.83721     102002.7      46.7237      46.7237      46.7237 
  375000    108.33818    -11009.37   -9990.5082   -191.57533     102002.7      46.7237      46.7237      46.7237 
  376000    108.29013   -10998.857   -9980.4471   -466.99176     102002.7      46.7237      46.7237      46.7237 
  377000     109.0303    -11010.82   -9985.4496   -623.94145     102002.7      46.7237      46.7237      46.7237 
  378000     110.4251    -10976.59   -9938.1021   -336.83063     102002.7      46.7237      46.7237      46.7237 
  379000    112.35495   -11011.871   -9955.2334   -728.27592     102002.7      46.7237      46.7237      46.7237 
  380000     112.4919   -10985.331   -9927.4056   -675.86643     102002.7      46.7237      46.7237      46.7237 
  381000    107.85133   -10992.085   -9977.8018   -371.16678     102002.7      46.7237      46.7237      46.7237 
  382000    111.33513   -10991.217    -9944.171   -300.94959     102002.7      46.7237      46.7237      46.7237 
  383000    109.38096   -11025.635   -9996.9665   -322.30518     102002.7      46.7237      46.7237      46.7237 
  384000    111.33601   -11012.327   -9965.2722   -389.12266     102002.7      46.7237      46.7237      46.7237 
  385000    109.69334    -11024.09   -9992.4843   -527.76207     102002.7      46.7237      46.7237      46.7237 
  386000     109.7191   -11009.704   -9977.8556   -463.59647     102002.7      46.7237      46.7237      46.7237 
  387000     109.3386   -10989.424   -9961.1535   -317.45691     102002.7      46.7237      46.7237      46.7237 
  388000      111.365   -11017.769   -9970.4422   -91.260517     102002.7      46.7237      46.7237      46.7237 
  389000     110.6973   -11021.339    -9980.291   -429.12144     102002.7      46.7237      46.7237      46.7237 
  390000    109.68512   -10993.089   -9961.5599    39.589106     102002.7      46.7237      46.7237      46.7237 
  391000    113.33321   -10993.931   -9928.0941   -340.42065     102002.7      46.7237      46.7237      46.7237 
  392000    110.94822   -11015.344   -9971.9367   -648.10138     102002.7      46.7237      46.7237      46.7237 
  393000    109.50407   -10999.711   -9969.8849   -531.58563     102002.7      46.7237      46.7237      46.7237 
  394000    110.00675   -11002.064   -9967.5106   -458.26317     102002.7      46.7237      46.7237      46.7237 
  395000    109.06301   -11004.856   -9979.1781   -433.48747     102002.7      46.7237      46.7237      46.7237 
  396000    108.19857   -10990.677   -9973.1281   -125.73654     102002.7      46.7237      46.7237      46.7237 
  397000    110.11609   -10986.267   -9950.6852   -335.82932     102002.7      46.7237      46.7237      46.7237 
  398000    107.88972   -10971.938   -9957.2943   -389.58591     102002.7      46.7237      46.7237      46.7237 
  399000    109.33418   -10971.043   -9942.8142   -477.15084     102002.7      46.7237      46.7237      46.7237 
  400000    110.77351   -11026.524   -9984.7596   -357.43823     102002.7      46.7237      46.7237      46.7237 
  401000    111.92507   -10998.267   -9945.6728   -313.27721     102002.7      46.7237      46.7237      46.7237 
  402000    110.36646   -11042.167    -10004.23   -438.94071     102002.7      46.7237      46.7237      46.7237 
  403000    106.52813   -10992.461   -9990.6223   -578.21703     102002.7      46.7237      46.7237      46.7237 
  404000    111.05814   -10997.692   -9953.2509   -557.40114     102002.7      46.7237      46.7237      46.7237 
  405000    112.12258   -11001.011   -9946.5592   -342.29946     102002.7      46.7237      46.7237      46.7237 
  406000    110.91225   -11018.597   -9975.5275   -615.13687     102002.7      46.7237      46.7237      46.7237 
  407000    106.68946   -11030.534   -10027.177   -370.82116     102002.7      46.7237      46.7237      46.7237 
  408000    107.98922   -11002.861   -9987.2815   -251.86826     102002.7      46.7237      46.7237      46.7237 
  409000     109.5699   -11013.761   -9983.3161   -531.79815     102002.7      46.7237      46.7237      46.7237 
  410000    108.49094   -11003.266   -9982.9681   -314.87368     102002.7      46.7237      46.7237      46.7237 
  411000    110.16818    -11021.81   -9985.7378   -498.59012     102002.7      46.7237      46.7237      46.7237 
  412000    108.22297   -11023.407   -10005.628   -367.15478     102002.7      46.7237      46.7237      46.7237 
  413000    107.55946   -10997.502   -9985.9634   -451.31099     102002.7      46.7237      46.7237      46.7237 
  414000    113.01788   -10985.471   -9922.5996   -452.85288     102002.7      46.7237      46.7237      46.7237 
  415000     109.0395   -11005.822   -9980.3643   -680.47981     102002.7      46.7237      46.7237      46.7237 
  416000    112.63904    -10999.83   -9940.5214   -548.67747     102002.7      46.7237      46.7237      46.7237 
  417000    109.11394     -11024.6   -9998.4431   -555.69112     102002.7      46.7237      46.7237      46.7237 
  418000     107.7799   -10982.617   -9969.0055   -199.88901     102002.7      46.7237      46.7237      46.7237 
  419000    113.63601   -11033.934   -9965.2495   -363.24107     102002.7      46.7237      46.7237      46.7237 
  420000    109.75274   -11021.091   -9988.9265   -438.22993     102002.7      46.7237      46.7237      46.7237 
  421000    107.89475   -10995.101   -9980.4096   -476.71195     102002.7      46.7237      46.7237      46.7237 
  422000     113.1371   -11006.793   -9942.8006   -318.40092     102002.7      46.7237      46.7237      46.7237 
  423000    110.41784   -11019.159   -9980.7389   -381.59984     102002.7      46.7237      46.7237      46.7237 
  424000    111.05898   -11004.967   -9960.5174   -514.08402     102002.7      46.7237      46.7237      46.7237 
  425000    108.54678   -11042.996   -10022.173   -493.07367     102002.7      46.7237      46.7237      46.7237 
  426000    108.71956   -11018.942    -9996.494   -585.80733     102002.7      46.7237      46.7237      46.7237 
  427000    112.03958   -11032.888   -9979.2165   -539.41872     102002.7      46.7237      46.7237      46.7237 
  428000    111.54501   -11011.934   -9962.9138   -110.09634     102002.7      46.7237      46.7237      46.7237 
  429000    111.37332   -11006.251   -9958.8455   -180.23865     102002.7      46.7237      46.7237      46.7237 
  430000    109.86187   -11028.856   -9995.6647    -317.0439     102002.7      46.7237      46.7237      46.7237 
  431000    111.18961   -10986.721   -9941.0437   -148.57502     102002.7      46.7237      46.7237      46.7237 
  432000    109.36776   -10999.505   -9970.9603   -419.81945     102002.7      46.7237      46.7237      46.7237 
  433000    111.27587   -11025.722   -9979.2325   -398.92961     102002.7      46.7237      46.7237      46.7237 
  434000    109.99889   -11000.739   -9966.2588   -515.97597     102002.7      46.7237      46.7237      46.7237 
  435000    111.19172   -11002.256   -9956.5586    -572.1493     102002.7      46.7237      46.7237      46.7237 
  436000    110.88256    -11033.36   -9990.5698   -445.34908     102002.7      46.7237      46.7237      46.7237 
  437000    110.26522   -10985.086   -9948.1014    -609.9338     102002.7      46.7237      46.7237      46.7237 
  438000    109.51702   -11038.174   -10008.226   -957.56853     102002.7      46.7237      46.7237      46.7237 
  439000     111.6862   -10993.917   -9943.5696   -444.87335     102002.7      46.7237      46.7237      46.7237 
  440000    109.91009   -11024.634   -9990.9894   -692.31093     102002.7      46.7237      46.7237      46.7237 
  441000    111.17826   -11015.598   -9970.0274    -505.0115     102002.7      46.7237      46.7237      46.7237 
  442000     109.5612   -11011.346   -9980.9829   -253.39352     102002.7      46.7237      46.7237      46.7237 
  443000     110.7852   -10990.304   -9948.4295   -367.90891     102002.7      46.7237      46.7237      46.7237 
  444000    111.26098   -11011.694   -9965.3452   -263.63024     102002.7      46.7237      46.7237      46.7237 
  445000    109.75859   -11011.389   -9979.1688   -168.29534     102002.7      46.7237      46.7237      46.7237 
  446000    109.42485   -11032.705   -10003.624   -521.17844     102002.7      46.7237      46.7237      46.7237 
  447000    112.48338   -11006.991   -9949.1465   -389.92797     102002.7      46.7237      46.7237      46.7237 
  448000    112.41429   -11013.886   -9956.6903   -285.51882     102002.7      46.7237      46.7237      46.7237 
  449000    109.09212   -11002.813   -9976.8613   -640.92763     102002.7      46.7237      46.7237      46.7237 
  450000    108.10697   -10996.526   -9979.8384    -251.2074     102002.7      46.7237      46.7237      46.7237 
  451000    108.05356   -11003.494    -9987.309   -218.37621     102002.7      46.7237      46.7237      46.7237 
  452000    111.23243   -10999.051   -9952.9703   -563.16631     102002.7      46.7237      46.7237      46.7237 
  453000    110.42203   -11025.863   -9987.4038   -588.84861     102002.7      46.7237      46.7237      46.7237 
  454000    106.74101   -11012.721    -10008.88   -517.13465     102002.7      46.7237      46.7237      46.7237 
  455000    110.17381   -11019.097   -9982.9721   -622.65707     102002.7      46.7237      46.7237      46.7237 
  456000    109.49713   -11002.244   -9972.4833   -411.74983     102002.7      46.7237      46.7237      46.7237 
  457000    111.61288    -11022.69   -9973.0313   -506.72385     102002.7      46.7237      46.7237      46.7237 
  458000    110.80775   -11026.997   -9984.9107   -613.05474     102002.7      46.7237      46.7237      46.7237 
  459000    111.93482   -11001.198   -9948.5115   -889.79386     102002.7      46.7237      46.7237      46.7237 
  460000     111.3931   -11014.345   -9966.7532   -300.87244     102002.7      46.7237      46.7237      46.7237 
  461000    108.38095   -11002.598   -9983.3339   -714.25516     102002.7      46.7237      46.7237      46.7237 
  462000    111.53607   -11000.745   -9951.8089   -406.70727     102002.7      46.7237      46.7237      46.7237 
  463000    110.96423   -11029.593   -9986.0352   -359.62762     102002.7      46.7237      46.7237      46.7237 
  464000    108.37117   -10999.576    -9980.404   -476.34304     102002.7      46.7237      46.7237      46.7237 
  465000    112.95687   -11009.982   -9947.6839   -324.42746     102002.7      46.7237      46.7237      46.7237 
  466000    109.63873    -11027.45   -9996.3572   -424.55366     102002.7      46.7237      46.7237      46.7237 
  467000    110.07006    -11012.63   -9977.4812   -654.50281     102002.7      46.7237      46.7237      46.7237 
  468000    110.94595   -10997.311   -9953.9245   -539.75319     102002.7      46.7237      46.7237      46.7237 
  469000    109.84089    -10999.84    -9966.846   -549.82718     102002.7      46.7237      46.7237      46.7237 
  470000     107.6835   -11028.495    -10015.79   -513.88992     102002.7      46.7237      46.7237      46.7237 
  471000    109.87918   -10995.266   -9961.9116   -275.33054     102002.7      46.7237      46.7237      46.7237 
  472000    109.27748   -10992.321   -9964.6257    -478.4623     102002.7      46.7237      46.7237      46.7237 
  473000    108.36717   -11024.117   -10004.983   -410.98846     102002.7      46.7237      46.7237      46.7237 
  474000    108.05411   -11002.491   -9986.3009   -415.37644     102002.7      46.7237      46.7237      46.7237 
  475000    112.19666   -11014.868   -9959.7198   -476.88469     102002.7      46.7237      46.7237      46.7237 
  476000    111.88717   -11027.377   -9975.1388   -354.30664     102002.7      46.7237      46.7237      46.7237 
  477000    109.91878   -11005.831   -9972.1043    -566.9002     102002.7      46.7237      46.7237      46.7237 
  478000    111.35643   -11005.902   -9958.6549   -145.43641     102002.7      46.7237      46.7237      46.7237 
  479000    110.25321    -11002.57   -9965.6986   -314.98704     102002.7      46.7237      46.7237      46.7237 
  480000    111.26684   -11018.991   -9972.5866   -296.89075     102002.7      46.7237      46.7237      46.7237 
  481000    113.54847   -11003.546   -9935.6849   -249.60582     102002.7      46.7237      46.7237      46.7237 
  482000    108.55799   -11012.031   -9991.1024   -281.96043     102002.7      46.7237      46.7237      46.7237 
  483000    107.74735   -11014.939   -10001.633   -518.87065     102002.7      46.7237      46.7237      46.7237 
  484000    109.90237   -11009.649   -9976.0769   -311.23627     102002.7      46.7237      46.7237      46.7237 
  485000    111.06121   -11010.097   -9965.6267   -417.30324     102002.7      46.7237      46.7237      46.7237 
  486000    111.48922   -11001.101   -9952.6056   -319.38453     102002.7      46.7237      46.7237      46.7237 
  487000    111.17389    -11015.73   -9970.2001   -433.48103     102002.7      46.7237      46.7237      46.7237 
  488000    109.30783   -11012.897   -9984.9163   -431.24768     102002.7      46.7237      46.7237      46.7237 
  489000    110.06988    -10982.32   -9947.1731   -659.99098     102002.7      46.7237      46.7237      46.7237 
  490000    107.84878   -10993.443   -9979.1841   -735.45027     102002.7      46.7237      46.7237      46.7237 
  491000    108.88918   -11021.077   -9997.0336   -603.25517     102002.7      46.7237      46.7237      46.7237 
  492000    109.55881   -10994.018   -9963.6767   -506.99057     102002.7      46.7237      46.7237      46.7237 
  493000    109.86512   -11048.124   -10014.902   -504.16962     102002.7      46.7237      46.7237      46.7237 
  494000    108.88981   -10996.239   -9972.1899   -72.338785     102002.7      46.7237      46.7237      46.7237 
  495000    112.53646   -11022.295   -9963.9511   -585.78893     102002.7      46.7237      46.7237      46.7237 
  496000    111.17329   -10991.303   -9945.7791   -573.27429     102002.7      46.7237      46.7237      46.7237 
  497000     110.6334   -11014.514    -9974.067   -486.47363     102002.7      46.7237      46.7237      46.7237 
  498000    111.55698    -11021.59   -9972.4569   -533.51292     102002.7      46.7237      46.7237      46.7237 
  499000    109.66485   -11021.107    -9989.769   -516.14514     102002.7      46.7237      46.7237      46.7237 
  500000    111.27977   -11020.921   -9974.3951   -286.22431     102002.7      46.7237      46.7237      46.7237 
  500500    108.78364   -10998.546    -9975.495   -538.14504     102002.7      46.7237      46.7237      46.7237 
Loop time of 890.507 on 24 procs for 500000 steps with 3156 atoms

Performance: 48.512 ns/day, 0.495 hours/ns, 561.478 timesteps/s
97.9% CPU use with 24 MPI tasks x no OpenMP threads

MPI task timing breakdown:
Section |  min time  |  avg time  |  max time  |%varavg| %total
---------------------------------------------------------------
Pair    | 303.47     | 459.22     | 620.36     | 494.3 | 51.57
Bond    | 48.816     | 78.616     | 120.11     | 219.8 |  8.83
Neigh   | 7.8192     | 7.8481     | 7.8704     |   0.6 |  0.88
Comm    | 144.98     | 329.22     | 513.49     | 677.0 | 36.97
Output  | 0.46043    | 0.46077    | 0.46482    |   0.1 |  0.05
Modify  | 4.3134     | 5.1148     | 5.8064     |  22.0 |  0.57
Other   |            | 10.02      |            |       |  1.13

Nlocal:    131.5 ave 176 max 96 min
Histogram: 2 2 4 5 2 2 3 1 0 3
Nghost:    3538.5 ave 3698 max 3424 min
Histogram: 3 8 5 0 0 0 0 1 1 6
Neighs:    7632.21 ave 14546 max 1908 min
Histogram: 1 4 5 2 2 4 0 2 1 3

Total # of neighbors = 183173
Ave neighs/atom = 58.0396
Ave special neighs/atom = 3.65019
Neighbor list builds = 4694
Dangerous builds = 0
Neighbor list info ...
  update every 1 steps, delay 10 steps, check yes
  max neighbors/atom: 2000, page size: 100000
  master list distance cutoff = 16
  ghost atom cutoff = 16
  binsize = 8, bins = 6 6 6
  3 neighbor lists, perpetual/occasional/extra = 3 0 0
  (1) pair buck6d/coul/gauss/dsf, perpetual, skip from (3)
      attributes: half, newton on
      pair build: skip
      stencil: none
      bin: none
  (2) pair lj/cut, perpetual, skip from (3)
      attributes: half, newton on
      pair build: skip
      stencil: none
      bin: none
  (3) neighbor class addition, perpetual
      attributes: half, newton on
      pair build: half/bin/newton
      stencil: half/bin/3d/newton
      bin: standard
Setting up Verlet run ...
  Unit style    : real
  Current step  : 500500
  Time step     : 1
WARNING: Inconsistent image flags (../domain.cpp:786)
Per MPI rank memory allocation (min/avg/max) = 24.22 | 24.58 | 24.66 Mbytes
Step Time TotEng KinEng PotEng E_mol E_pair Temp Pxx Pyy Pzz Pxy Pxz Pyz Cella Cellb Cellc CellAlpha CellBeta CellGamma Volume Press 
  500500       500000    -9975.495    1023.0509   -10998.546    4280.9119   -15279.458    108.78364   -504.08246   -340.61503   -769.73764   -223.19575   -159.23889    135.61117      46.7237      46.7237      46.7237           90           90           90     102002.7   -538.14504 
  501000       500500   -9963.9882    1044.6105   -11008.599    4280.6002   -15289.199    111.07613   -315.38378   -139.97408   -515.57374   -19.003602   -119.06828    148.05723      46.7237      46.7237      46.7237           90           90           90     102002.7   -323.64387 
  502000       501500   -10012.644    1022.9331   -11035.577    4270.3444   -15305.922    108.77111   -627.84363   -170.82277   -771.83622    93.231059    188.09357    -99.42893      46.7237      46.7237      46.7237           90           90           90     102002.7   -523.50087 
  503000       502500    -10008.32    1016.4937   -11024.813     4267.825   -15292.638    108.08639   -687.05118   -353.94582   -490.02072    358.60477   -50.659795   -127.28315      46.7237      46.7237      46.7237           90           90           90     102002.7   -510.33924 
  504000       503500   -9998.8208    1015.4449   -11014.266    4278.2567   -15292.522    107.97487   -767.20696   -582.57281   -413.27989   -319.75375     162.8433   -285.54897      46.7237      46.7237      46.7237           90           90           90     102002.7   -587.68655 
  505000       504500    -9979.083    1051.1138   -11030.197    4255.3226   -15285.519    111.76764      -489.25   -344.94843   -279.26415    80.750232   -21.575988   -25.672314      46.7237      46.7237      46.7237           90           90           90     102002.7   -371.15419 
  506000       505500   -9978.5911    1044.0712   -11022.662    4288.0007   -15310.663    111.01878   -692.83485   -736.05162   -294.16777     159.0375   -39.850224     220.7702      46.7237      46.7237      46.7237           90           90           90     102002.7   -574.35142 
  507000       506500   -9991.1983    1036.3779   -11027.576    4264.5615   -15292.138    110.20073   -341.12808   -426.41537   -841.26692    160.14543    40.194851   -20.535895      46.7237      46.7237      46.7237           90           90           90     102002.7   -536.27012 
  508000       507500   -9977.9155     1030.372   -11008.288    4287.8077   -15296.095    109.56211    -334.9823    35.897117   -90.507345    1.9404773    120.00168    188.52491      46.7237      46.7237      46.7237           90           90           90     102002.7   -129.86418 
  509000       508500   -9994.2226    1044.5245   -11038.747    4267.5634   -15306.311    111.06698  -0.41530735   -565.57183   -443.39313    67.884493   -69.981315   -214.97869      46.7237      46.7237      46.7237           90           90           90     102002.7   -336.46009 
  510000       509500   -9972.3269    1058.2317   -11030.559    4278.9467   -15309.505    112.52451   -670.35035   -555.77901   -48.373908    24.107882    12.698251   -176.86896      46.7237      46.7237      46.7237           90           90           90     102002.7   -424.83443 
  511000       510500   -9997.5876    1022.8794   -11020.467     4267.032   -15287.499     108.7654   -63.818817   -493.43501    -292.3803    39.475776    94.610025     63.53764      46.7237      46.7237      46.7237           90           90           90     102002.7   -283.21138 
  512000       511500   -9994.5552    1021.3092   -11015.864    4288.6409   -15304.505    108.59844   -362.39226   -567.41918   -378.10617   -214.03336    156.16194    12.764585      46.7237      46.7237      46.7237           90           90           90     102002.7   -435.97254 
  513000       512500    -9961.773    1056.6342   -11018.407    4279.4805   -15297.888    112.35464   -218.19321   -323.85027     259.0966    14.408276    -37.97991    198.46069      46.7237      46.7237      46.7237           90           90           90     102002.7   -94.315628 
  514000       513500   -9974.8161    1032.8225   -11007.639    4295.0215    -15302.66    109.82268   -387.07436   -183.59106   -702.12497    190.05691    325.65908   -317.31222      46.7237      46.7237      46.7237           90           90           90     102002.7   -424.26346 
  515000       514500   -9987.1928    1042.4095   -11029.602    4251.5958   -15281.198    110.84208   -104.67408   -396.00404    43.891304   -14.331569    124.94177    25.429376      46.7237      46.7237      46.7237           90           90           90     102002.7   -152.26227 
  516000       515500    -9989.956    1031.8384   -11021.794    4264.7316   -15286.526    109.71804    17.078677   -191.68755   -106.03529    180.06876   -42.483631    122.72617      46.7237      46.7237      46.7237           90           90           90     102002.7   -93.548053 
  517000       516500     -9996.72    1031.4956   -11028.216    4279.3985   -15307.614    109.68159   -585.33172   -971.38155   -673.63722    246.93318    65.111772    98.591678      46.7237      46.7237      46.7237           90           90           90     102002.7   -743.45016 
  518000       517500   -9940.3978    1026.4063   -10966.804    4293.3031   -15260.107    109.14043   -166.18437   -555.96288   -617.06785   -121.47881    -83.06678   -256.57843      46.7237      46.7237      46.7237           90           90           90     102002.7   -446.40503 
  519000       518500   -9992.2417     1038.362   -11030.604    4266.4361    -15297.04    110.41171   -242.56695     -440.586    -243.1398   -1.5754193   -349.05269   -290.68049      46.7237      46.7237      46.7237           90           90           90     102002.7   -308.76425 
  520000       519500   -9953.3818    1051.8556   -11005.237    4297.2291   -15302.466    111.84651   -391.64084   -691.92332   -834.38529    17.534758     48.69058   -194.74494      46.7237      46.7237      46.7237           90           90           90     102002.7   -639.31649 
  521000       520500   -9986.5351    1041.0922   -11027.627    4254.8693   -15282.497    110.70202    -398.3082   -712.98016    -554.3799    67.497385    104.12329   -71.555096      46.7237      46.7237      46.7237           90           90           90     102002.7   -555.22275 
  522000       521500   -9954.5519    1043.1783    -10997.73    4301.5088   -15299.239    110.92384   -589.25847   -998.86248    94.327864    313.91381   -153.52562   -168.98825      46.7237      46.7237      46.7237           90           90           90     102002.7   -497.93103 
  523000       522500   -9957.2372     1035.883    -10993.12     4289.449   -15282.569    110.14811   -636.07027   -534.50219   -625.02724   -148.22203   -177.18338    93.789274      46.7237      46.7237      46.7237           90           90           90     102002.7   -598.53323 
  524000       523500   -9954.4254    1047.5554   -11001.981    4280.9409   -15282.922    111.38927   -256.48801   -367.26931   -522.39525    -100.7448    141.93244    43.116483      46.7237      46.7237      46.7237           90           90           90     102002.7   -382.05086 
  525000       524500   -9992.4635    1023.6797   -11016.143     4286.452   -15302.595     108.8505   -594.25476   -332.62027    -474.6821   -53.036811    149.70763   -131.91495      46.7237      46.7237      46.7237           90           90           90     102002.7   -467.18571 
  526000       525500   -9947.7225    1065.7346   -11013.457    4291.5145   -15304.972    113.32231   -279.17628   -66.602701   -721.30619    26.367119   -107.75059    -30.40523      46.7237      46.7237      46.7237           90           90           90     102002.7   -355.69505 
  527000       526500   -9925.7419    1067.1135   -10992.855    4267.6874   -15260.543    113.46893   -20.664258   -542.35698    29.883744   -86.245759    190.66611    96.032925      46.7237      46.7237      46.7237           90           90           90     102002.7    -177.7125 
  528000       527500   -9939.9098    1058.7657   -10998.675    4263.0969   -15261.772    112.58128   -183.22838   -707.51793   -506.34406   -29.276549   -55.896479    150.10043      46.7237      46.7237      46.7237           90           90           90     102002.7   -465.69679 
  529000       528500   -9990.5248     1037.561   -11028.086     4268.353   -15296.439    110.32653   -551.72016   -418.77373   -846.47702    37.728466   -127.84916    21.779414      46.7237      46.7237      46.7237           90           90           90     102002.7   -605.65697 
  530000       529500   -9994.3237    1020.3766     -11014.7    4277.4421   -15292.142    108.49927   -409.86557   -381.88401   -224.47533    394.33174    18.479093    121.78917      46.7237      46.7237      46.7237           90           90           90     102002.7   -338.74163 
  531000       530500   -9958.5214    1034.9592   -10993.481    4298.2717   -15291.752    110.04988   -507.50765   -613.49785   -699.03193   -16.044511    93.905325   -115.36032      46.7237      46.7237      46.7237           90           90           90     102002.7   -606.67914 
  532000       531500   -9928.9557    1055.3782   -10984.334    4297.4464    -15281.78    112.22108   -129.58157   -354.20789   -587.31514   -374.30019    483.51633   -326.80958      46.7237      46.7237      46.7237           90           90           90     102002.7   -357.03487 
  533000       532500   -9986.0064    1025.4228   -11011.429    4274.9636   -15286.393    109.03585    -316.9432    -272.8599   -46.726273    53.534079    195.96726    102.44845      46.7237      46.7237      46.7237           90           90           90     102002.7   -212.17646 
  534000       533500   -9927.8178    1065.5692   -10993.387    4289.1766   -15282.564    113.30472   -335.77111   -832.31665   -936.73956   -52.230843    351.91901    72.532648      46.7237      46.7237      46.7237           90           90           90     102002.7   -701.60911 
  535000       534500   -9984.0392    1035.2679   -11019.307    4272.1562   -15291.463     110.0827   -641.12064   -254.35738    13.571835    57.384376     65.64534     250.3612      46.7237      46.7237      46.7237           90           90           90     102002.7   -293.96873 
  536000       535500   -10011.449    1028.2987   -11039.747     4243.667   -15283.414    109.34164   -401.74363   -763.51875   -815.19167    39.607733    26.993635    204.83841      46.7237      46.7237      46.7237           90           90           90     102002.7   -660.15135 
  537000       536500   -9948.6629    1062.6911   -11011.354    4290.3316   -15301.686    112.99868   -699.42338   -421.94056   -512.78154     77.72111   -81.110145    -76.77461      46.7237      46.7237      46.7237           90           90           90     102002.7   -544.71516 
  538000       537500   -9968.4185    1026.4753   -10994.894    4278.5559    -15273.45    109.14777   -309.31194    -144.1297   -90.599905     228.4956    258.95341    146.20869      46.7237      46.7237      46.7237           90           90           90     102002.7   -181.34718 
  539000       538500   -9981.6998    1039.1329   -11020.833    4269.7833   -15290.616    110.49368   -333.81305   -380.56756    -782.6953    119.99599     -210.349   -68.879504      46.7237      46.7237      46.7237           90           90           90     102002.7    -499.0253 
  540000       539500   -9950.7666    1050.8142   -11001.581    4312.7604   -15314.341    111.73578   -552.23156   -505.62638   -431.67336   -292.43177   -100.70975    88.157964      46.7237      46.7237      46.7237           90           90           90     102002.7   -496.51043 
  541000       540500   -9997.3254    1032.5818   -11029.907    4264.3922   -15294.299    109.79709   -607.59483   -512.20048   -191.34886   -87.156388    -168.3433    156.69561      46.7237      46.7237      46.7237           90           90           90     102002.7   -437.04806 
  542000       541500   -9982.1263    1048.9406   -11031.067    4250.4868   -15281.554    111.53656    -49.54375    2.2668484   -313.25213    125.67806   -22.184785    74.184921      46.7237      46.7237      46.7237           90           90           90     102002.7   -120.17634 
  543000       542500   -9976.1644    1044.8248   -11020.989    4248.0071   -15268.996    111.09891   -580.71957   -514.89127    -473.8616    96.831604   -41.918734    100.47742      46.7237      46.7237      46.7237           90           90           90     102002.7   -523.15748 
  544000       543500   -9923.1489    1032.6346   -10955.784    4302.0204   -15257.804     109.8027    88.502514   -584.76465    -438.3698    128.20207    259.57395    4.7796015      46.7237      46.7237      46.7237           90           90           90     102002.7   -311.54398 
  545000       544500   -9958.5642     1024.858   -10983.422    4284.4533   -15267.876    108.97579   -500.81656   -623.07913   -179.52313    95.087911    88.027282    242.06062      46.7237      46.7237      46.7237           90           90           90     102002.7   -434.47294 
  546000       545500   -9959.5301     1022.892   -10982.422    4278.5271   -15260.949    108.76674   -173.85642    -693.6485   -384.67874   -132.67312   -108.19027    61.296877      46.7237      46.7237      46.7237           90           90           90     102002.7   -417.39455 
  547000       546500   -9949.4486     1044.314   -10993.763    4286.8233   -15280.586     111.0446   -510.64988   -495.08612   -149.66827   -86.746764    21.535195   -211.41209      46.7237      46.7237      46.7237           90           90           90     102002.7   -385.13476 
  548000       547500   -9979.7167    1022.9974   -11002.714    4289.7907   -15292.505    108.77794   -514.01442    -762.6739   -510.21312   -210.12626    37.172811   -284.48564      46.7237      46.7237      46.7237           90           90           90     102002.7   -595.63382 
  549000       548500   -9961.2151     1056.235    -11017.45    4280.4343   -15297.884    112.31219   -64.514226    216.25263   -556.23755    10.407035    76.262201   -149.36348      46.7237      46.7237      46.7237           90           90           90     102002.7   -134.83305 
  550000       549500   -9953.0036    1057.0708   -11010.074    4263.7202   -15273.795    112.40106    125.88459    66.700549   -702.06017   -269.52536     97.16274   -107.21187      46.7237      46.7237      46.7237           90           90           90     102002.7   -169.82501 
  551000       550500   -9976.9425    1035.4203   -11012.363    4281.3409   -15293.704    110.09891   -533.35863   -867.13053   -27.508686   -191.10704    99.399121    18.176353      46.7237      46.7237      46.7237           90           90           90     102002.7   -475.99928 
  552000       551500   -9978.8341    1023.6388   -11002.473    4278.0815   -15280.554    108.84615   -165.14769   -755.06003   -214.31218    62.885886   -85.413068   -30.308491      46.7237      46.7237      46.7237           90           90           90     102002.7    -378.1733 
  553000       552500   -9962.2496    1041.9049   -11004.155    4279.3975   -15283.552    110.78843   -126.74467   -923.73974   -392.92598    70.070715   -286.06436    257.08226      46.7237      46.7237      46.7237           90           90           90     102002.7    -481.1368 
  554000       553500   -9959.9085    1051.4067   -11011.315     4276.078   -15287.393    111.79878   -281.30525    -391.9676   -446.09994    0.1753355   -123.62886    144.07746      46.7237      46.7237      46.7237           90           90           90     102002.7   -373.12426 
  555000       554500   -10002.922    1025.3225   -11028.245    4266.5975   -15294.842    109.02518   -432.19991   -526.87231    -221.7723    14.639801     17.60497    138.42843      46.7237      46.7237      46.7237           90           90           90     102002.7   -393.61484 
[...]
  936000       935500    -10011.35    992.47338   -11003.824    4309.2057   -15313.029    105.53225   -643.37381   -606.98444   -791.16474   -140.71044   -101.05587    4.2125252      46.7237      46.7237      46.7237           90           90           90     102002.7   -680.50766 
  937000       936500   -9976.0947    1032.4346   -11008.529    4270.3161   -15278.845    109.78143    -599.4098   -802.34196   -485.22215   -223.44566   -81.323355   -81.180461      46.7237      46.7237      46.7237           90           90           90     102002.7    -628.9913 
  938000       937500   -9987.9194    1028.8136   -11016.733    4275.7991   -15292.532     109.3964   -270.42142   -539.54693   -272.56126   -82.425263    3.5918858    378.85159      46.7237      46.7237      46.7237           90           90           90     102002.7    -360.8432 
  939000       938500   -9982.9559    1025.9701   -11008.926    4263.4614   -15272.387    109.09405   -39.551638   -500.59452   -502.43113   -108.17959    137.24645   -204.30032      46.7237      46.7237      46.7237           90           90           90     102002.7   -347.52576 
  940000       939500   -9958.2981    1042.3587   -11000.657    4290.3044   -15290.961    110.83669   -44.509095   -346.42908   -450.17375   -67.349035    99.373758    150.11775      46.7237      46.7237      46.7237           90           90           90     102002.7   -280.37064 
  941000       940500   -9948.7389    1049.4793   -10998.218    4289.3001   -15287.518    111.59384    -13.49489   -200.34872   -230.93691    75.903767     1.992546   -40.663798      46.7237      46.7237      46.7237           90           90           90     102002.7   -148.26017 
  942000       941500   -9986.9881    1017.0326   -11004.021    4283.5564   -15287.577     108.1437   -237.84695   -819.68142   -40.437651   -368.21211    165.96155    346.09346      46.7237      46.7237      46.7237           90           90           90     102002.7   -365.98867 
  943000       942500   -9964.0252    1050.2088   -11014.234     4293.129   -15307.363    111.67141    -189.3294   -718.19913   -433.48473   -29.101682   -29.513892   -180.78048      46.7237      46.7237      46.7237           90           90           90     102002.7   -447.00442 
  944000       943500   -9976.3992    1027.1986   -11003.598    4285.2032   -15288.801    109.22467   -506.89578   -699.37427   -406.13756   -26.231902    18.178286   -9.2409401      46.7237      46.7237      46.7237           90           90           90     102002.7    -537.4692 
  945000       944500   -10001.013     1019.125   -11020.138    4289.5398   -15309.678    108.36619   -432.28032   -733.69861   -435.90257   -45.385765   -109.29005   -153.97755      46.7237      46.7237      46.7237           90           90           90     102002.7    -533.9605 
  946000       945500   -9978.2789    1035.8667   -11014.146    4287.9329   -15302.079    110.14638   -338.22709   -646.63844   -345.82907    309.09429    17.633203    57.441671      46.7237      46.7237      46.7237           90           90           90     102002.7   -443.56487 
  947000       946500   -9951.7533    1034.3385   -10986.092    4290.7951   -15276.887    109.98387   -11.438944    -621.3271   -263.55074   -420.52656    221.79582   -219.31429      46.7237      46.7237      46.7237           90           90           90     102002.7   -298.77226 
  948000       947500   -9942.7415    1036.3126   -10979.054    4306.1023   -15285.156    110.19379   -1078.8284   -538.95763    -488.0705    33.540017    230.64889    11.476852      46.7237      46.7237      46.7237           90           90           90     102002.7   -701.95216 
  949000       948500    -9957.964    1033.9733   -10991.937    4316.5132    -15308.45    109.94505   -1019.4941   -379.62458   -397.31489   -62.890325   -97.353019   -74.359563      46.7237      46.7237      46.7237           90           90           90     102002.7   -598.81118 
  950000       949500   -9941.9833    1058.3766    -11000.36    4297.1564   -15297.516    112.53991   -661.61045   -814.70041   -472.03122     109.7657   -288.81816   -54.273951      46.7237      46.7237      46.7237           90           90           90     102002.7   -649.44736 
  951000       950500    -9972.838     1028.996   -11001.834    4278.7306   -15280.565    109.41579   -360.06746   -196.81656   -111.37912     88.27212    132.40895    212.81061      46.7237      46.7237      46.7237           90           90           90     102002.7   -222.75438 
  952000       951500   -9926.4215    1047.4171   -10973.839     4311.585   -15285.424    111.37456   -808.64099    -557.8945    -413.3837   -123.78031    105.98616    -253.3571      46.7237      46.7237      46.7237           90           90           90     102002.7    -593.3064 
  953000       952500   -9976.1305    1047.3356   -11023.466    4276.8918   -15300.358    111.36589   -212.72918   -140.45445   -283.37625    94.073831   -66.446474    77.659395      46.7237      46.7237      46.7237           90           90           90     102002.7   -212.18663 
  954000       953500   -9995.0416    1018.6723   -11013.714    4273.0605   -15286.774    108.31805   -144.53312   -171.72245   -484.13405    218.20159   -293.33684    22.103933      46.7237      46.7237      46.7237           90           90           90     102002.7   -266.79654 
  955000       954500   -9959.0563    1036.6908   -10995.747    4301.1731    -15296.92      110.234   -197.84403   -780.15332   -430.15558   -291.54307   -42.802414    139.23604      46.7237      46.7237      46.7237           90           90           90     102002.7   -469.38431 
  956000       955500   -9955.7461    1045.0926   -11000.839     4298.982   -15299.821    111.12739    25.125892   -139.50445   -445.56109    -151.3114   -78.202151   -37.049995      46.7237      46.7237      46.7237           90           90           90     102002.7   -186.64655 
  957000       956500   -10000.672    1033.3409   -11034.012    4279.7639   -15313.776    109.87779   -583.76216   -391.39762   -584.69161   -34.210998    241.18677     86.65387      46.7237      46.7237      46.7237           90           90           90     102002.7   -519.95046 
  958000       957500    -9966.309    1032.8063   -10999.115    4293.4494   -15292.565    109.82096   -469.15686   -382.44594   -700.47691     294.6833   -220.22471    12.240747      46.7237      46.7237      46.7237           90           90           90     102002.7    -517.3599 
  959000       958500   -9994.5773    1044.5546   -11039.132    4247.1224   -15286.254    111.07019   -176.77696    9.8244184   -599.95676    200.60553   -246.12325    122.00693      46.7237      46.7237      46.7237           90           90           90     102002.7   -255.63644 
  960000       959500    -9988.572    1035.0045   -11023.577    4278.8672   -15302.444     110.0547   -608.00162   -795.08523    -536.0085    232.05851    326.53443   -87.465533      46.7237      46.7237      46.7237           90           90           90     102002.7   -646.36512 
  961000       960500   -9953.5032    1051.1896   -11004.693    4281.9607   -15286.654     111.7757   -668.04342   -585.13233   -248.52261    77.469571    25.390385    34.820293      46.7237      46.7237      46.7237           90           90           90     102002.7   -500.56612 
  962000       961500   -9939.8084    1055.1772   -10994.986    4291.7866   -15286.772    112.19971   -405.70304   -518.20649   -666.91994    35.935527   -30.208912  -0.48735573      46.7237      46.7237      46.7237           90           90           90     102002.7   -530.27649 
  963000       962500   -9972.0814    1032.8027   -11004.884     4285.755   -15290.639    109.82057   -364.83317   -280.85745   -690.63239    82.379527   -26.520887   -97.121125      46.7237      46.7237      46.7237           90           90           90     102002.7     -445.441 
  964000       963500   -9945.8728    1058.2964   -11004.169    4276.7425   -15280.912    112.53138   -54.256537   -353.83499   -17.359419   -186.75948    98.955564   -115.73377      46.7237      46.7237      46.7237           90           90           90     102002.7   -141.81698 
  965000       964500   -9962.7602    1035.3869   -10998.147    4277.5886   -15275.736    110.09535    -984.4343   -251.63555   -307.34672   -340.69599      127.584    1.9837541      46.7237      46.7237      46.7237           90           90           90     102002.7   -514.47219 
  966000       965500     -9995.81    1030.8627   -11026.673    4279.0161   -15305.689    109.61428   -582.93016   -613.36805   -612.25913    318.73137    83.024559   -37.078111      46.7237      46.7237      46.7237           90           90           90     102002.7   -602.85244 
  967000       966500    -10006.02    1013.2318   -11019.251    4275.0521   -15294.304    107.73955   -829.94562   -332.30713   -379.34236    230.18527    151.66521   -56.842895      46.7237      46.7237      46.7237           90           90           90     102002.7   -513.86504 
  968000       967500   -9983.1458     1035.453   -11018.599    4279.7877   -15298.387    110.10238   -722.15165   -103.44275   -552.13299   -144.48154   -137.35193   -109.99133      46.7237      46.7237      46.7237           90           90           90     102002.7   -459.24247 
  969000       968500    -9994.717    1027.1787   -11021.896    4271.9703   -15293.866    109.22256   -510.00882   -469.91392   -632.12586    113.64752    -82.93291    262.23324      46.7237      46.7237      46.7237           90           90           90     102002.7   -537.34953 
  970000       969500   -10001.597    1007.6154   -11009.212    4268.8726   -15278.085    107.14235   -1004.6976   -580.65963   -586.40678   -3.7074396   -148.25078    230.85296      46.7237      46.7237      46.7237           90           90           90     102002.7   -723.92134 
  971000       970500    -9971.592    1046.7634   -11018.355    4273.5657   -15291.921    111.30505   -303.49619   -605.30257   -399.59048     195.7953   -167.42118   -87.035675      46.7237      46.7237      46.7237           90           90           90     102002.7   -436.12975 
  972000       971500   -10001.697     1047.417   -11049.114    4280.1238   -15329.238    111.37455   -669.64736   -589.04634   -560.20648   -167.14051   -132.71444    83.848451      46.7237      46.7237      46.7237           90           90           90     102002.7   -606.30006 
  973000       972500   -9946.0653    1048.9704   -10995.036    4298.3189   -15293.355    111.53972   -703.72216   -466.87823   -952.16647    167.39253   -107.21612    49.502764      46.7237      46.7237      46.7237           90           90           90     102002.7   -707.58895 
  974000       973500   -9978.4561    1037.7958   -11016.252    4286.2622   -15302.514     110.3515   -163.84783   -656.00436   -510.57275    64.219666    10.173806    362.25702      46.7237      46.7237      46.7237           90           90           90     102002.7   -443.47498 
  975000       974500   -9963.3778    1053.6941   -11017.072    4283.4941   -15300.566    112.04201   -852.18768   -609.52323   -630.33434   -81.328196   -242.93711    93.371754      46.7237      46.7237      46.7237           90           90           90     102002.7   -697.34842 
  976000       975500   -9990.7853    1038.0027   -11028.788    4270.7822    -15299.57     110.3735   -371.95062   -639.57352   -570.96363   -172.76222    15.107323   -202.97448      46.7237      46.7237      46.7237           90           90           90     102002.7   -527.49592 
  977000       976500   -10028.294    1024.3607   -11052.654    4252.0257    -15304.68    108.92291   -796.09823   -547.16974   -1142.2057   -111.89423    82.155662   -16.167987      46.7237      46.7237      46.7237           90           90           90     102002.7   -828.49121 
  978000       977500   -9958.5621      1050.15   -11008.712     4287.427   -15296.139    111.66515   -318.35398   -128.28953   -726.13608    248.62356   -4.1699907   -5.6241293      46.7237      46.7237      46.7237           90           90           90     102002.7   -390.92653 
  979000       978500   -10006.504     1022.544   -11029.048    4266.3834   -15295.431    108.72974    -500.9853    -212.9624   -841.63756   -300.11449     100.6338   -129.62172      46.7237      46.7237      46.7237           90           90           90     102002.7   -518.52842 
  980000       979500   -9969.4169    1016.1743   -10985.591    4307.1264   -15292.718    108.05243   -430.29531   -371.22044    272.87542   -58.773198    48.320303    92.267304      46.7237      46.7237      46.7237           90           90           90     102002.7   -176.21344 
  981000       980500   -9983.9269    1026.6647   -11010.592    4284.4869   -15295.079     109.1679    29.338407   -67.037306    23.338601    12.638053   -99.641068    -49.64468      46.7237      46.7237      46.7237           90           90           90     102002.7   -4.7867659 
  982000       981500   -9980.6606    1020.1813   -11000.842    4297.0858   -15297.928    108.47851   -597.29843   -554.25805   -796.38461    223.29281   -324.72681   -113.63172      46.7237      46.7237      46.7237           90           90           90     102002.7    -649.3137 
  983000       982500   -9957.3797    1040.4889   -10997.869    4308.1686   -15306.037    110.63786   -293.52123   -240.41468   -823.42375   -311.17313   -8.3593084   -60.200886      46.7237      46.7237      46.7237           90           90           90     102002.7   -452.45322 
  984000       983500   -9983.8886    1038.5622   -11022.451     4287.243   -15309.694    110.43299   -121.52639   -368.15244   -519.69822   -227.54551      -44.206    67.520413      46.7237      46.7237      46.7237           90           90           90     102002.7   -336.45902 
  985000       984500   -9959.2625    1050.3513   -11009.614    4280.5485   -15290.162    111.68656   -265.55232   -522.77529   -302.04233   -6.0029831   -190.52735     1.444363      46.7237      46.7237      46.7237           90           90           90     102002.7   -363.45665 
  986000       985500   -9965.1488    1050.6728   -11015.822    4289.1805   -15305.002    111.72075   -734.94948   -932.33384   -432.66604    -173.4008    -39.13782    128.72682      46.7237      46.7237      46.7237           90           90           90     102002.7   -699.98312 
  987000       986500   -9999.0963    1015.3386   -11014.435    4284.5372   -15298.972    107.96357   -832.80682   -662.41221   -636.21191   -124.71615    14.801387    356.43031      46.7237      46.7237      46.7237           90           90           90     102002.7   -710.47698 
  988000       987500   -9982.0994    1036.6935   -11018.793    4272.1021   -15290.895    110.23429   -551.89746   -327.48777   -536.13642   -79.891455    367.43192   -38.057856      46.7237      46.7237      46.7237           90           90           90     102002.7   -471.84055 
  989000       988500   -9961.1976    1045.1008   -11006.298    4321.0638   -15327.362    111.12826   -81.298004   -499.37162   -331.60851   -142.34836   -64.289701    63.467779      46.7237      46.7237      46.7237           90           90           90     102002.7   -304.09271 
  990000       989500   -9997.7604    1027.9032   -11025.664    4277.9976   -15303.661     109.2996    -521.7631   -504.37441   -1042.3311   -158.81326   -77.122103    25.754564      46.7237      46.7237      46.7237           90           90           90     102002.7   -689.48952 
  991000       990500   -9966.7501    1030.3538   -10997.104    4291.6099   -15288.714    109.56017   -214.35176   -326.61069    199.18476    174.07082    44.492332    91.501483      46.7237      46.7237      46.7237           90           90           90     102002.7    -113.9259 
  992000       991500   -9955.9297    1041.1388   -10997.069    4298.0875   -15295.156    110.70697    126.55411   -538.90612    -742.5904    350.01994   -80.824938   -47.800639      46.7237      46.7237      46.7237           90           90           90     102002.7    -384.9808 
  993000       992500   -9979.4053    1032.6136   -11012.019    4282.8766   -15294.895    109.80046   -544.48528    -462.2656   -564.85264    69.757064    58.999092    163.41714      46.7237      46.7237      46.7237           90           90           90     102002.7   -523.86784 
  994000       993500    -9944.943    1071.1185   -11016.062    4278.2746   -15294.336    113.89479    17.609162   -586.12969   -713.85173   -141.91514    118.43521    87.675034      46.7237      46.7237      46.7237           90           90           90     102002.7   -427.45742 
  995000       994500   -9993.4842    1017.8695   -11011.354    4293.3451   -15304.699    108.23269   -165.52686   -382.53028    -574.6092   -66.785336   -199.39957   -113.80526      46.7237      46.7237      46.7237           90           90           90     102002.7   -374.22212 
  996000       995500   -9968.9575    1035.7482   -11004.706    4285.3234   -15290.029    110.13377    -135.7498   -384.78156    -864.4134    290.72406   -109.95994    -152.3613      46.7237      46.7237      46.7237           90           90           90     102002.7   -461.64825 
  997000       996500    -9942.343    1039.3421   -10981.685    4308.5807   -15290.266    110.51592    36.072103   -745.62089   -496.34741    123.49073   -78.352051    128.20353      46.7237      46.7237      46.7237           90           90           90     102002.7    -401.9654 
  998000       997500   -9995.1871    1021.4973   -11016.684    4285.6851    -15302.37    108.61844     45.35592   -454.23262   -183.19846   -157.16161   -75.814656   -6.5525648      46.7237      46.7237      46.7237           90           90           90     102002.7   -197.35839 
  999000       998500   -9983.7915     1022.356   -11006.148    4292.8638   -15299.011    108.70975   -158.73181   -189.02395   -194.18576    158.05906    51.886984   -33.833655      46.7237      46.7237      46.7237           90           90           90     102002.7   -180.64717 
 1000000       999500   -9937.8683    1059.1343   -10997.003     4296.137    -15293.14    112.62048   -373.76632   -486.92078   -371.24013   -99.452629    -48.14057   -104.19965      46.7237      46.7237      46.7237           90           90           90     102002.7   -410.64241 
 1000500      1000000   -9962.5232    1023.3233   -10985.846    4296.5621   -15282.409     108.8126   -14.693846   -611.71185    -62.96051    139.00763   -140.60265    -32.15287      46.7237      46.7237      46.7237           90           90           90     102002.7   -229.78874 
Loop time of 1055.74 on 24 procs for 500000 steps with 3156 atoms

Performance: 40.919 ns/day, 0.587 hours/ns, 473.601 timesteps/s
98.2% CPU use with 24 MPI tasks x no OpenMP threads

MPI task timing breakdown:
Section |  min time  |  avg time  |  max time  |%varavg| %total
---------------------------------------------------------------
Pair    | 311.5      | 553.66     | 756.32     | 617.3 | 52.44
Bond    | 35.587     | 82.466     | 133.45     | 322.2 |  7.81
Neigh   | 8.0001     | 8.0145     | 8.0266     |   0.2 |  0.76
Comm    | 143.15     | 387.47     | 674.55     | 871.3 | 36.70
Output  | 0.54269    | 0.57911    | 0.58082    |   1.0 |  0.05
Modify  | 12.489     | 13.64      | 14.505     |  18.8 |  1.29
Other   |            | 9.911      |            |       |  0.94

Nlocal:    131.5 ave 178 max 92 min
Histogram: 2 3 1 3 5 3 4 0 1 2
Nghost:    3517.38 ave 3589 max 3449 min
Histogram: 2 1 2 4 3 4 3 2 2 1
Neighs:    7637.62 ave 14146 max 2947 min
Histogram: 6 2 3 2 1 2 2 2 1 3

Total # of neighbors = 183303
Ave neighs/atom = 58.0808
Ave special neighs/atom = 3.65019
Neighbor list builds = 4686
Dangerous builds = 0
Total wall time: 0:32:28
