LAMMPS (30 Mar 2018)
Reading data file ...
  orthogonal box = (0 0 0) to (46.7237 46.7237 46.7237)
  2 by 2 by 4 MPI processor grid
  reading atoms ...
  3296 atoms
  scanning bonds ...
  5 = max bonds/atom
  scanning angles ...
  10 = max angles/atom
  scanning dihedrals ...
  32 = max dihedrals/atom
  scanning impropers ...
  3 = max impropers/atom
  reading bonds ...
  2064 bonds
  reading angles ...
  3696 angles
  reading dihedrals ...
  6240 dihedrals
  reading impropers ...
  1008 impropers
Finding 1-2 1-3 1-4 neighbors ...
  special bond factors lj:   0          0          0         
  special bond factors coul: 0          0          0         
  5 = max # of 1-2 neighbors
  8 = max # of 1-3 neighbors
  20 = max # of 1-4 neighbors
  19 = max # of special neighbors
Finding 1-2 1-3 1-4 neighbors ...
  special bond factors lj:   0          0          1         
  special bond factors coul: 1          1          1         
  5 = max # of 1-2 neighbors
  8 = max # of 1-3 neighbors
  19 = max # of special neighbors
WARNING: Using 'neigh_modify every 1 delay 0 check yes' setting during minimization (../min.cpp:168)
Neighbor list info ...
  update every 1 steps, delay 0 steps, check yes
  max neighbors/atom: 2000, page size: 100000
  master list distance cutoff = 16
  ghost atom cutoff = 16
  binsize = 8, bins = 6 6 6
  3 neighbor lists, perpetual/occasional/extra = 3 0 0
  (1) pair buck6d/coul/gauss/dsf, perpetual, skip from (3)
      attributes: half, newton on
      pair build: skip
      stencil: none
      bin: none
  (2) pair lj/cut, perpetual, skip from (3)
      attributes: half, newton on
      pair build: skip
      stencil: none
      bin: none
  (3) neighbor class addition, perpetual
      attributes: half, newton on
      pair build: half/bin/newton
      stencil: half/bin/3d/newton
      bin: standard
Setting up cg style minimization ...
  Unit style    : real
  Current step  : 0
WARNING: Inconsistent image flags (../domain.cpp:786)
Per MPI rank memory allocation (min/avg/max) = 23.02 | 23.48 | 23.92 Mbytes
Step Temp E_pair E_mol TotEng Press 
       0            0    -15912.89    6482.8914   -9429.9988    6443.9211 
     500            0   -16288.203    3785.6417   -12502.561   -1509.8198 
Loop time of 4.86027 on 16 procs for 500 steps with 3296 atoms

99.8% CPU use with 16 MPI tasks x no OpenMP threads

Minimization stats:
  Stopping criterion = max force evaluations
  Energy initial, next-to-last, final = 
         -9429.9987602     -12502.5297573     -12502.5610939
  Force two-norm initial, final = 2574.98 8.98796
  Force max component initial, final = 152.147 1.31989
  Final line search alpha, max atom move = 0.00629445 0.00830796
  Iterations, force evaluations = 500 1000

MPI task timing breakdown:
Section |  min time  |  avg time  |  max time  |%varavg| %total
---------------------------------------------------------------
Pair    | 2.3698     | 3.1081     | 3.9975     |  23.5 | 63.95
Bond    | 0.29293    | 0.36085    | 0.45589    |   7.0 |  7.42
Neigh   | 0.029423   | 0.029518   | 0.029613   |   0.0 |  0.61
Comm    | 0.32718    | 1.3121     | 2.0778     |  38.5 | 27.00
Output  | 0          | 0          | 0          |   0.0 |  0.00
Modify  | 0          | 0          | 0          |   0.0 |  0.00
Other   |            | 0.04977    |            |       |  1.02

Nlocal:    206 ave 232 max 183 min
Histogram: 2 1 0 3 2 4 1 2 0 1
Nghost:    4120.06 ave 4143 max 4105 min
Histogram: 3 2 2 3 0 2 2 0 1 1
Neighs:    11500.4 ave 17108 max 6670 min
Histogram: 2 1 2 3 1 0 3 2 1 1

Total # of neighbors = 184006
Ave neighs/atom = 55.8271
Ave special neighs/atom = 3.49515
Neighbor list builds = 8
Dangerous builds = 0
Neighbor list info ...
  update every 1 steps, delay 10 steps, check yes
  max neighbors/atom: 2000, page size: 100000
  master list distance cutoff = 16
  ghost atom cutoff = 16
  binsize = 8, bins = 6 6 6
  3 neighbor lists, perpetual/occasional/extra = 3 0 0
  (1) pair buck6d/coul/gauss/dsf, perpetual, skip from (3)
      attributes: half, newton on
      pair build: skip
      stencil: none
      bin: none
  (2) pair lj/cut, perpetual, skip from (3)
      attributes: half, newton on
      pair build: skip
      stencil: none
      bin: none
  (3) neighbor class addition, perpetual
      attributes: half, newton on
      pair build: half/bin/newton
      stencil: half/bin/3d/newton
      bin: standard
Setting up Verlet run ...
  Unit style    : real
  Current step  : 500
  Time step     : 1
WARNING: Inconsistent image flags (../domain.cpp:786)
Per MPI rank memory allocation (min/avg/max) = 22.67 | 22.76 | 23.01 Mbytes
Step Temp PotEng TotEng Press Volume Lx Ly Lz 
     500           91   -12502.561    -11608.78   -1109.2739     102002.7      46.7237      46.7237      46.7237 
    1000    76.982419     -11766.1   -11009.997   -189.19633     102002.7      46.7237      46.7237      46.7237 
    2000    92.489772   -11616.922   -10708.508    72.060466     102002.7      46.7237      46.7237      46.7237 
    3000    92.856251   -11635.728   -10723.715    676.30637     102002.7      46.7237      46.7237      46.7237 
    4000    93.456944   -11635.572    -10717.66    442.91928     102002.7      46.7237      46.7237      46.7237 
    5000    90.340727   -11649.545   -10762.239    182.14571     102002.7      46.7237      46.7237      46.7237 
    6000    89.964561    -11624.55   -10740.939    417.56252     102002.7      46.7237      46.7237      46.7237 
    7000    89.630851   -11653.185   -10772.852    288.13018     102002.7      46.7237      46.7237      46.7237 
    8000    89.762447   -11650.802   -10769.176    360.10537     102002.7      46.7237      46.7237      46.7237 
    9000    89.929695   -11628.272   -10745.004    48.676185     102002.7      46.7237      46.7237      46.7237 
   10000    91.597803   -11639.403    -10739.75    365.84489     102002.7      46.7237      46.7237      46.7237 
   11000    91.669398    -11632.25   -10731.894    282.98468     102002.7      46.7237      46.7237      46.7237 
   12000    89.239263   -11649.057    -10772.57    271.54289     102002.7      46.7237      46.7237      46.7237 
   13000     90.47958   -11657.769     -10769.1    245.06085     102002.7      46.7237      46.7237      46.7237 
   14000       89.654   -11642.821    -10762.26    146.19637     102002.7      46.7237      46.7237      46.7237 
   15000    90.523087   -11635.215   -10746.118    360.93431     102002.7      46.7237      46.7237      46.7237 
   16000    90.329331   -11647.319   -10760.125    239.48201     102002.7      46.7237      46.7237      46.7237 
   17000    92.356241   -11655.639   -10748.537     207.5204     102002.7      46.7237      46.7237      46.7237 
   18000    91.535954   -11640.276   -10741.231    343.94034     102002.7      46.7237      46.7237      46.7237 
   19000    92.638606   -11642.768   -10732.893     401.5207     102002.7      46.7237      46.7237      46.7237 
   20000    90.629185   -11652.422   -10762.283     326.9826     102002.7      46.7237      46.7237      46.7237 
   21000    90.840524    -11639.05   -10746.835    321.76511     102002.7      46.7237      46.7237      46.7237 
   22000    89.098219   -11660.893   -10785.791    344.67184     102002.7      46.7237      46.7237      46.7237 
   23000    90.340203   -11649.962   -10762.662    157.00002     102002.7      46.7237      46.7237      46.7237 
   24000     90.55112   -11660.754   -10771.382    384.29389     102002.7      46.7237      46.7237      46.7237 
   25000    91.106148   -11641.071   -10746.247    269.71979     102002.7      46.7237      46.7237      46.7237 
   26000     91.23469     -11661.3   -10765.214    480.66404     102002.7      46.7237      46.7237      46.7237 
   27000    91.149257   -11649.159   -10753.912    378.36808     102002.7      46.7237      46.7237      46.7237 
   28000    90.518919   -11667.619   -10778.563    134.64563     102002.7      46.7237      46.7237      46.7237 
   29000    90.285506   -11641.211   -10754.448    597.27868     102002.7      46.7237      46.7237      46.7237 
   30000    88.458517   -11655.576   -10786.756    240.01984     102002.7      46.7237      46.7237      46.7237 
   31000    91.089333   -11642.308   -10747.649    332.98654     102002.7      46.7237      46.7237      46.7237 
   32000    90.183297    -11659.55    -10773.79    332.19543     102002.7      46.7237      46.7237      46.7237 
   33000    91.573402   -11664.412   -10764.999    79.150338     102002.7      46.7237      46.7237      46.7237 
   34000    93.052154    -11696.18   -10782.243    430.76372     102002.7      46.7237      46.7237      46.7237 
   35000    93.668104   -11667.223   -10747.236    630.16733     102002.7      46.7237      46.7237      46.7237 
   36000    91.760002   -11655.987   -10754.742    430.97758     102002.7      46.7237      46.7237      46.7237 
   37000    90.868225   -11674.282   -10781.795     420.3293     102002.7      46.7237      46.7237      46.7237 
   38000    92.152729   -11666.763   -10761.661    523.77418     102002.7      46.7237      46.7237      46.7237 
   39000    92.131846   -11656.324   -10751.426    419.91871     102002.7      46.7237      46.7237      46.7237 
   40000    89.755811   -11664.094   -10782.533    457.62139     102002.7      46.7237      46.7237      46.7237 
   41000    91.499564   -11659.042   -10760.354    48.856529     102002.7      46.7237      46.7237      46.7237 
   42000    89.639084   -11661.028   -10780.614     117.6724     102002.7      46.7237      46.7237      46.7237 
   43000     90.78678    -11657.46   -10765.773    349.32139     102002.7      46.7237      46.7237      46.7237 
   44000    91.356795   -11667.236   -10769.951    445.39526     102002.7      46.7237      46.7237      46.7237 
   45000    90.718954   -11664.897   -10773.876    527.81149     102002.7      46.7237      46.7237      46.7237 
   46000    92.563775   -11658.412   -10749.272    457.21829     102002.7      46.7237      46.7237      46.7237 
   47000    91.882021   -11659.127   -10756.683    465.41745     102002.7      46.7237      46.7237      46.7237 
   48000    91.687643    -11668.51   -10767.976    240.51535     102002.7      46.7237      46.7237      46.7237 
   49000    89.789819   -11679.079   -10797.184    72.018401     102002.7      46.7237      46.7237      46.7237 
   50000     91.24349   -11676.852   -10780.679    304.31197     102002.7      46.7237      46.7237      46.7237 
   51000    91.903559   -11657.406   -10754.751    412.67355     102002.7      46.7237      46.7237      46.7237 
   52000    91.337154   -11680.378   -10783.286    361.86836     102002.7      46.7237      46.7237      46.7237 
   53000     90.10713   -11675.001    -10789.99    245.54085     102002.7      46.7237      46.7237      46.7237 
   54000    90.356593   -11700.534   -10813.073    96.282032     102002.7      46.7237      46.7237      46.7237 
   55000    89.368082    -11673.98   -10796.228    312.02446     102002.7      46.7237      46.7237      46.7237 
   56000     91.63856   -11668.283    -10768.23    457.09871     102002.7      46.7237      46.7237      46.7237 
   57000    91.591139   -11670.407    -10770.82    485.24709     102002.7      46.7237      46.7237      46.7237 
   58000    91.670647    -11682.45   -10782.082    432.51893     102002.7      46.7237      46.7237      46.7237 
   59000    92.226248   -11686.772   -10780.947    291.02872     102002.7      46.7237      46.7237      46.7237 
   60000    87.522557   -11678.701   -10819.074    257.90615     102002.7      46.7237      46.7237      46.7237 
   61000    93.816721   -11671.264   -10749.818     675.2865     102002.7      46.7237      46.7237      46.7237 
   62000    91.568069   -11655.083   -10755.723    378.55539     102002.7      46.7237      46.7237      46.7237 
   63000    90.928832   -11681.547   -10788.465    278.99699     102002.7      46.7237      46.7237      46.7237 
   64000    89.838771   -11662.741   -10780.365     262.7675     102002.7      46.7237      46.7237      46.7237 
   65000    90.829111   -11655.739   -10763.637    146.41547     102002.7      46.7237      46.7237      46.7237 
   66000    93.767595   -11670.447   -10749.483    282.62044     102002.7      46.7237      46.7237      46.7237 
   67000    90.082829   -11663.882   -10779.109       465.79     102002.7      46.7237      46.7237      46.7237 
   68000    87.650525   -11667.815   -10806.932    333.96587     102002.7      46.7237      46.7237      46.7237 
   69000    89.123296   -11677.825   -10802.476    15.567892     102002.7      46.7237      46.7237      46.7237 
   70000    90.808818   -11700.446   -10808.543    470.23577     102002.7      46.7237      46.7237      46.7237 
   71000    88.979599   -11686.277    -10812.34    549.43874     102002.7      46.7237      46.7237      46.7237 
   72000    91.586265   -11668.449    -10768.91    350.64221     102002.7      46.7237      46.7237      46.7237 
   73000    89.877149   -11675.382   -10792.629    427.38342     102002.7      46.7237      46.7237      46.7237 
   74000    89.390517   -11660.488   -10782.515     379.7068     102002.7      46.7237      46.7237      46.7237 
   75000    90.367528   -11676.944   -10789.375    231.66378     102002.7      46.7237      46.7237      46.7237 
   76000    89.410299   -11675.832   -10797.665    688.38619     102002.7      46.7237      46.7237      46.7237 
   77000    89.340711   -11673.496   -10796.012    641.20507     102002.7      46.7237      46.7237      46.7237 
   78000    91.404901   -11668.302   -10770.545    379.23986     102002.7      46.7237      46.7237      46.7237 
   79000    93.154552   -11664.267   -10749.325     544.2147     102002.7      46.7237      46.7237      46.7237 
   80000    91.975913   -11669.524   -10766.158    472.54581     102002.7      46.7237      46.7237      46.7237 
   81000    93.387966   -11680.889   -10763.654    734.04931     102002.7      46.7237      46.7237      46.7237 
   82000     92.56258   -11685.236   -10776.108    557.32991     102002.7      46.7237      46.7237      46.7237 
   83000    92.238069   -11686.883   -10780.942    468.17779     102002.7      46.7237      46.7237      46.7237 
   84000    91.157409   -11699.623   -10804.296    293.70784     102002.7      46.7237      46.7237      46.7237 
   85000    88.817531   -11671.651   -10799.305    461.07237     102002.7      46.7237      46.7237      46.7237 
   86000    90.720518   -11692.862   -10801.826    742.87066     102002.7      46.7237      46.7237      46.7237 
   87000    92.386018   -11668.281   -10760.887    524.29977     102002.7      46.7237      46.7237      46.7237 
   88000    92.164527   -11680.623   -10775.404    316.54341     102002.7      46.7237      46.7237      46.7237 
   89000    92.089027   -11677.879   -10773.401    492.56271     102002.7      46.7237      46.7237      46.7237 
   90000    90.439733   -11686.621   -10798.343    290.86508     102002.7      46.7237      46.7237      46.7237 
   91000    90.681169   -11698.357   -10807.708    616.66469     102002.7      46.7237      46.7237      46.7237 
   92000    89.533469   -11704.806   -10825.429    601.08344     102002.7      46.7237      46.7237      46.7237 
   93000    91.454087   -11687.975   -10789.734    346.98434     102002.7      46.7237      46.7237      46.7237 
   94000    92.363421    -11682.53   -10775.358    690.82142     102002.7      46.7237      46.7237      46.7237 
   95000       89.739   -11664.436    -10783.04    102.58585     102002.7      46.7237      46.7237      46.7237 
   96000    92.281914   -11680.269   -10773.897    292.64613     102002.7      46.7237      46.7237      46.7237 
   97000    92.187818   -11683.534   -10778.087    380.82916     102002.7      46.7237      46.7237      46.7237 
   98000    91.272954   -11680.206   -10783.744    452.79308     102002.7      46.7237      46.7237      46.7237 
   99000    92.997161   -11685.452   -10772.055    434.99197     102002.7      46.7237      46.7237      46.7237 
  100000    91.797376   -11696.684   -10795.071     505.8737     102002.7      46.7237      46.7237      46.7237 
  101000    89.339916   -11700.265   -10822.789    559.13585     102002.7      46.7237      46.7237      46.7237 
  102000    89.939837    -11689.53   -10806.162    598.46271     102002.7      46.7237      46.7237      46.7237 
  103000    89.868038   -11695.746   -10813.082    406.50467     102002.7      46.7237      46.7237      46.7237 
  104000    88.090866   -11683.274   -10818.066    423.19579     102002.7      46.7237      46.7237      46.7237 
  105000     92.72372   -11694.167   -10783.456      414.709     102002.7      46.7237      46.7237      46.7237 
  106000    89.005725   -11677.379   -10803.185    362.79962     102002.7      46.7237      46.7237      46.7237 
  107000    90.342582   -11685.696   -10798.372    265.62006     102002.7      46.7237      46.7237      46.7237 
  108000    92.650933   -11683.856    -10773.86    262.16309     102002.7      46.7237      46.7237      46.7237 
  109000    90.969072   -11687.282   -10793.804    481.48053     102002.7      46.7237      46.7237      46.7237 
  110000    91.750678   -11687.038   -10785.884    440.79025     102002.7      46.7237      46.7237      46.7237 
  111000    91.951235   -11692.352   -10789.228    338.36823     102002.7      46.7237      46.7237      46.7237 
  112000    91.192687   -11692.617   -10796.944    92.328713     102002.7      46.7237      46.7237      46.7237 
  113000    91.300417    -11685.19   -10788.458    637.81947     102002.7      46.7237      46.7237      46.7237 
  114000    91.498378   -11706.675   -10807.999    211.68894     102002.7      46.7237      46.7237      46.7237 
  115000    92.616251   -11682.983   -10773.327    128.78222     102002.7      46.7237      46.7237      46.7237 
  116000    92.547919   -11658.641   -10749.656    332.37024     102002.7      46.7237      46.7237      46.7237 
  117000     91.61079   -11688.875   -10789.095    410.01553     102002.7      46.7237      46.7237      46.7237 
  118000    91.555663   -11691.247   -10792.008    611.58822     102002.7      46.7237      46.7237      46.7237 
  119000     90.22149   -11700.615   -10814.481    483.19722     102002.7      46.7237      46.7237      46.7237 
  120000    93.710231   -11691.292   -10770.892    385.51783     102002.7      46.7237      46.7237      46.7237 
  121000    91.605811   -11676.793   -10777.062    289.65032     102002.7      46.7237      46.7237      46.7237 
  122000    90.600854    -11690.35   -10800.489    291.11852     102002.7      46.7237      46.7237      46.7237 
  123000    91.776561   -11679.315   -10777.907    261.36398     102002.7      46.7237      46.7237      46.7237 
  124000    91.624726   -11659.994   -10760.077    441.00966     102002.7      46.7237      46.7237      46.7237 
  125000    91.564771   -11694.502   -10795.174    359.56872     102002.7      46.7237      46.7237      46.7237 
  126000    91.770708    -11668.89    -10767.54    453.56828     102002.7      46.7237      46.7237      46.7237 
  127000    90.347988   -11700.955   -10813.578    406.24818     102002.7      46.7237      46.7237      46.7237 
  128000    91.251797   -11677.453   -10781.199    204.90558     102002.7      46.7237      46.7237      46.7237 
  129000    93.492367   -11683.142   -10764.881    168.23878     102002.7      46.7237      46.7237      46.7237 
  130000    89.090864   -11700.487   -10825.457     469.0123     102002.7      46.7237      46.7237      46.7237 
  131000    88.663631   -11693.151   -10822.317    338.32739     102002.7      46.7237      46.7237      46.7237 
  132000    91.214555   -11696.607   -10800.718    396.03393     102002.7      46.7237      46.7237      46.7237 
  133000    93.807182   -11681.881   -10760.529    878.60021     102002.7      46.7237      46.7237      46.7237 
  134000    91.893473   -11713.155   -10810.599    421.36955     102002.7      46.7237      46.7237      46.7237 
  135000    91.520461   -11680.194   -10781.301    151.63155     102002.7      46.7237      46.7237      46.7237 
  136000    88.292545   -11704.317   -10837.128    225.84078     102002.7      46.7237      46.7237      46.7237 
  137000     91.45553   -11674.513   -10776.258    204.48456     102002.7      46.7237      46.7237      46.7237 
  138000    92.362881   -11701.175   -10794.008    184.89283     102002.7      46.7237      46.7237      46.7237 
  139000    88.510413   -11703.712   -10834.384    99.068241     102002.7      46.7237      46.7237      46.7237 
  140000    90.889136   -11669.434   -10776.742     204.1248     102002.7      46.7237      46.7237      46.7237 
  141000    94.512169   -11690.354   -10762.077    333.35303     102002.7      46.7237      46.7237      46.7237 
  142000    88.282166   -11684.552   -10817.465    355.34356     102002.7      46.7237      46.7237      46.7237 
  143000    91.739914   -11707.514   -10806.466    283.31421     102002.7      46.7237      46.7237      46.7237 
  144000     91.07172   -11684.266   -10789.781    643.40971     102002.7      46.7237      46.7237      46.7237 
  145000    90.599086   -11681.387   -10791.544    407.23706     102002.7      46.7237      46.7237      46.7237 
  146000    89.236511   -11704.761   -10828.301    274.85858     102002.7      46.7237      46.7237      46.7237 
  147000     93.06215   -11693.751   -10779.716    421.64038     102002.7      46.7237      46.7237      46.7237 
  148000    91.549985   -11699.588   -10800.406   -38.663158     102002.7      46.7237      46.7237      46.7237 
  149000    90.520893   -11678.452   -10789.377    296.09811     102002.7      46.7237      46.7237      46.7237 
  150000    90.977595   -11674.926   -10781.365    386.87231     102002.7      46.7237      46.7237      46.7237 
  151000    91.352626   -11695.315   -10798.071    368.15693     102002.7      46.7237      46.7237      46.7237 
  152000    90.470024   -11673.301   -10784.725     271.1697     102002.7      46.7237      46.7237      46.7237 
  153000     89.79778   -11693.684   -10811.711    244.51873     102002.7      46.7237      46.7237      46.7237 
  154000    89.500568   -11683.223   -10804.169    257.88413     102002.7      46.7237      46.7237      46.7237 
  155000     89.57752   -11679.903   -10800.093    200.04163     102002.7      46.7237      46.7237      46.7237 
  156000    91.760233   -11673.273   -10772.025     440.8675     102002.7      46.7237      46.7237      46.7237 
  157000    93.467942   -11700.952   -10782.932    433.63851     102002.7      46.7237      46.7237      46.7237 
  158000    92.654869   -11664.152   -10754.117    258.18645     102002.7      46.7237      46.7237      46.7237 
  159000    93.136252   -11679.736   -10764.973    265.06433     102002.7      46.7237      46.7237      46.7237 
  160000    89.216354   -11654.829   -10778.567    472.41995     102002.7      46.7237      46.7237      46.7237 
  161000     91.45915   -11691.497   -10793.206    55.337108     102002.7      46.7237      46.7237      46.7237 
  162000    90.868766   -11683.731   -10791.239    291.03457     102002.7      46.7237      46.7237      46.7237 
  163000    91.766146   -11714.966    -10813.66    378.62418     102002.7      46.7237      46.7237      46.7237 
  164000     91.61923   -11697.217   -10797.354     231.4086     102002.7      46.7237      46.7237      46.7237 
  165000    90.366118   -11658.502   -10770.946    182.15476     102002.7      46.7237      46.7237      46.7237 
  166000    90.337941   -11677.347   -10790.069    433.76737     102002.7      46.7237      46.7237      46.7237 
  167000    92.148045   -11658.409   -10753.353    311.64439     102002.7      46.7237      46.7237      46.7237 
  168000    90.755496   -11693.171   -10801.791    208.16655     102002.7      46.7237      46.7237      46.7237 
  169000    90.648487   -11684.194   -10793.865    633.32959     102002.7      46.7237      46.7237      46.7237 
  170000    90.276346   -11708.121   -10821.448    253.93848     102002.7      46.7237      46.7237      46.7237 
  171000    89.449952   -11674.955   -10796.398      268.645     102002.7      46.7237      46.7237      46.7237 
  172000    89.487915   -11691.336   -10812.406    239.78995     102002.7      46.7237      46.7237      46.7237 
  173000    92.508374   -11690.565   -10781.969    477.55994     102002.7      46.7237      46.7237      46.7237 
  174000     91.59994   -11689.295   -10789.621    466.72922     102002.7      46.7237      46.7237      46.7237 
  175000    91.603768   -11681.374   -10781.663    323.63192     102002.7      46.7237      46.7237      46.7237 
  176000    90.932846   -11653.201    -10760.08    533.54032     102002.7      46.7237      46.7237      46.7237 
  177000    89.314222   -11702.797   -10825.573    413.91299     102002.7      46.7237      46.7237      46.7237 
  178000    91.067268   -11684.865   -10790.423      229.695     102002.7      46.7237      46.7237      46.7237 
  179000    91.217285   -11704.766   -10808.851    397.05993     102002.7      46.7237      46.7237      46.7237 
  180000    90.809707   -11708.509   -10816.597    175.62135     102002.7      46.7237      46.7237      46.7237 
  181000    90.193385   -11681.533   -10795.675    391.29045     102002.7      46.7237      46.7237      46.7237 
  182000    91.004784   -11677.826   -10783.998    270.05173     102002.7      46.7237      46.7237      46.7237 
  183000    93.362836   -11721.515   -10804.527     396.7209     102002.7      46.7237      46.7237      46.7237 
  184000    92.430327   -11683.964   -10776.135      247.806     102002.7      46.7237      46.7237      46.7237 
  185000    92.668168   -11684.577   -10774.411    470.06002     102002.7      46.7237      46.7237      46.7237 
  186000    90.398121   -11690.534   -10802.665    583.99315     102002.7      46.7237      46.7237      46.7237 
  187000    91.799659   -11685.133   -10783.498    360.74347     102002.7      46.7237      46.7237      46.7237 
  188000    90.731974   -11714.101   -10822.953    96.010304     102002.7      46.7237      46.7237      46.7237 
  189000    90.740891   -11687.115   -10795.879    198.42577     102002.7      46.7237      46.7237      46.7237 
  190000    91.124254    -11655.33   -10760.328    157.65239     102002.7      46.7237      46.7237      46.7237 
  191000    89.652206     -11689.6   -10809.056    305.04369     102002.7      46.7237      46.7237      46.7237 
  192000    92.385515   -11684.083   -10776.694    434.70196     102002.7      46.7237      46.7237      46.7237 
  193000    91.427739   -11697.213   -10799.231    58.456286     102002.7      46.7237      46.7237      46.7237 
  194000    88.376286   -11680.342   -10812.331    148.55595     102002.7      46.7237      46.7237      46.7237 
  195000    92.387393   -11709.655   -10802.248    270.95587     102002.7      46.7237      46.7237      46.7237 
  196000    88.788786   -11665.904   -10793.841    413.73074     102002.7      46.7237      46.7237      46.7237 
  197000    90.736678   -11706.315    -10815.12    224.59288     102002.7      46.7237      46.7237      46.7237 
  198000    91.868585   -11696.389   -10794.077    446.75737     102002.7      46.7237      46.7237      46.7237 
  199000    90.922135   -11677.549   -10784.532    437.17382     102002.7      46.7237      46.7237      46.7237 
  200000    90.982419   -11718.256   -10824.647    401.43014     102002.7      46.7237      46.7237      46.7237 
  201000    91.078364   -11695.489   -10800.939    179.39477     102002.7      46.7237      46.7237      46.7237 
  202000    91.434071   -11686.073   -10788.029    402.32797     102002.7      46.7237      46.7237      46.7237 
  203000    90.599262   -11680.562   -10790.717    390.81243     102002.7      46.7237      46.7237      46.7237 
  204000    91.474168   -11674.267   -10775.829    294.36068     102002.7      46.7237      46.7237      46.7237 
  205000    91.074939   -11711.089   -10816.572    412.01876     102002.7      46.7237      46.7237      46.7237 
  206000    89.728248   -11671.943   -10790.653    193.78006     102002.7      46.7237      46.7237      46.7237 
  207000    91.664321   -11660.556    -10760.25    365.82204     102002.7      46.7237      46.7237      46.7237 
  208000    89.203995   -11700.887   -10824.746    196.44648     102002.7      46.7237      46.7237      46.7237 
  209000    89.954139    -11672.32   -10788.811   -126.93612     102002.7      46.7237      46.7237      46.7237 
  210000    88.388903    -11675.79   -10807.655    485.76382     102002.7      46.7237      46.7237      46.7237 
  211000    90.980682   -11688.667   -10795.076   -253.81453     102002.7      46.7237      46.7237      46.7237 
  212000    90.989759   -11702.701    -10809.02    379.44823     102002.7      46.7237      46.7237      46.7237 
  213000    92.212959   -11696.991   -10791.297    667.71494     102002.7      46.7237      46.7237      46.7237 
  214000    90.874496   -11696.953   -10804.404    392.95002     102002.7      46.7237      46.7237      46.7237 
  215000     89.46645   -11678.794   -10800.075    413.37284     102002.7      46.7237      46.7237      46.7237 
  216000    92.702859   -11681.245   -10770.739    449.66667     102002.7      46.7237      46.7237      46.7237 
  217000    89.843943   -11709.145   -10826.718    167.76997     102002.7      46.7237      46.7237      46.7237 
  218000    90.214893   -11680.466   -10794.396     284.9121     102002.7      46.7237      46.7237      46.7237 
  219000    91.670958   -11691.822   -10791.451     378.3948     102002.7      46.7237      46.7237      46.7237 
  220000    91.063772   -11696.553   -10802.145    384.53098     102002.7      46.7237      46.7237      46.7237 
  221000    91.155859   -11685.129   -10789.818    364.96058     102002.7      46.7237      46.7237      46.7237 
  222000    92.072142   -11671.999   -10767.687    315.49754     102002.7      46.7237      46.7237      46.7237 
  223000    89.397776   -11684.869   -10806.825    489.22104     102002.7      46.7237      46.7237      46.7237 
  224000    91.113605   -11698.908   -10804.012    494.24466     102002.7      46.7237      46.7237      46.7237 
  225000    92.608069   -11683.723   -10774.148    321.86009     102002.7      46.7237      46.7237      46.7237 
  226000    91.579449     -11691.9   -10792.428    711.09619     102002.7      46.7237      46.7237      46.7237 
  227000    89.384484    -11716.24   -10838.326      634.107     102002.7      46.7237      46.7237      46.7237 
  228000     90.42334   -11703.788   -10815.671    227.73909     102002.7      46.7237      46.7237      46.7237 
  229000    90.061966    -11678.42   -10793.852    404.56491     102002.7      46.7237      46.7237      46.7237 
  230000    93.202009   -11686.171   -10770.762     330.4098     102002.7      46.7237      46.7237      46.7237 
  231000    88.827368   -11681.623   -10809.181    336.85006     102002.7      46.7237      46.7237      46.7237 
  232000    92.013085   -11693.095   -10789.363     661.8628     102002.7      46.7237      46.7237      46.7237 
  233000    90.756241   -11699.458   -10808.071     276.0545     102002.7      46.7237      46.7237      46.7237 
  234000    91.389334   -11686.976   -10789.372    270.76398     102002.7      46.7237      46.7237      46.7237 
  235000    91.914971   -11694.791   -10792.023    233.46661     102002.7      46.7237      46.7237      46.7237 
  236000    90.443045    -11684.68   -10796.369     319.2621     102002.7      46.7237      46.7237      46.7237 
  237000    93.111539    -11698.08    -10783.56    512.56014     102002.7      46.7237      46.7237      46.7237 
  238000    91.249373   -11693.905   -10797.675    453.94096     102002.7      46.7237      46.7237      46.7237 
  239000    91.658374   -11663.254   -10763.007    363.04755     102002.7      46.7237      46.7237      46.7237 
  240000    90.331612    -11686.19   -10798.974    444.94294     102002.7      46.7237      46.7237      46.7237 
  241000    91.284054   -11693.244   -10796.673    242.27988     102002.7      46.7237      46.7237      46.7237 
  242000    91.297769   -11692.554   -10795.849    393.18281     102002.7      46.7237      46.7237      46.7237 
  243000    89.778752    -11672.67   -10790.884    154.53302     102002.7      46.7237      46.7237      46.7237 
  244000    91.678788   -11702.789   -10802.341    343.42465     102002.7      46.7237      46.7237      46.7237 
  245000    92.654372   -11696.915   -10786.885    418.05738     102002.7      46.7237      46.7237      46.7237 
  246000    91.460031    -11710.25   -10811.951    410.22411     102002.7      46.7237      46.7237      46.7237 
  247000    93.917584    -11666.47   -10744.033     396.0223     102002.7      46.7237      46.7237      46.7237 
  248000    91.516968   -11683.419    -10784.56    467.06815     102002.7      46.7237      46.7237      46.7237 
  249000    90.840271   -11679.073   -10786.861    423.10815     102002.7      46.7237      46.7237      46.7237 
  250000    90.895075   -11691.184   -10798.434    246.02502     102002.7      46.7237      46.7237      46.7237 
  251000    90.468952   -11705.694   -10817.129    345.07483     102002.7      46.7237      46.7237      46.7237 
  252000    91.937402   -11694.173   -10791.185     164.4733     102002.7      46.7237      46.7237      46.7237 
  253000    93.032014   -11679.398   -10765.659    744.31722     102002.7      46.7237      46.7237      46.7237 
  254000    89.537975   -11694.934   -10815.512    147.18725     102002.7      46.7237      46.7237      46.7237 
  255000    89.242796   -11716.187   -10839.664    418.31217     102002.7      46.7237      46.7237      46.7237 
  256000    88.068462   -11701.021   -10836.033    289.33686     102002.7      46.7237      46.7237      46.7237 
  257000    89.696668   -11681.019   -10800.039     352.2249     102002.7      46.7237      46.7237      46.7237 
  258000    92.904701   -11692.157   -10779.668    291.47881     102002.7      46.7237      46.7237      46.7237 
  259000    91.537768   -11682.224   -10783.161     612.8926     102002.7      46.7237      46.7237      46.7237 
  260000    89.158971   -11690.696   -10814.997    139.00905     102002.7      46.7237      46.7237      46.7237 
  261000    88.715259   -11701.744   -10830.403    267.31833     102002.7      46.7237      46.7237      46.7237 
  262000    93.274819   -11698.581   -10782.457     279.2028     102002.7      46.7237      46.7237      46.7237 
  263000     92.14067   -11713.165    -10808.18    361.78744     102002.7      46.7237      46.7237      46.7237 
  264000    89.932082   -11693.239   -10809.947    291.88331     102002.7      46.7237      46.7237      46.7237 
  265000      91.5599    -11685.26    -10785.98    713.89818     102002.7      46.7237      46.7237      46.7237 
  266000    90.308698   -11698.766   -10811.775    355.94045     102002.7      46.7237      46.7237      46.7237 
  267000    91.093202    -11676.17   -10781.473    261.68011     102002.7      46.7237      46.7237      46.7237 
  268000    92.232872   -11710.307   -10804.418    482.29509     102002.7      46.7237      46.7237      46.7237 
  269000    93.075134   -11699.483    -10785.32    441.92597     102002.7      46.7237      46.7237      46.7237 
  270000    90.720199   -11706.877   -10815.844    421.97302     102002.7      46.7237      46.7237      46.7237 
  271000    93.598214   -11684.276   -10764.976    461.43981     102002.7      46.7237      46.7237      46.7237 
  272000    90.280219   -11696.451   -10809.739    102.25066     102002.7      46.7237      46.7237      46.7237 
  273000    92.107921   -11690.443    -10785.78    195.30954     102002.7      46.7237      46.7237      46.7237 
  274000    92.580201    -11703.01   -10793.709    429.59932     102002.7      46.7237      46.7237      46.7237 
  275000    92.330627   -11687.843   -10780.993     433.4707     102002.7      46.7237      46.7237      46.7237 
  276000    91.095927   -11686.922   -10792.199    364.12824     102002.7      46.7237      46.7237      46.7237 
  277000    90.154753    -11690.72   -10805.241    306.49514     102002.7      46.7237      46.7237      46.7237 
  278000    90.681279   -11682.669   -10792.019    420.28596     102002.7      46.7237      46.7237      46.7237 
  279000    90.845555   -11701.307   -10809.043    586.43753     102002.7      46.7237      46.7237      46.7237 
  280000    93.846588   -11705.139   -10783.399    354.48519     102002.7      46.7237      46.7237      46.7237 
  281000    90.864536   -11693.748   -10801.298    265.00666     102002.7      46.7237      46.7237      46.7237 
  282000    90.905435   -11686.411   -10793.559    427.81357     102002.7      46.7237      46.7237      46.7237 
  283000    93.308659   -11690.356     -10773.9    520.43981     102002.7      46.7237      46.7237      46.7237 
  284000    91.892651    -11707.64   -10805.092    470.96451     102002.7      46.7237      46.7237      46.7237 
  285000    93.365161   -11705.627   -10788.616    86.947155     102002.7      46.7237      46.7237      46.7237 
  286000    90.622894   -11686.086   -10796.009    320.79293     102002.7      46.7237      46.7237      46.7237 
  287000    88.797834   -11706.144   -10833.992    509.80283     102002.7      46.7237      46.7237      46.7237 
  288000    88.856457   -11685.233   -10812.505    232.93948     102002.7      46.7237      46.7237      46.7237 
  289000     91.95818   -11684.183   -10780.991    507.99156     102002.7      46.7237      46.7237      46.7237 
  290000    91.361704   -11709.212   -10811.878    382.87344     102002.7      46.7237      46.7237      46.7237 
  291000     90.40175   -11689.634   -10801.729    474.81861     102002.7      46.7237      46.7237      46.7237 
  292000    92.036515    -11706.85   -10802.889    574.40975     102002.7      46.7237      46.7237      46.7237 
  293000     92.53954   -11698.369   -10789.467    57.000051     102002.7      46.7237      46.7237      46.7237 
  294000    88.774553   -11697.178   -10825.255     184.7275     102002.7      46.7237      46.7237      46.7237 
  295000    90.521178   -11706.529   -10817.451    298.51211     102002.7      46.7237      46.7237      46.7237 
  296000    91.978759   -11680.635   -10777.241    281.36165     102002.7      46.7237      46.7237      46.7237 
  297000    92.069679   -11695.053   -10790.766    259.95209     102002.7      46.7237      46.7237      46.7237 
  298000    89.367322   -11686.474   -10808.729    361.93576     102002.7      46.7237      46.7237      46.7237 
  299000    90.939481   -11684.075   -10790.889    724.06022     102002.7      46.7237      46.7237      46.7237 
  300000    91.338857   -11676.574   -10779.465    683.12352     102002.7      46.7237      46.7237      46.7237 
  301000    90.525035   -11696.484   -10807.368    560.90009     102002.7      46.7237      46.7237      46.7237 
  302000    91.615907    -11706.53     -10806.7    133.01278     102002.7      46.7237      46.7237      46.7237 
  303000    91.661041   -11690.143    -10789.87    557.90918     102002.7      46.7237      46.7237      46.7237 
  304000    90.820785   -11700.039   -10808.018     413.9067     102002.7      46.7237      46.7237      46.7237 
  305000    91.460495    -11697.74   -10799.436   -32.998219     102002.7      46.7237      46.7237      46.7237 
  306000    90.729312   -11715.572    -10824.45    244.00603     102002.7      46.7237      46.7237      46.7237 
  307000    92.251501   -11692.662   -10786.589    467.75417     102002.7      46.7237      46.7237      46.7237 
  308000    92.640507   -11702.269   -10792.376    130.77528     102002.7      46.7237      46.7237      46.7237 
  309000    91.420848   -11684.069   -10786.154    195.24408     102002.7      46.7237      46.7237      46.7237 
  310000    90.835017   -11661.381    -10769.22    201.13508     102002.7      46.7237      46.7237      46.7237 
  311000    90.198358   -11685.876   -10799.968    502.85489     102002.7      46.7237      46.7237      46.7237 
  312000    90.812769    -11675.69   -10783.748    373.43111     102002.7      46.7237      46.7237      46.7237 
  313000     92.56465    -11696.53   -10787.382     478.9827     102002.7      46.7237      46.7237      46.7237 
  314000    89.456506   -11695.689   -10817.068    641.71197     102002.7      46.7237      46.7237      46.7237 
  315000    90.490052   -11673.846   -10785.074     574.4396     102002.7      46.7237      46.7237      46.7237 
  316000    91.054232    -11711.11   -10816.796    650.29656     102002.7      46.7237      46.7237      46.7237 
  317000    88.231755   -11697.497   -10830.905    459.31074     102002.7      46.7237      46.7237      46.7237 
  318000    89.631282   -11701.855   -10821.518    34.177634     102002.7      46.7237      46.7237      46.7237 
  319000    89.103061    -11680.73    -10805.58    355.23545     102002.7      46.7237      46.7237      46.7237 
  320000    90.437382   -11692.524   -10804.269     99.02064     102002.7      46.7237      46.7237      46.7237 
  321000    89.620149   -11688.106   -10807.877    254.85514     102002.7      46.7237      46.7237      46.7237 
  322000    92.816726   -11692.091   -10780.467    450.08331     102002.7      46.7237      46.7237      46.7237 
  323000    91.898552   -11682.155   -10779.549    572.90443     102002.7      46.7237      46.7237      46.7237 
  324000    91.626032   -11675.759   -10775.829    189.32483     102002.7      46.7237      46.7237      46.7237 
  325000    89.371926   -11686.075   -10808.284    275.39648     102002.7      46.7237      46.7237      46.7237 
  326000    91.462479   -11701.519   -10803.196    268.51528     102002.7      46.7237      46.7237      46.7237 
  327000    91.565943   -11684.357   -10785.017    354.43139     102002.7      46.7237      46.7237      46.7237 
  328000    89.783992    -11689.69   -10807.852    221.63721     102002.7      46.7237      46.7237      46.7237 
  329000    89.620509   -11686.864   -10806.633    358.47261     102002.7      46.7237      46.7237      46.7237 
  330000    88.799773   -11681.537   -10809.367    378.44899     102002.7      46.7237      46.7237      46.7237 
  331000    91.314718   -11686.224   -10789.352    364.05257     102002.7      46.7237      46.7237      46.7237 
  332000    90.292919   -11708.411   -10821.574    324.40741     102002.7      46.7237      46.7237      46.7237 
  333000    89.369161   -11690.907   -10813.144    538.00286     102002.7      46.7237      46.7237      46.7237 
  334000    94.197637   -11713.563   -10788.376    141.34266     102002.7      46.7237      46.7237      46.7237 
  335000    89.819675   -11697.221   -10815.033    700.38649     102002.7      46.7237      46.7237      46.7237 
  336000    92.140841   -11672.961   -10767.975     642.7304     102002.7      46.7237      46.7237      46.7237 
  337000    91.088125   -11658.947     -10764.3    242.62794     102002.7      46.7237      46.7237      46.7237 
  338000    90.785395   -11672.976   -10781.302    611.93956     102002.7      46.7237      46.7237      46.7237 
  339000    91.992535   -11696.399    -10792.87    536.81341     102002.7      46.7237      46.7237      46.7237 
  340000    91.361486   -11683.089   -10785.758    391.87022     102002.7      46.7237      46.7237      46.7237 
  341000    91.691211   -11683.494   -10782.924    533.05076     102002.7      46.7237      46.7237      46.7237 
  342000    91.525454   -11667.188   -10768.247    419.09418     102002.7      46.7237      46.7237      46.7237 
  343000    90.601958    -11683.86   -10793.989    559.26663     102002.7      46.7237      46.7237      46.7237 
  344000    92.101029   -11693.292   -10788.697    438.44202     102002.7      46.7237      46.7237      46.7237 
  345000    90.810911   -11671.214   -10779.291    39.932926     102002.7      46.7237      46.7237      46.7237 
  346000    91.816911   -11716.049   -10814.245    143.10382     102002.7      46.7237      46.7237      46.7237 
  347000    91.955482   -11679.082   -10775.917    611.23069     102002.7      46.7237      46.7237      46.7237 
  348000    92.130563   -11687.255    -10782.37    489.03773     102002.7      46.7237      46.7237      46.7237 
  349000    90.101356   -11711.879   -10826.924    223.66651     102002.7      46.7237      46.7237      46.7237 
  350000    90.996287   -11716.926   -10823.182    350.70841     102002.7      46.7237      46.7237      46.7237 
  351000    91.951511   -11685.888   -10782.761    578.06377     102002.7      46.7237      46.7237      46.7237 
  352000    91.738947   -11719.702   -10818.663    682.09923     102002.7      46.7237      46.7237      46.7237 
  353000    90.956897   -11671.817    -10778.46    330.01719     102002.7      46.7237      46.7237      46.7237 
  354000    90.993362   -11715.261   -10821.546    392.78856     102002.7      46.7237      46.7237      46.7237 
  355000    92.103555   -11698.176   -10793.557    264.99839     102002.7      46.7237      46.7237      46.7237 
  356000    93.687469   -11699.575   -10779.398    392.46371     102002.7      46.7237      46.7237      46.7237 
  357000    90.755418   -11704.652   -10813.273    225.05384     102002.7      46.7237      46.7237      46.7237 
  358000    90.735524   -11680.131   -10788.948     268.9132     102002.7      46.7237      46.7237      46.7237 
  359000    91.318102   -11685.678   -10788.773    80.387125     102002.7      46.7237      46.7237      46.7237 
  360000    91.107407   -11702.265   -10807.429    466.14375     102002.7      46.7237      46.7237      46.7237 
  361000    88.715767   -11690.336    -10818.99    346.51273     102002.7      46.7237      46.7237      46.7237 
  362000    90.875415   -11680.987   -10788.429    364.39281     102002.7      46.7237      46.7237      46.7237 
  363000     92.96349   -11688.875   -10775.809    358.81744     102002.7      46.7237      46.7237      46.7237 
  364000    91.578015   -11699.297   -10799.839    70.726751     102002.7      46.7237      46.7237      46.7237 
  365000    91.204793    -11697.55   -10801.757    399.38005     102002.7      46.7237      46.7237      46.7237 
  366000     91.73236   -11669.194    -10768.22    541.51455     102002.7      46.7237      46.7237      46.7237 
  367000    92.199745   -11697.052   -10791.487    223.37584     102002.7      46.7237      46.7237      46.7237 
  368000    91.754007   -11702.379   -10801.192    246.01133     102002.7      46.7237      46.7237      46.7237 
  369000    90.088725   -11676.716   -10791.885    289.19708     102002.7      46.7237      46.7237      46.7237 
  370000    88.755299   -11692.412   -10820.678    295.82167     102002.7      46.7237      46.7237      46.7237 
  371000    90.976262   -11676.128    -10782.58    321.29984     102002.7      46.7237      46.7237      46.7237 
  372000    89.611747   -11673.966    -10793.82    542.84807     102002.7      46.7237      46.7237      46.7237 
  373000    91.985336   -11686.396   -10782.937    401.55517     102002.7      46.7237      46.7237      46.7237 
  374000    89.860325   -11672.437    -10789.85    398.60863     102002.7      46.7237      46.7237      46.7237 
  375000    91.463821    -11711.75   -10813.414    564.44496     102002.7      46.7237      46.7237      46.7237 
  376000    92.973396   -11671.984   -10758.821    304.31669     102002.7      46.7237      46.7237      46.7237 
  377000    89.470445   -11702.955   -10824.197    374.84448     102002.7      46.7237      46.7237      46.7237 
  378000     90.48974   -11699.438   -10810.668    85.138969     102002.7      46.7237      46.7237      46.7237 
  379000    90.670599   -11685.125   -10794.579     580.2423     102002.7      46.7237      46.7237      46.7237 
  380000    91.389884   -11704.437   -10806.827    391.19749     102002.7      46.7237      46.7237      46.7237 
  381000    90.920684   -11715.986   -10822.984    433.49612     102002.7      46.7237      46.7237      46.7237 
  382000    90.662442   -11696.116   -10805.651    502.41301     102002.7      46.7237      46.7237      46.7237 
  383000    92.481521    -11680.72   -10772.388    633.08721     102002.7      46.7237      46.7237      46.7237 
  384000    93.199867   -11695.252   -10779.864    413.76562     102002.7      46.7237      46.7237      46.7237 
  385000    90.876712   -11679.296   -10786.725    291.68285     102002.7      46.7237      46.7237      46.7237 
  386000    92.328432   -11679.809    -10772.98    190.33489     102002.7      46.7237      46.7237      46.7237 
  387000    92.218821   -11694.729   -10788.977    283.21869     102002.7      46.7237      46.7237      46.7237 
  388000    93.000435   -11677.052   -10763.623    262.32804     102002.7      46.7237      46.7237      46.7237 
  389000    92.209887   -11690.043   -10784.379    70.278252     102002.7      46.7237      46.7237      46.7237 
  390000    90.808143   -11684.498   -10792.602    260.71443     102002.7      46.7237      46.7237      46.7237 
  391000     92.97499   -11702.803   -10789.624    441.34942     102002.7      46.7237      46.7237      46.7237 
  392000    91.259597   -11661.365   -10765.035    481.04337     102002.7      46.7237      46.7237      46.7237 
  393000    91.926778   -11660.981   -10758.097    621.37797     102002.7      46.7237      46.7237      46.7237 
  394000    91.646907    -11693.89   -10793.755       558.77     102002.7      46.7237      46.7237      46.7237 
  395000    92.250853   -11654.713   -10748.646    166.24605     102002.7      46.7237      46.7237      46.7237 
  396000    91.197145   -11694.491   -10798.774    458.62934     102002.7      46.7237      46.7237      46.7237 
  397000    90.288794   -11692.643   -10805.847     460.2638     102002.7      46.7237      46.7237      46.7237 
  398000    90.413493   -11682.996   -10794.976    391.26298     102002.7      46.7237      46.7237      46.7237 
  399000     92.88558   -11677.844   -10765.544     492.6366     102002.7      46.7237      46.7237      46.7237 
  400000    90.718888   -11701.334   -10810.314    366.22622     102002.7      46.7237      46.7237      46.7237 
  401000    90.867965    -11670.76   -10778.276     157.4619     102002.7      46.7237      46.7237      46.7237 
  402000    93.563031   -11682.262   -10763.307    533.75408     102002.7      46.7237      46.7237      46.7237 
  403000    89.725303   -11682.927   -10801.666    648.21616     102002.7      46.7237      46.7237      46.7237 
  404000    91.811572   -11721.426   -10819.674    241.21855     102002.7      46.7237      46.7237      46.7237 
  405000    90.411348    -11694.79   -10806.791    180.91722     102002.7      46.7237      46.7237      46.7237 
  406000    89.591135   -11705.123    -10825.18    113.63024     102002.7      46.7237      46.7237      46.7237 
  407000    88.904568   -11689.679   -10816.479    254.99716     102002.7      46.7237      46.7237      46.7237 
  408000    89.736666   -11708.558   -10827.185    596.99846     102002.7      46.7237      46.7237      46.7237 
  409000    93.740573   -11690.394   -10769.696    81.530206     102002.7      46.7237      46.7237      46.7237 
  410000    90.829982   -11683.213   -10791.102    353.28233     102002.7      46.7237      46.7237      46.7237 
  411000    91.424402   -11689.143   -10791.194    274.56847     102002.7      46.7237      46.7237      46.7237 
  412000    91.924446   -11668.701    -10765.84      457.177     102002.7      46.7237      46.7237      46.7237 
  413000     92.77192   -11684.034    -10772.85    540.90083     102002.7      46.7237      46.7237      46.7237 
  414000    92.528788   -11674.848   -10766.052    169.28353     102002.7      46.7237      46.7237      46.7237 
  415000    91.983976   -11685.919   -10782.474    368.62661     102002.7      46.7237      46.7237      46.7237 
  416000    92.272603   -11700.296   -10794.016    359.11048     102002.7      46.7237      46.7237      46.7237 
  417000    89.763775   -11693.228   -10811.589    260.01934     102002.7      46.7237      46.7237      46.7237 
  418000    91.991021    -11683.14   -10779.625    323.71916     102002.7      46.7237      46.7237      46.7237 
  419000    92.246205   -11692.466   -10786.445     343.1007     102002.7      46.7237      46.7237      46.7237 
  420000    91.712661    -11692.47    -10791.69    184.05246     102002.7      46.7237      46.7237      46.7237 
  421000    90.615132   -11685.388   -10795.387    232.39933     102002.7      46.7237      46.7237      46.7237 
  422000    90.944384   -11662.583   -10769.348    305.85888     102002.7      46.7237      46.7237      46.7237 
  423000    92.785094   -11703.173   -10791.859    312.95055     102002.7      46.7237      46.7237      46.7237 
  424000    89.695892   -11688.915   -10807.943   -57.878396     102002.7      46.7237      46.7237      46.7237 
  425000    90.742596   -11698.977   -10807.724    134.02841     102002.7      46.7237      46.7237      46.7237 
  426000    91.939856   -11675.547   -10772.535    468.29005     102002.7      46.7237      46.7237      46.7237 
  427000    88.298916    -11685.93   -10818.679    410.31746     102002.7      46.7237      46.7237      46.7237 
  428000    89.687774   -11676.474   -10795.581    314.46147     102002.7      46.7237      46.7237      46.7237 
  429000    90.057698    -11661.53   -10777.004    234.07913     102002.7      46.7237      46.7237      46.7237 
  430000    92.161011   -11700.291   -10795.107    379.29954     102002.7      46.7237      46.7237      46.7237 
  431000    91.820995   -11679.875   -10778.031    355.32626     102002.7      46.7237      46.7237      46.7237 
  432000    91.306933   -11670.838   -10774.043     485.5534     102002.7      46.7237      46.7237      46.7237 
  433000    91.324055   -11692.871   -10795.907    419.26748     102002.7      46.7237      46.7237      46.7237 
  434000    92.560335   -11680.244   -10771.137    446.89588     102002.7      46.7237      46.7237      46.7237 
  435000    87.808878    -11689.05   -10826.611    334.71651     102002.7      46.7237      46.7237      46.7237 
  436000    90.421786   -11698.216   -10810.114    320.36532     102002.7      46.7237      46.7237      46.7237 
  437000    92.486911    -11688.69   -10780.305    645.58352     102002.7      46.7237      46.7237      46.7237 
  438000    91.432437   -11705.209    -10807.18    286.69858     102002.7      46.7237      46.7237      46.7237 
  439000    93.584094   -11687.807   -10768.646    443.20611     102002.7      46.7237      46.7237      46.7237 
  440000    91.230405   -11693.276   -10797.232    385.54206     102002.7      46.7237      46.7237      46.7237 
  441000    92.368583   -11695.624   -10788.401    273.88468     102002.7      46.7237      46.7237      46.7237 
  442000    92.113464   -11706.782   -10802.065    380.20699     102002.7      46.7237      46.7237      46.7237 
  443000    90.136951   -11704.083   -10818.779    60.446575     102002.7      46.7237      46.7237      46.7237 
  444000    92.812684   -11680.836   -10769.252    276.67753     102002.7      46.7237      46.7237      46.7237 
  445000    89.241231   -11714.071   -10837.564     289.3952     102002.7      46.7237      46.7237      46.7237 
  446000    91.441767   -11708.217   -10810.097    412.75404     102002.7      46.7237      46.7237      46.7237 
  447000    92.643415   -11699.586   -10789.663    462.59638     102002.7      46.7237      46.7237      46.7237 
  448000    91.106289   -11701.104   -10806.279    305.67108     102002.7      46.7237      46.7237      46.7237 
  449000    91.323954   -11700.976   -10804.013    273.17205     102002.7      46.7237      46.7237      46.7237 
  450000     90.42337   -11706.509   -10818.392     389.5534     102002.7      46.7237      46.7237      46.7237 
  451000    91.270972   -11707.346   -10810.904    266.77175     102002.7      46.7237      46.7237      46.7237 
  452000    90.684429   -11691.578   -10800.896    580.95112     102002.7      46.7237      46.7237      46.7237 
  453000    90.054313   -11710.838   -10826.345    508.60163     102002.7      46.7237      46.7237      46.7237 
  454000    89.088545   -11705.602   -10830.595    394.86789     102002.7      46.7237      46.7237      46.7237 
  455000    93.212154   -11720.135   -10804.627    8.3464933     102002.7      46.7237      46.7237      46.7237 
  456000    90.758289   -11686.081   -10794.674    243.58539     102002.7      46.7237      46.7237      46.7237 
  457000    91.300981   -11679.369   -10782.631    442.28454     102002.7      46.7237      46.7237      46.7237 
  458000    91.476264   -11702.456   -10803.997    362.21027     102002.7      46.7237      46.7237      46.7237 
  459000    94.154103   -11688.356   -10763.596    112.75321     102002.7      46.7237      46.7237      46.7237 
  460000    90.417705   -11694.715   -10806.653    514.77096     102002.7      46.7237      46.7237      46.7237 
  461000     91.88292   -11701.151   -10798.699    489.82708     102002.7      46.7237      46.7237      46.7237 
  462000    93.381773   -11703.758   -10786.583    315.55317     102002.7      46.7237      46.7237      46.7237 
  463000    89.516163   -11704.866   -10825.659    706.72371     102002.7      46.7237      46.7237      46.7237 
  464000    90.725177   -11704.461   -10813.379     345.3633     102002.7      46.7237      46.7237      46.7237 
  465000    92.466929   -11687.969    -10779.78    470.23423     102002.7      46.7237      46.7237      46.7237 
  466000    91.132724   -11682.889   -10787.804     579.0584     102002.7      46.7237      46.7237      46.7237 
  467000     91.89115    -11681.81   -10779.277    277.48687     102002.7      46.7237      46.7237      46.7237 
  468000    91.783294   -11720.638   -10819.164    285.25493     102002.7      46.7237      46.7237      46.7237 
  469000    92.369905   -11690.497   -10783.262    318.59723     102002.7      46.7237      46.7237      46.7237 
  470000    90.280365    -11696.73   -10810.017    296.47304     102002.7      46.7237      46.7237      46.7237 
  471000      91.9582   -11701.033    -10797.84    361.03688     102002.7      46.7237      46.7237      46.7237 
  472000    90.906767   -11701.693   -10808.827    329.21282     102002.7      46.7237      46.7237      46.7237 
  473000     91.02345    -11676.27   -10782.259    399.96401     102002.7      46.7237      46.7237      46.7237 
  474000    94.079353   -11707.418   -10783.392     93.44809     102002.7      46.7237      46.7237      46.7237 
  475000    89.040034   -11674.835   -10800.305    171.18568     102002.7      46.7237      46.7237      46.7237 
  476000    91.893697   -11725.014   -10822.455    188.45767     102002.7      46.7237      46.7237      46.7237 
  477000    90.731778   -11692.394   -10801.248    226.52867     102002.7      46.7237      46.7237      46.7237 
  478000    88.543682   -11714.017   -10844.361    520.83726     102002.7      46.7237      46.7237      46.7237 
  479000    92.652997   -11693.855   -10783.838    508.92509     102002.7      46.7237      46.7237      46.7237 
  480000    90.279533   -11712.253   -10825.549    226.90588     102002.7      46.7237      46.7237      46.7237 
  481000    90.401383   -11678.111    -10790.21    331.49881     102002.7      46.7237      46.7237      46.7237 
  482000    89.123026   -11696.348   -10821.003    320.51314     102002.7      46.7237      46.7237      46.7237 
  483000     92.54481   -11715.118   -10806.164     349.4554     102002.7      46.7237      46.7237      46.7237 
  484000    92.127132   -11700.358   -10795.507     401.1795     102002.7      46.7237      46.7237      46.7237 
  485000    91.754163   -11674.458   -10773.269    300.71947     102002.7      46.7237      46.7237      46.7237 
  486000    91.074768   -11683.224   -10788.708    261.09528     102002.7      46.7237      46.7237      46.7237 
  487000     91.95403   -11710.511    -10807.36     377.8099     102002.7      46.7237      46.7237      46.7237 
  488000    89.564687   -11694.767   -10815.083     256.3792     102002.7      46.7237      46.7237      46.7237 
  489000     90.95048   -11686.639   -10793.344    553.52419     102002.7      46.7237      46.7237      46.7237 
  490000    93.519208   -11701.799   -10783.275    505.91232     102002.7      46.7237      46.7237      46.7237 
  491000    90.388952   -11677.319    -10789.54    177.08614     102002.7      46.7237      46.7237      46.7237 
  492000    91.068464   -11683.277   -10788.824    409.33683     102002.7      46.7237      46.7237      46.7237 
  493000     89.44731   -11686.384   -10807.853    536.31846     102002.7      46.7237      46.7237      46.7237 
  494000     91.24205   -11687.923   -10791.765    408.30517     102002.7      46.7237      46.7237      46.7237 
  495000    90.213753    -11679.49   -10793.431    397.96433     102002.7      46.7237      46.7237      46.7237 
  496000    92.921866   -11690.565   -10777.908    216.58389     102002.7      46.7237      46.7237      46.7237 
  497000    91.139662   -11678.517   -10783.364    282.11503     102002.7      46.7237      46.7237      46.7237 
  498000    90.712872   -11688.763   -10797.802     321.5603     102002.7      46.7237      46.7237      46.7237 
  499000     90.62358   -11687.912   -10797.828    271.07752     102002.7      46.7237      46.7237      46.7237 
  500000    91.222714   -11687.438    -10791.47    236.16918     102002.7      46.7237      46.7237      46.7237 
  500500    89.942536    -11683.88   -10800.485    423.62318     102002.7      46.7237      46.7237      46.7237 
Loop time of 1941.71 on 16 procs for 500000 steps with 3296 atoms

Performance: 22.248 ns/day, 1.079 hours/ns, 257.505 timesteps/s
99.8% CPU use with 16 MPI tasks x no OpenMP threads

MPI task timing breakdown:
Section |  min time  |  avg time  |  max time  |%varavg| %total
---------------------------------------------------------------
Pair    | 786.13     | 1207.8     | 1508.1     | 585.6 | 62.20
Bond    | 121.84     | 174.91     | 205.08     | 171.5 |  9.01
Neigh   | 15.032     | 15.069     | 15.117     |   0.8 |  0.78
Comm    | 196.26     | 527.17     | 1002.1     | 964.0 | 27.15
Output  | 0.021751   | 0.022585   | 0.026596   |   0.7 |  0.00
Modify  | 9.3631     | 9.8906     | 10.576     |  13.0 |  0.51
Other   |            | 6.876      |            |       |  0.35

Nlocal:    206 ave 240 max 171 min
Histogram: 1 1 2 1 3 3 1 1 1 2
Nghost:    4141.81 ave 4194 max 4104 min
Histogram: 2 0 5 2 1 3 0 1 1 1
Neighs:    11463.2 ave 18885 max 5375 min
Histogram: 2 2 0 2 3 3 2 1 0 1

Total # of neighbors = 183412
Ave neighs/atom = 55.6468
Ave special neighs/atom = 3.49515
Neighbor list builds = 4129
Dangerous builds = 0
Neighbor list info ...
  update every 1 steps, delay 10 steps, check yes
  max neighbors/atom: 2000, page size: 100000
  master list distance cutoff = 16
  ghost atom cutoff = 16
  binsize = 8, bins = 6 6 6
  3 neighbor lists, perpetual/occasional/extra = 3 0 0
  (1) pair buck6d/coul/gauss/dsf, perpetual, skip from (3)
      attributes: half, newton on
      pair build: skip
      stencil: none
      bin: none
  (2) pair lj/cut, perpetual, skip from (3)
      attributes: half, newton on
      pair build: skip
      stencil: none
      bin: none
  (3) neighbor class addition, perpetual
      attributes: half, newton on
      pair build: half/bin/newton
      stencil: half/bin/3d/newton
      bin: standard
Setting up Verlet run ...
  Unit style    : real
  Current step  : 500500
  Time step     : 1
WARNING: Inconsistent image flags (../domain.cpp:786)
Per MPI rank memory allocation (min/avg/max) = 22.8 | 23.27 | 23.45 Mbytes
Step Time TotEng KinEng PotEng E_mol E_pair Temp Pxx Pyy Pzz Pxy Pxz Pyz Cella Cellb Cellc CellAlpha CellBeta CellGamma Volume Press 
  500500       500000   -10800.485    883.39482    -11683.88     4153.984   -15837.864    89.942536    473.92147    408.56923    388.37885   -6.1233658   -321.38532     87.38279      46.7237      46.7237      46.7237           90           90           90     102002.7    423.62318 
  501000       500500   -10799.902     886.3611   -11686.263    4156.1235   -15842.387    90.244547    59.710244    277.51912    586.55756    -95.65891   -167.04611     -137.224      46.7237      46.7237      46.7237           90           90           90     102002.7    307.92897 
  502000       501500   -10776.284    883.95932   -11660.243    4163.9112   -15824.154     90.00001    374.47682    723.29861    433.84631   -378.89155     3.640438   -97.461387      46.7237      46.7237      46.7237           90           90           90     102002.7    510.54058 
  503000       502500   -10791.177    897.81423   -11688.991    4147.5462   -15836.537    91.410643    470.25276    407.69174    841.98017   -297.66292    -69.54587    50.327566      46.7237      46.7237      46.7237           90           90           90     102002.7    573.30822 
  504000       503500   -10753.516    917.18407     -11670.7    4166.6628   -15837.362    93.382776     492.6795    367.19658    414.24039    25.549455    14.931503    66.707917      46.7237      46.7237      46.7237           90           90           90     102002.7    424.70549 
  505000       504500   -10797.801    889.65572   -11687.456     4170.811   -15858.267    90.579987    477.28156    88.396247    396.44766    9.2591675    85.402459    75.305747      46.7237      46.7237      46.7237           90           90           90     102002.7    320.70849 
  506000       505500   -10829.616    878.34141   -11707.958    4132.8635   -15840.821    89.428024    348.63243    287.77573    439.48874    27.081609   -2.1640155    -74.06503      46.7237      46.7237      46.7237           90           90           90     102002.7     358.6323 
  507000       506500    -10799.33    912.23779   -11711.567    4143.0574   -15854.625    92.879173    437.26012    652.83511    184.07591    152.43877    -145.0549    77.730328      46.7237      46.7237      46.7237           90           90           90     102002.7    424.72371 
  508000       507500   -10772.127    907.31194   -11679.439    4160.3784   -15839.817    92.377649    486.64013     107.6492     135.1025   -7.2109119   -219.18835   -4.6386521      46.7237      46.7237      46.7237           90           90           90     102002.7    243.13061 
  509000       508500   -10822.563    883.12256   -11705.686    4163.5446    -15869.23    89.914816    352.72268    187.75444    76.902199    -54.05868     156.2465   -151.65179      46.7237      46.7237      46.7237           90           90           90     102002.7    205.79311 
  510000       509500   -10793.587    888.01066   -11681.597     4167.751   -15849.348    90.412495    230.14812    622.02637    379.08063   -38.826653    -368.5769    9.4573368      46.7237      46.7237      46.7237           90           90           90     102002.7    410.41837 
  511000       510500   -10827.091     877.1831   -11704.275    4143.2635   -15847.538    89.310092    467.62764    327.34513    250.25399    41.232375    98.135581   -23.423201      46.7237      46.7237      46.7237           90           90           90     102002.7    348.40892 
  512000       511500   -10787.701    886.45084   -11674.152    4166.1488   -15840.301    90.253683    57.829813    929.50613     779.6188   -13.264617   -55.126056    109.89137      46.7237      46.7237      46.7237           90           90           90     102002.7    588.98491 
  513000       512500   -10826.891    877.08035   -11703.971    4149.6088    -15853.58     89.29963    287.96444    438.35958    486.05002    395.79189   -171.49785   -109.15438      46.7237      46.7237      46.7237           90           90           90     102002.7    404.12468 
  514000       513500   -10787.554    888.15344   -11675.708    4155.9586   -15831.666    90.427033     244.9675    233.91457    331.41566    78.014192    66.085017   -184.87467      46.7237      46.7237      46.7237           90           90           90     102002.7    270.09924 
  515000       514500   -10760.899    918.10599   -11679.005    4149.8885   -15828.894    93.476641    359.57741    110.47183    269.42551   -102.05215   -136.46685   -52.756317      46.7237      46.7237      46.7237           90           90           90     102002.7    246.49158 
  516000       515500   -10797.613    920.81591   -11718.429    4132.6664   -15851.095    93.752551    729.74839    548.67182   -8.5898082   -71.171566    58.524481   -262.29251      46.7237      46.7237      46.7237           90           90           90     102002.7     423.2768 
  517000       516500   -10814.424    879.32042   -11693.744    4148.6366   -15842.381    89.527702     428.2941    335.16414    635.56519   -164.74309   -70.915706    239.76467      46.7237      46.7237      46.7237           90           90           90     102002.7    466.34114 
  518000       517500    -10793.06     913.5787   -11706.638    4153.0658   -15859.704    93.015697    189.86292    12.923524    32.929985    198.01447   -22.332568   -165.50525      46.7237      46.7237      46.7237           90           90           90     102002.7    78.572142 
  519000       518500   -10772.913    913.40173   -11686.315     4152.527   -15838.842    92.997679    -48.58682    632.99035    780.75974      96.1505    181.81609    200.64324      46.7237      46.7237      46.7237           90           90           90     102002.7    455.05442 
  520000       519500   -10764.498    922.94465   -11687.443    4163.2892   -15850.732    93.969288    149.11659    397.66998    715.41215   -291.83622   0.83734483    235.23682      46.7237      46.7237      46.7237           90           90           90     102002.7    420.73291 
  521000       520500   -10810.759    892.57596   -11703.335    4147.2946    -15850.63     90.87731    39.189569    439.57627     917.3664   -128.95085    26.651241    118.25579      46.7237      46.7237      46.7237           90           90           90     102002.7    465.37741 
  522000       521500   -10758.279    910.23603   -11668.515    4155.3544   -15823.869    92.675364    344.02066    124.71665    646.04912   -111.37421    -28.98239   -79.229007      46.7237      46.7237      46.7237           90           90           90     102002.7    371.59548 
  523000       522500   -10800.632    896.59809    -11697.23    4150.5159   -15847.746    91.286822    474.04211    530.22636    370.97762    327.53582   -74.987113    75.465083      46.7237      46.7237      46.7237           90           90           90     102002.7    458.41537 
  524000       523500   -10787.399     906.0179   -11693.417    4143.5413   -15836.958    92.245897    337.38335    204.73043    296.49692    307.39432    111.74517   -104.53666      46.7237      46.7237      46.7237           90           90           90     102002.7     279.5369 
  525000       524500   -10809.138    888.20952   -11697.347    4138.9607   -15836.308    90.432743     360.9618    369.32846    575.76751   -15.707864    37.678315    102.84603      46.7237      46.7237      46.7237           90           90           90     102002.7    435.35259 
  526000       525500   -10790.738    896.96776   -11687.706    4142.1503   -15829.856     91.32446     517.1476    646.32643    503.55285    112.33809    59.446473    32.633845      46.7237      46.7237      46.7237           90           90           90     102002.7    555.67563 
  527000       526500   -10806.624    886.63332   -11693.257    4127.4629    -15820.72    90.272262    55.019049    256.33254    481.72906   -94.294072   -8.9450759   -39.889984      46.7237      46.7237      46.7237           90           90           90     102002.7    264.36022 
  528000       527500    -10777.56     911.7318   -11689.292    4171.7664   -15861.059    92.827656    559.88309    396.58925    208.10869    142.82306    15.985927   -139.56146      46.7237      46.7237      46.7237           90           90           90     102002.7    388.19368 
  529000       528500   -10802.685    894.06679   -11696.752    4133.9923   -15830.744    91.029099    494.25442    529.58993    739.24834    126.70283    91.856435   -145.85054      46.7237      46.7237      46.7237           90           90           90     102002.7    587.69756 
  530000       529500   -10802.979    890.92716   -11693.906    4152.5922   -15846.498    90.709439    388.55754    638.76797    -60.12106   -59.202665    61.955226    140.60665      46.7237      46.7237      46.7237           90           90           90     102002.7    322.40148 
  531000       530500   -10797.777    890.22193   -11687.999    4164.7542   -15852.753    90.637635    576.58214    555.23675    700.43852     95.88428   -36.896362    211.98663      46.7237      46.7237      46.7237           90           90           90     102002.7    610.75247 
  532000       531500   -10813.955    890.72766   -11704.682    4149.5889   -15854.271    90.689126    107.41378    22.921521    262.61222    78.525421   -97.314574   -53.737648      46.7237      46.7237      46.7237           90           90           90     102002.7    130.98251 
  533000       532500   -10811.309    900.31389   -11711.622     4145.178     -15856.8    91.665145    279.97657    551.27112    155.69771   -153.56975    37.880187    276.78464      46.7237      46.7237      46.7237           90           90           90     102002.7     328.9818 
  534000       533500   -10811.447    878.21028   -11689.658    4162.2143   -15851.872    89.414674     390.1077     287.5174    504.80663   -70.995337    91.335762   -146.25336      46.7237      46.7237      46.7237           90           90           90     102002.7    394.14391 
  535000       534500   -10804.015    891.19848   -11695.214    4156.6997   -15851.914    90.737063    1.8771857    362.73608    397.96972   -153.91958    12.397733    208.88331      46.7237      46.7237      46.7237           90           90           90     102002.7    254.19433 
  536000       535500    -10812.11     892.0577   -11704.168    4139.4839   -15843.652    90.824544    557.35115    104.45133    309.19366    59.638842   -13.441311    83.155122      46.7237      46.7237      46.7237           90           90           90     102002.7    323.66538 
  537000       536500   -10776.425    895.77161   -11672.197     4166.858   -15839.055    91.202675     104.4151    759.70664    368.40986   -36.173507   -124.43947   -8.3848008      46.7237      46.7237      46.7237           90           90           90     102002.7    410.84387 
  538000       537500   -10779.743    904.94792   -11684.691    4170.7282   -15855.419    92.136957    52.063741   -245.39831   -9.1253645    37.535222    114.70983   -215.20889      46.7237      46.7237      46.7237           90           90           90     102002.7   -67.486644 
  539000       538500   -10793.561    880.11255   -11673.673    4156.2167    -15829.89    89.608353    355.55702    15.074024    249.36095    73.709865   -44.691619   -53.448105      46.7237      46.7237      46.7237           90           90           90     102002.7      206.664 
  540000       539500   -10794.795    897.10892   -11691.904    4141.9785   -15833.882    91.338832    684.04091    468.35005    762.43427   -185.21232    151.40776    76.938016      46.7237      46.7237      46.7237           90           90           90     102002.7    638.27508 
  541000       540500   -10794.157    910.97587   -11705.133    4138.6965    -15843.83     92.75069      251.631    164.68215   -35.520689   -255.63719   -110.74652    272.04532      46.7237      46.7237      46.7237           90           90           90     102002.7    126.93082 
  542000       541500   -10791.016    890.88543   -11681.901      4140.03   -15821.931     90.70519    769.04287    850.07182    498.31152   -128.18104   -283.29717    138.17101      46.7237      46.7237      46.7237           90           90           90     102002.7    705.80873 
  543000       542500   -10795.647    902.16868   -11697.816    4118.6182   -15816.434     91.85399    722.77409     368.9477     1199.464    112.80259    234.31908   -269.07889      46.7237      46.7237      46.7237           90           90           90     102002.7    763.72859 
  544000       543500   -10775.529     910.6904    -11686.22    4137.3104    -15823.53    92.721626    448.75025    611.89717    417.40302   -77.389422   0.58404769    195.49069      46.7237      46.7237      46.7237           90           90           90     102002.7    492.68348 
  545000       544500   -10790.719    898.63339   -11689.352    4158.2078    -15847.56    91.494046   -76.559349    62.149832    405.47304   -223.38234   -18.045119   -67.708717      46.7237      46.7237      46.7237           90           90           90     102002.7    130.35451 
  546000       545500   -10800.508    914.41339   -11714.922    4157.0624   -15871.984    93.100681   -49.553839    328.94326    350.09825   -91.293009   -365.37897    158.63435      46.7237      46.7237      46.7237           90           90           90     102002.7    209.82923 
  547000       546500   -10782.269    901.27593   -11683.545    4142.3697   -15825.915    91.763095     892.0655    600.08302    303.22595    63.951889   -48.759236   -129.11323      46.7237      46.7237      46.7237           90           90           90     102002.7    598.45816 
  548000       547500   -10828.768    889.13366   -11717.902    4150.7003   -15868.602    90.526833    12.286121    240.43086    409.70217    20.671807    20.647708    165.85664      46.7237      46.7237      46.7237           90           90           90     102002.7    220.80639 
  549000       548500   -10807.197    884.23283    -11691.43    4149.8812   -15841.311    90.027857    10.839106   -72.820071    130.23257   -93.699923    561.03635   -163.13024      46.7237      46.7237      46.7237           90           90           90     102002.7    22.750535 
  550000       549500   -10777.537    904.29025   -11681.828    4157.2876   -15839.115    92.069997    171.96398   -27.991899    740.95868    -50.38078    71.771589   -215.52898      46.7237      46.7237      46.7237           90           90           90     102002.7    294.97692 
  551000       550500   -10807.448    885.29155    -11692.74    4140.1055   -15832.845    90.135651    530.70081    715.18306    457.93664   -256.84931   -98.156741   0.71355509      46.7237      46.7237      46.7237           90           90           90     102002.7    567.94017 
  552000       551500   -10792.468    885.17682   -11677.645    4153.3583   -15831.003    90.123969     389.6332      760.554    468.91049   -90.990296    130.05684      77.4271      46.7237      46.7237      46.7237           90           90           90     102002.7    539.69923 
  553000       552500   -10806.887    882.98445   -11689.872    4156.7447   -15846.616    89.900754    450.41505    386.74589    249.40727    -44.18611   -56.181629   -93.697092      46.7237      46.7237      46.7237           90           90           90     102002.7     362.1894 
  554000       553500   -10791.506    882.20963   -11673.716    4165.3378   -15839.053    89.821866    252.77168    445.33819    899.09277   -120.57061   -131.16326    82.073819      46.7237      46.7237      46.7237           90           90           90     102002.7    532.40088 
  555000       554500   -10789.182    910.86634   -11700.048    4149.9584   -15850.007    92.739539    252.38751    258.67018    708.40479    71.384026   -23.384534   -150.31674      46.7237      46.7237      46.7237           90           90           90     102002.7    406.48749 
[...]
  936000       935500   -10799.881    893.94685   -11693.828    4157.6385   -15851.466    91.016887    347.55567   0.13903741    377.17214   -104.66297   -194.71385    35.011544      46.7237      46.7237      46.7237           90           90           90     102002.7    241.62228 
  937000       936500   -10829.117    880.01681   -11709.134    4133.6883   -15842.822    89.598605    303.05624    -5.560257    285.76134    160.09792   -121.04993    166.29022      46.7237      46.7237      46.7237           90           90           90     102002.7    194.41911 
  938000       937500   -10797.857    888.08873   -11685.946    4165.7153   -15851.661    90.420445    193.62438    181.89483    309.16356    -43.56831   -109.06683   -194.87002      46.7237      46.7237      46.7237           90           90           90     102002.7    228.22759 
  939000       938500   -10795.372    904.35501   -11699.727    4137.9559   -15837.683     92.07659     614.5629    219.86579    454.46415   -243.32773   -231.80327   -85.733287      46.7237      46.7237      46.7237           90           90           90     102002.7    429.63094 
  940000       939500   -10791.754    920.23764   -11711.992    4144.6252   -15856.617    93.693675    447.98654     289.5148    234.77309    140.11117   -125.20586   -108.59297      46.7237      46.7237      46.7237           90           90           90     102002.7    324.09148 
  941000       940500   -10808.797    866.98357   -11675.781     4156.686   -15832.467     88.27163    385.24596    214.94982    626.61499   -67.622213   -239.62758   -44.665169      46.7237      46.7237      46.7237           90           90           90     102002.7    408.93692 
  942000       941500   -10784.327     899.0845   -11683.411     4169.904   -15853.315    91.539975   -69.413061   -185.18854    566.01868    77.891436    251.56461    187.97071      46.7237      46.7237      46.7237           90           90           90     102002.7     103.8057 
  943000       942500   -10794.614     903.7509   -11698.365    4145.9942   -15844.359    92.015083    415.86301    91.463699    329.16877   -205.91055    12.112307    159.52396      46.7237      46.7237      46.7237           90           90           90     102002.7    278.83183 
  944000       943500   -10788.302    897.39014   -11685.692    4155.1669   -15840.859    91.367465    374.74928    365.53383    299.94492   -96.839318    67.307224     38.91767      46.7237      46.7237      46.7237           90           90           90     102002.7    346.74268 
  945000       944500   -10821.108    880.88731   -11701.995    4140.7655   -15842.761    89.687235    110.40498    276.96385    223.12904   -241.36441    159.65011    134.98418      46.7237      46.7237      46.7237           90           90           90     102002.7    203.49929 
  946000       945500   -10772.867    904.49804   -11677.365    4157.5449    -15834.91    92.091153    805.23296    775.45382    772.45661    67.513404    -78.80135    30.174365      46.7237      46.7237      46.7237           90           90           90     102002.7    784.38113 
  947000       946500   -10818.659    890.19995   -11708.859    4144.0188   -15852.878    90.635398     2.378601    609.30309    281.51793   -53.828913   -105.29552   -174.20458      46.7237      46.7237      46.7237           90           90           90     102002.7    297.73321 
  948000       947500   -10783.894    910.83363   -11694.727    4143.0194   -15837.747    92.736209    376.54943    389.56922    624.36758    41.004415    89.617592    40.981295      46.7237      46.7237      46.7237           90           90           90     102002.7    463.49541 
  949000       948500   -10806.956    892.24753   -11699.203     4161.555   -15860.758    90.843871     186.4928    486.96125    177.29662    107.61385   -284.53781   -48.242323      46.7237      46.7237      46.7237           90           90           90     102002.7    283.58356 
  950000       949500   -10851.404    857.22694   -11708.631    4147.3746   -15856.006    87.278262    101.91813   -120.56026    64.583755    25.234524   -37.733528   -99.879934      46.7237      46.7237      46.7237           90           90           90     102002.7    15.313875 
  951000       950500   -10807.316    888.16613   -11695.482    4157.6619   -15853.144    90.428325    417.30538    329.06584    80.529788     -144.635    73.864871   -123.82256      46.7237      46.7237      46.7237           90           90           90     102002.7    275.63367 
  952000       951500   -10791.264    900.08083   -11691.345     4153.759   -15845.104    91.641416    717.29721    438.38998     28.68856    208.33332    148.66454   -49.409822      46.7237      46.7237      46.7237           90           90           90     102002.7    394.79192 
  953000       952500   -10834.087    882.72706   -11716.814    4138.6907   -15855.504    89.874548    298.32172    439.43892    330.22875   -4.5083762   -15.952618    62.750203      46.7237      46.7237      46.7237           90           90           90     102002.7    355.99646 
  954000       953500   -10799.139    886.75838   -11685.898    4146.7619    -15832.66    90.284996     778.1826    291.70537    469.52347    158.04086    43.727986    24.385727      46.7237      46.7237      46.7237           90           90           90     102002.7    513.13715 
  955000       954500   -10777.267    904.88657   -11682.154    4177.4504   -15859.604    92.130711     522.4586    344.49852    541.63644    262.41261   -105.33011   -70.334958      46.7237      46.7237      46.7237           90           90           90     102002.7    469.53118 
  956000       955500   -10805.235    885.73843   -11690.974    4149.8943   -15840.868    90.181149    215.55125    568.04143    574.32499   -133.91118    81.550818   -46.605778      46.7237      46.7237      46.7237           90           90           90     102002.7    452.63923 
  957000       956500   -10778.926    900.10284   -11679.029    4151.2971   -15830.326    91.643657    320.76036      17.9308    173.16503   -49.851183   -32.114432    -156.4615      46.7237      46.7237      46.7237           90           90           90     102002.7    170.61873 
  958000       957500   -10806.263    883.62366   -11689.886    4140.5852   -15830.472    89.965835     296.5792    467.62137   -84.577728    -188.7303   -10.227636   -240.67996      46.7237      46.7237      46.7237           90           90           90     102002.7    226.54095 
  959000       958500   -10816.606      882.235   -11698.841    4139.8042   -15838.645    89.824449    219.90187   -122.64354    548.44423    -51.09963    62.416173    119.19413      46.7237      46.7237      46.7237           90           90           90     102002.7    215.23419 
  960000       959500   -10788.315    884.55611   -11672.871    4163.5923   -15836.464    90.060773    254.21234   -275.09229    159.06966    44.767776   -69.302115   -193.22686      46.7237      46.7237      46.7237           90           90           90     102002.7    46.063237 
  961000       960500   -10788.259    885.46669   -11673.726    4139.0062   -15812.732    90.153483    766.72116    699.60456    701.22989   -12.353913   -8.3463473    165.03857      46.7237      46.7237      46.7237           90           90           90     102002.7    722.51854 
  962000       961500   -10808.884    884.59345   -11693.478    4147.7463   -15841.224    90.064574    706.35095    615.27274     208.0136    61.434169    26.929416    88.816617      46.7237      46.7237      46.7237           90           90           90     102002.7     509.8791 
  963000       962500   -10792.527    888.23362   -11680.761    4137.4679   -15818.229    90.435196    384.79774    452.23859    32.317616   -81.501016   -121.27152   -179.30885      46.7237      46.7237      46.7237           90           90           90     102002.7    289.78465 
  964000       963500   -10816.012    874.71701   -11690.729    4131.8723   -15822.601    89.059008     313.7447    495.78626    352.87615   -100.33222    202.48781   -25.823176      46.7237      46.7237      46.7237           90           90           90     102002.7    387.46904 
  965000       964500   -10806.328    888.56049   -11694.888    4152.7194   -15847.608    90.468476    638.07675    268.34187    270.90457   -299.40797    113.32112   -222.41696      46.7237      46.7237      46.7237           90           90           90     102002.7    392.44106 
  966000       965500   -10793.704    899.27323   -11692.977    4166.8844   -15859.862     91.55919   -152.31999    99.506954    193.53496    49.107605     9.068583   -2.3519625      46.7237      46.7237      46.7237           90           90           90     102002.7    46.907308 
  967000       966500   -10824.505    871.93301   -11696.438    4146.9012    -15843.34    88.775556    251.28668    334.89297    68.453409    89.360671    1.6067699    206.73229      46.7237      46.7237      46.7237           90           90           90     102002.7    218.21102 
  968000       967500   -10812.787    890.50422   -11703.291    4135.8925   -15839.184    90.666377    387.56126    290.03106    680.48801    84.470984    105.35941    8.1186256      46.7237      46.7237      46.7237           90           90           90     102002.7    452.69344 
  969000       968500   -10823.169    890.77345   -11713.942    4136.6971   -15850.639    90.693789    408.85741    409.27921    154.16067    78.190026    59.873414   -192.63461      46.7237      46.7237      46.7237           90           90           90     102002.7    324.09909 
  970000       969500   -10786.503    907.98953   -11694.493    4150.1597   -15844.652    92.446638    80.237116      198.999      212.658    155.79709   -262.16297    5.5654651      46.7237      46.7237      46.7237           90           90           90     102002.7     163.9647 
  971000       970500   -10852.523     874.3443   -11726.867    4146.1045   -15872.972     89.02106    111.94363     311.8781    619.37846   -84.808194   -67.431867    34.344419      46.7237      46.7237      46.7237           90           90           90     102002.7    347.73339 
  972000       971500   -10793.017    892.91688   -11685.934    4158.8488   -15844.783    90.912021   -106.36678    401.11797    816.61135    188.44375    138.38156   -25.416536      46.7237      46.7237      46.7237           90           90           90     102002.7    370.45418 
  973000       972500   -10806.004    894.33716   -11700.341     4145.297   -15845.638    91.056627    313.21148    523.50627    955.03497    166.03558   -10.087402   -224.09589      46.7237      46.7237      46.7237           90           90           90     102002.7    597.25091 
  974000       973500   -10794.064    894.31595    -11688.38    4150.0636   -15838.443    91.054467    231.28573     787.5977    249.69903   -94.092485   -294.18061   -76.062733      46.7237      46.7237      46.7237           90           90           90     102002.7    422.86082 
  975000       974500   -10814.405    895.15036   -11709.555    4150.5072   -15860.062    91.139422    212.37908    654.86664    597.55853    128.86755   -92.421322     69.82958      46.7237      46.7237      46.7237           90           90           90     102002.7    488.26808 
  976000       975500   -10810.896    891.60303   -11702.499    4150.4641   -15852.963    90.778252    209.98945     467.3407    656.28157   -82.194179    338.08827   -21.034959      46.7237      46.7237      46.7237           90           90           90     102002.7    444.53724 
  977000       976500   -10782.046    901.91051   -11683.956    4161.3265   -15845.283    91.827705   -382.03751    292.07291    355.51737    120.38093    321.19121   -79.827397      46.7237      46.7237      46.7237           90           90           90     102002.7    88.517591 
  978000       977500   -10810.086    876.75149   -11686.837    4158.0087   -15844.846    89.266147    494.96397    285.18379     453.8145    143.31008   -15.847769    -20.59138      46.7237      46.7237      46.7237           90           90           90     102002.7    411.32075 
  979000       978500   -10800.317    880.81168   -11681.129    4156.6317    -15837.76    89.679534   -131.54341    106.28403    974.49231   -83.120384    -108.4711   -60.317984      46.7237      46.7237      46.7237           90           90           90     102002.7    316.41098 
  980000       979500   -10782.676    880.64835   -11663.324    4161.9763     -15825.3    89.662905    253.43291    308.03222    553.47568    8.6416792   -162.73212    -81.25665      46.7237      46.7237      46.7237           90           90           90     102002.7    371.64694 
  981000       980500   -10803.978     880.2883   -11684.266    4160.3963   -15844.662    89.626246    238.48769    331.53232   -68.692352    60.218434    144.25828   -188.35819      46.7237      46.7237      46.7237           90           90           90     102002.7    167.10922 
  982000       981500   -10767.052     910.9481       -11678    4159.5056   -15837.506    92.747863    87.063447    465.23161    138.57238    207.60178    111.29198    79.833097      46.7237      46.7237      46.7237           90           90           90     102002.7    230.28915 
  983000       982500   -10814.384    887.39742   -11701.782     4156.234   -15858.016    90.350059    170.67655    310.57609     805.7124   -145.57694     227.8973    43.406132      46.7237      46.7237      46.7237           90           90           90     102002.7    428.98835 
  984000       983500    -10798.92    894.09152   -11693.012    4152.9454   -15845.957    91.031617    557.22162    618.34722    330.61659    338.51291   -158.62502   -44.856462      46.7237      46.7237      46.7237           90           90           90     102002.7    502.06181 
  985000       984500   -10788.039    882.80458   -11670.844    4158.1682   -15829.012    89.882441    137.40033    405.99052    608.11278    68.589813    98.457018    128.79168      46.7237      46.7237      46.7237           90           90           90     102002.7    383.83454 
  986000       985500   -10803.921    899.46199   -11703.383     4140.979   -15844.362    91.578409   -11.336132    209.08291    388.86369   -113.73908     107.6065   -215.98591      46.7237      46.7237      46.7237           90           90           90     102002.7    195.53682 
  987000       986500   -10778.382    910.67881   -11689.061    4151.5132   -15840.574    92.720445    172.43933   -132.69672     410.5085   -10.525373   -158.25688    218.33454      46.7237      46.7237      46.7237           90           90           90     102002.7     150.0837 
  988000       987500   -10805.823    883.54606   -11689.369    4146.3709    -15835.74    89.957934    124.44133    334.75243    542.60858    5.4727945    26.529848    276.63992      46.7237      46.7237      46.7237           90           90           90     102002.7    333.93411 
  989000       988500   -10810.598    878.77739   -11689.375    4155.9832   -15845.359    89.472414    470.33732    277.75928    201.56152   -18.802389   -73.647925    -65.64329      46.7237      46.7237      46.7237           90           90           90     102002.7     316.5527 
  990000       989500   -10811.418    895.49468   -11706.912    4151.9262   -15858.838    91.174478    416.05777    109.57957    66.312541   -110.88479    309.53369    169.00971      46.7237      46.7237      46.7237           90           90           90     102002.7    197.31663 
  991000       990500   -10791.673    901.12067   -11692.793     4134.657    -15827.45    91.747287    899.59757    373.95387    785.05999   -40.805165    14.193975   -148.43644      46.7237      46.7237      46.7237           90           90           90     102002.7    686.20381 
  992000       991500   -10799.906    888.46592   -11688.372      4148.71   -15837.082    90.458848    641.36713    349.37064    374.70748   -314.88664   -5.6417945   -163.45065      46.7237      46.7237      46.7237           90           90           90     102002.7    455.14842 
  993000       992500   -10800.158    888.44067   -11688.599    4160.6267   -15849.225    90.456277    200.05069   -221.29925     451.8704    55.600968   -1.9926391    -198.8634      46.7237      46.7237      46.7237           90           90           90     102002.7    143.54061 
  994000       993500   -10792.447    903.78569   -11696.233    4160.9539   -15857.187    92.018625    634.08034    166.93112    146.06157     202.0834    95.931976    9.1570017      46.7237      46.7237      46.7237           90           90           90     102002.7    315.69101 
  995000       994500   -10797.244    888.37152   -11685.616    4147.9574   -15833.573    90.449237    378.11213    2.5395354    130.08438    193.14846   -74.202809   -72.467112      46.7237      46.7237      46.7237           90           90           90     102002.7    170.24535 
  996000       995500   -10809.326    897.67879   -11707.005    4126.8926   -15833.897    91.396854    470.49147     459.3232     552.9633    49.143408   -171.40964   -13.612604      46.7237      46.7237      46.7237           90           90           90     102002.7    494.25932 
  997000       996500     -10807.1    901.99267   -11709.092    4127.1081     -15836.2     91.83607    396.05469    183.74293    38.387579    203.32205   -269.84761     6.704703      46.7237      46.7237      46.7237           90           90           90     102002.7    206.06173 
  998000       997500   -10790.183    899.52726   -11689.711    4151.8478   -15841.558    91.585054    635.97188    190.34321    283.50556   -75.834592    51.462147   -28.846084      46.7237      46.7237      46.7237           90           90           90     102002.7    369.94022 
  999000       998500   -10823.884    881.22398   -11705.108    4138.2502   -15843.358    89.721512    141.93019      563.988    349.45555    139.39918    38.513161    77.637057      46.7237      46.7237      46.7237           90           90           90     102002.7    351.79124 
 1000000       999500   -10782.906    890.92126   -11673.827    4162.9551   -15836.782    90.708837    642.46694    487.24044    682.89931   -98.822827    84.857959    107.21934      46.7237      46.7237      46.7237           90           90           90     102002.7    604.20223 
 1000500      1000000   -10794.333    895.87864   -11690.212    4153.8116   -15844.023    91.213571    581.60398     556.3167    184.30467    100.18056    131.31107   -44.367892      46.7237      46.7237      46.7237           90           90           90     102002.7    440.74178 
Loop time of 2370.49 on 16 procs for 500000 steps with 3296 atoms

Performance: 18.224 ns/day, 1.317 hours/ns, 210.927 timesteps/s
99.8% CPU use with 16 MPI tasks x no OpenMP threads

MPI task timing breakdown:
Section |  min time  |  avg time  |  max time  |%varavg| %total
---------------------------------------------------------------
Pair    | 995.94     | 1528.8     | 1868.6     | 667.7 | 64.49
Bond    | 124.38     | 184.38     | 219.69     | 212.5 |  7.78
Neigh   | 15.002     | 15.03      | 15.061     |   0.5 |  0.63
Comm    | 246.95     | 609.46     | 1202.3     |1154.6 | 25.71
Output  | 0.13416    | 0.1425     | 0.14317    |   0.6 |  0.01
Modify  | 24.629     | 25.641     | 26.916     |  13.4 |  1.08
Other   |            | 7.052      |            |       |  0.30

Nlocal:    206 ave 237 max 172 min
Histogram: 2 1 1 1 2 3 1 1 2 2
Nghost:    4141.06 ave 4178 max 4111 min
Histogram: 3 2 0 3 0 3 1 1 1 2
Neighs:    11465.4 ave 17130 max 6112 min
Histogram: 2 3 1 1 2 1 0 0 3 3

Total # of neighbors = 183447
Ave neighs/atom = 55.6575
Ave special neighs/atom = 3.49515
Neighbor list builds = 4098
Dangerous builds = 0
Total wall time: 1:11:57
