LAMMPS (30 Mar 2018)
Reading data file ...
  orthogonal box = (0 0 0) to (46.7237 46.7237 46.7237)
  2 by 2 by 4 MPI processor grid
  reading atoms ...
  1730 atoms
  scanning bonds ...
  5 = max bonds/atom
  scanning angles ...
  10 = max angles/atom
  scanning dihedrals ...
  32 = max dihedrals/atom
  scanning impropers ...
  3 = max impropers/atom
  reading bonds ...
  2064 bonds
  reading angles ...
  3696 angles
  reading dihedrals ...
  6240 dihedrals
  reading impropers ...
  1008 impropers
Finding 1-2 1-3 1-4 neighbors ...
  special bond factors lj:   0          0          0         
  special bond factors coul: 0          0          0         
  5 = max # of 1-2 neighbors
  8 = max # of 1-3 neighbors
  20 = max # of 1-4 neighbors
  19 = max # of special neighbors
Finding 1-2 1-3 1-4 neighbors ...
  special bond factors lj:   0          0          1         
  special bond factors coul: 1          1          1         
  5 = max # of 1-2 neighbors
  8 = max # of 1-3 neighbors
  19 = max # of special neighbors
WARNING: Using 'neigh_modify every 1 delay 0 check yes' setting during minimization (../min.cpp:168)
Neighbor list info ...
  update every 1 steps, delay 0 steps, check yes
  max neighbors/atom: 2000, page size: 100000
  master list distance cutoff = 16
  ghost atom cutoff = 16
  binsize = 8, bins = 6 6 6
  3 neighbor lists, perpetual/occasional/extra = 3 0 0
  (1) pair buck6d/coul/gauss/dsf, perpetual, skip from (3)
      attributes: half, newton on
      pair build: skip
      stencil: none
      bin: none
  (2) pair lj/cut, perpetual, skip from (3)
      attributes: half, newton on
      pair build: skip
      stencil: none
      bin: none
  (3) neighbor class addition, perpetual
      attributes: half, newton on
      pair build: half/bin/newton
      stencil: half/bin/3d/newton
      bin: standard
Setting up cg style minimization ...
  Unit style    : real
  Current step  : 0
WARNING: Inconsistent image flags (../domain.cpp:786)
Per MPI rank memory allocation (min/avg/max) = 22.89 | 23.35 | 23.79 Mbytes
Step Temp E_pair E_mol TotEng Press 
       0            0   -11519.048    6482.8914   -5036.1561    6288.8261 
     507            0   -11538.205    3735.0111   -7803.1937   -445.17422 
Loop time of 2.76006 on 16 procs for 507 steps with 1730 atoms

99.9% CPU use with 16 MPI tasks x no OpenMP threads

Minimization stats:
  Stopping criterion = max force evaluations
  Energy initial, next-to-last, final = 
        -5036.15612537     -7803.16490529     -7803.19369674
  Force two-norm initial, final = 2576.98 7.87709
  Force max component initial, final = 151.958 1.04868
  Final line search alpha, max atom move = 0.0184465 0.0193445
  Iterations, force evaluations = 507 1001

MPI task timing breakdown:
Section |  min time  |  avg time  |  max time  |%varavg| %total
---------------------------------------------------------------
Pair    | 1.236      | 1.5711     | 1.8724     |  15.4 | 56.92
Bond    | 0.29495    | 0.3627     | 0.40263    |   5.2 | 13.14
Neigh   | 0.013511   | 0.013706   | 0.014      |   0.1 |  0.50
Comm    | 0.45401    | 0.77313    | 1.071      |  20.6 | 28.01
Output  | 0          | 0          | 0          |   0.0 |  0.00
Modify  | 0          | 0          | 0          |   0.0 |  0.00
Other   |            | 0.03946    |            |       |  1.43

Nlocal:    108.125 ave 124 max 85 min
Histogram: 1 0 0 1 1 4 6 2 0 1
Nghost:    2189.38 ave 2210 max 2175 min
Histogram: 1 0 4 2 6 1 1 0 0 1
Neighs:    11441.4 ave 15975 max 8385 min
Histogram: 4 3 1 1 0 1 1 4 0 1

Total # of neighbors = 183062
Ave neighs/atom = 105.816
Ave special neighs/atom = 6.65896
Neighbor list builds = 12
Dangerous builds = 0
Neighbor list info ...
  update every 1 steps, delay 10 steps, check yes
  max neighbors/atom: 2000, page size: 100000
  master list distance cutoff = 16
  ghost atom cutoff = 16
  binsize = 8, bins = 6 6 6
  3 neighbor lists, perpetual/occasional/extra = 3 0 0
  (1) pair buck6d/coul/gauss/dsf, perpetual, skip from (3)
      attributes: half, newton on
      pair build: skip
      stencil: none
      bin: none
  (2) pair lj/cut, perpetual, skip from (3)
      attributes: half, newton on
      pair build: skip
      stencil: none
      bin: none
  (3) neighbor class addition, perpetual
      attributes: half, newton on
      pair build: half/bin/newton
      stencil: half/bin/3d/newton
      bin: standard
Setting up Verlet run ...
  Unit style    : real
  Current step  : 507
  Time step     : 1
WARNING: Inconsistent image flags (../domain.cpp:786)
Per MPI rank memory allocation (min/avg/max) = 22.54 | 22.6 | 22.68 Mbytes
Step Temp PotEng TotEng Press Volume Lx Ly Lz 
     507          130   -7803.1937    -7133.197   -144.91675     102002.7      46.7237      46.7237      46.7237 
    1000    110.25666   -7187.3645   -6619.1214   -749.59815     102002.7      46.7237      46.7237      46.7237 
    2000    126.95277   -7084.8653   -6430.5735   -702.95362     102002.7      46.7237      46.7237      46.7237 
    3000    128.16045   -7121.9485   -6461.4326   -722.67999     102002.7      46.7237      46.7237      46.7237 
    4000    124.99879   -7117.3101   -6473.0887   -379.84897     102002.7      46.7237      46.7237      46.7237 
    5000    128.69752   -7100.3909    -6437.107   -1102.1548     102002.7      46.7237      46.7237      46.7237 
    6000    126.67845   -7144.8741   -6491.9961   -672.04905     102002.7      46.7237      46.7237      46.7237 
    7000     131.8166   -7115.9973   -6436.6383   -734.03696     102002.7      46.7237      46.7237      46.7237 
    8000    128.79622   -7145.2722   -6481.4796   -711.28551     102002.7      46.7237      46.7237      46.7237 
    9000     128.4681   -7127.7752   -6465.6737    -782.4576     102002.7      46.7237      46.7237      46.7237 
   10000    130.50662   -7143.7219   -6471.1142   -515.88109     102002.7      46.7237      46.7237      46.7237 
   11000    128.37039   -7131.7762   -6470.1783   -419.00516     102002.7      46.7237      46.7237      46.7237 
   12000    131.38047   -7100.3343   -6423.2229   -534.96612     102002.7      46.7237      46.7237      46.7237 
   13000    134.23635   -7136.7662   -6444.9361   -724.97958     102002.7      46.7237      46.7237      46.7237 
   14000    127.87928   -7114.3765   -6455.3096   -351.25444     102002.7      46.7237      46.7237      46.7237 
   15000    131.76785   -7107.0674   -6427.9596   -679.75105     102002.7      46.7237      46.7237      46.7237 
   16000     127.0049   -7129.3138   -6474.7533    -589.3215     102002.7      46.7237      46.7237      46.7237 
   17000    133.22849   -7130.8546   -6444.2188   -731.32988     102002.7      46.7237      46.7237      46.7237 
   18000    132.74359    -7139.296   -6455.1593   -579.38529     102002.7      46.7237      46.7237      46.7237 
   19000    132.25345   -7116.8921   -6435.2816   -711.69942     102002.7      46.7237      46.7237      46.7237 
   20000    131.16747   -7116.1817   -6440.1681   -646.57895     102002.7      46.7237      46.7237      46.7237 
   21000    123.57556    -7138.177   -6501.2908   -369.18426     102002.7      46.7237      46.7237      46.7237 
   22000    128.43424   -7114.7439   -6452.8169   -706.56105     102002.7      46.7237      46.7237      46.7237 
   23000    130.09607   -7115.6264   -6445.1346   -687.04801     102002.7      46.7237      46.7237      46.7237 
   24000    128.50479   -7129.6137   -6467.3231   -770.42417     102002.7      46.7237      46.7237      46.7237 
   25000    132.61669   -7113.7935   -6430.3109    -767.4686     102002.7      46.7237      46.7237      46.7237 
   26000    131.67148   -7102.5806   -6423.9694   -1095.2493     102002.7      46.7237      46.7237      46.7237 
   27000    127.71272   -7113.8462   -6455.6378   -617.27923     102002.7      46.7237      46.7237      46.7237 
   28000    129.33266   -7104.2372   -6437.6799   -763.68243     102002.7      46.7237      46.7237      46.7237 
   29000    134.35482   -7107.3514   -6414.9108   -699.17789     102002.7      46.7237      46.7237      46.7237 
   30000    129.67775   -7124.5544   -6456.2185   -762.31629     102002.7      46.7237      46.7237      46.7237 
   31000    128.94164   -7118.8653   -6454.3232    -775.6323     102002.7      46.7237      46.7237      46.7237 
   32000    134.11775   -7120.7757    -6429.557   -611.61406     102002.7      46.7237      46.7237      46.7237 
   33000    129.99575   -7124.8478   -6454.8731   -618.15771     102002.7      46.7237      46.7237      46.7237 
   34000    128.82872   -7120.8215   -6456.8614   -912.13803     102002.7      46.7237      46.7237      46.7237 
   35000    132.34926   -7115.2215   -6433.1172   -681.59436     102002.7      46.7237      46.7237      46.7237 
   36000    129.98955   -7150.1536   -6480.2108   -461.49142     102002.7      46.7237      46.7237      46.7237 
   37000    130.66402    -7111.656    -6438.237    -472.6253     102002.7      46.7237      46.7237      46.7237 
   38000    129.20867   -7150.6492   -6484.7308   -406.81099     102002.7      46.7237      46.7237      46.7237 
   39000     126.4593    -7104.977   -6453.2285   -786.23486     102002.7      46.7237      46.7237      46.7237 
   40000    130.04206   -7135.3171   -6465.1037    -589.7404     102002.7      46.7237      46.7237      46.7237 
   41000    131.70285   -7138.3441   -6459.5712   -716.04035     102002.7      46.7237      46.7237      46.7237 
   42000    125.86549   -7106.8476   -6458.1595   -701.39842     102002.7      46.7237      46.7237      46.7237 
   43000    133.10561   -7107.0455   -6421.0431   -719.25044     102002.7      46.7237      46.7237      46.7237 
   44000    131.89483   -7130.0427   -6450.2804   -662.30984     102002.7      46.7237      46.7237      46.7237 
   45000     128.4702   -7127.3474    -6465.235    -892.2068     102002.7      46.7237      46.7237      46.7237 
   46000    133.15868   -7114.2128   -6427.9369   -751.24429     102002.7      46.7237      46.7237      46.7237 
   47000    129.78282   -7145.3547   -6476.4773   -574.84866     102002.7      46.7237      46.7237      46.7237 
   48000    130.38756   -7137.1401    -6465.146   -774.86445     102002.7      46.7237      46.7237      46.7237 
   49000    129.14407   -7124.2318   -6458.6465   -617.79785     102002.7      46.7237      46.7237      46.7237 
   50000    131.15851   -7120.1426   -6444.1751   -406.44901     102002.7      46.7237      46.7237      46.7237 
   51000    127.22632    -7139.844   -6484.1424   -725.14527     102002.7      46.7237      46.7237      46.7237 
   52000    126.96841   -7121.6889   -6467.3165   -1002.3075     102002.7      46.7237      46.7237      46.7237 
   53000     132.8044   -7110.6052   -6426.1552   -913.94319     102002.7      46.7237      46.7237      46.7237 
   54000    130.47906   -7132.7832   -6460.3175    -911.6333     102002.7      46.7237      46.7237      46.7237 
   55000    123.23781   -7119.6864   -6484.5409    -891.4609     102002.7      46.7237      46.7237      46.7237 
   56000    130.28078   -7109.2664   -6437.8226   -736.63451     102002.7      46.7237      46.7237      46.7237 
   57000    129.12669   -7128.5148    -6463.019   -640.69647     102002.7      46.7237      46.7237      46.7237 
   58000    132.15047   -7127.3913   -6446.3115   -435.21967     102002.7      46.7237      46.7237      46.7237 
   59000    126.19388    -7145.567   -6495.1864    -436.3101     102002.7      46.7237      46.7237      46.7237 
   60000    130.52572   -7114.7683   -6442.0621   -731.63777     102002.7      46.7237      46.7237      46.7237 
   61000    125.78954   -7147.1327    -6498.836    -868.2994     102002.7      46.7237      46.7237      46.7237 
   62000    126.49973   -7101.8015   -6449.8446   -796.45268     102002.7      46.7237      46.7237      46.7237 
   63000     125.7796    -7137.388   -6489.1425   -861.21716     102002.7      46.7237      46.7237      46.7237 
   64000    132.05381   -7122.6617     -6442.08   -714.51911     102002.7      46.7237      46.7237      46.7237 
   65000    131.51118   -7121.9692   -6444.1842    -838.7348     102002.7      46.7237      46.7237      46.7237 
   66000    129.85681   -7103.3169   -6434.0581   -819.12658     102002.7      46.7237      46.7237      46.7237 
   67000    127.07122   -7124.8466   -6469.9443   -897.89923     102002.7      46.7237      46.7237      46.7237 
   68000    130.38408   -7127.0717   -6455.0956   -425.06401     102002.7      46.7237      46.7237      46.7237 
   69000     132.2951   -7113.1399   -6431.3146   -633.81887     102002.7      46.7237      46.7237      46.7237 
   70000    130.40678   -7123.1041   -6451.0109   -548.58678     102002.7      46.7237      46.7237      46.7237 
   71000    128.19356   -7139.4247   -6478.7381   -727.45326     102002.7      46.7237      46.7237      46.7237 
   72000    127.26033   -7109.5601   -6453.6832   -791.55822     102002.7      46.7237      46.7237      46.7237 
   73000    131.49488    -7105.311     -6427.61   -817.30035     102002.7      46.7237      46.7237      46.7237 
   74000    133.49405   -7112.4819   -6424.4775   -633.01728     102002.7      46.7237      46.7237      46.7237 
   75000    128.97481   -7140.5879   -6475.8748   -828.64682     102002.7      46.7237      46.7237      46.7237 
   76000    131.68853   -7106.1836   -6427.4846   -635.84786     102002.7      46.7237      46.7237      46.7237 
   77000    132.70233   -7142.8875   -6458.9635   -896.65883     102002.7      46.7237      46.7237      46.7237 
   78000    130.66978   -7112.9675   -6439.5189   -661.86852     102002.7      46.7237      46.7237      46.7237 
   79000    130.35969   -7112.0396   -6440.1892   -896.24743     102002.7      46.7237      46.7237      46.7237 
   80000     125.8289   -7145.0983   -6496.5987   -1037.9187     102002.7      46.7237      46.7237      46.7237 
   81000    130.65931     -7115.25   -6441.8553   -1051.0988     102002.7      46.7237      46.7237      46.7237 
   82000    129.86442    -7142.265    -6472.967   -980.04905     102002.7      46.7237      46.7237      46.7237 
   83000    126.84207   -7108.6689   -6454.9476    -976.1761     102002.7      46.7237      46.7237      46.7237 
   84000    131.23438   -7099.0862   -6422.7277   -759.51082     102002.7      46.7237      46.7237      46.7237 
   85000    127.76288   -7132.7524   -6474.2854   -816.52723     102002.7      46.7237      46.7237      46.7237 
   86000    131.99932   -7122.3053   -6442.0045    -433.5568     102002.7      46.7237      46.7237      46.7237 
   87000    127.40836   -7130.2166   -6473.5768   -795.16765     102002.7      46.7237      46.7237      46.7237 
   88000    131.77962    -7137.348   -6458.1794   -927.03314     102002.7      46.7237      46.7237      46.7237 
   89000    132.98686   -7100.9964    -6415.606   -595.05796     102002.7      46.7237      46.7237      46.7237 
   90000    127.94914   -7121.4189    -6461.992   -1023.4769     102002.7      46.7237      46.7237      46.7237 
   91000    131.02569   -7119.7854   -6444.5025   -502.37231     102002.7      46.7237      46.7237      46.7237 
   92000    127.75826    -7111.878   -6453.4349   -753.71989     102002.7      46.7237      46.7237      46.7237 
   93000    127.81376    -7112.155   -6453.4258   -903.31186     102002.7      46.7237      46.7237      46.7237 
   94000    134.14928    -7132.976   -6441.5947   -676.74336     102002.7      46.7237      46.7237      46.7237 
   95000    129.40642   -7114.7886   -6447.8511   -1007.9402     102002.7      46.7237      46.7237      46.7237 
   96000    132.43884    -7110.471    -6427.905   -874.06294     102002.7      46.7237      46.7237      46.7237 
   97000    131.97542   -7114.3404   -6434.1628   -714.66282     102002.7      46.7237      46.7237      46.7237 
   98000    128.94037   -7120.0551   -6455.5196   -618.60439     102002.7      46.7237      46.7237      46.7237 
   99000    134.32103    -7110.954   -6418.6875   -624.82762     102002.7      46.7237      46.7237      46.7237 
  100000    129.02745   -7116.2302   -6451.2459   -453.88044     102002.7      46.7237      46.7237      46.7237 
  101000    135.61399   -7120.2688   -6421.3386   -987.24631     102002.7      46.7237      46.7237      46.7237 
  102000     132.3942   -7139.1591   -6456.8232   -763.34642     102002.7      46.7237      46.7237      46.7237 
  103000    134.07439   -7096.5896   -6405.5942   -658.04951     102002.7      46.7237      46.7237      46.7237 
  104000    127.54549   -7112.1227   -6454.7761   -747.75107     102002.7      46.7237      46.7237      46.7237 
  105000    134.20681   -7114.0459   -6422.3681   -476.51712     102002.7      46.7237      46.7237      46.7237 
  106000    127.76793   -7121.2746   -6462.7816    -676.5631     102002.7      46.7237      46.7237      46.7237 
  107000    126.59923   -7112.6924   -6460.2226    -715.6837     102002.7      46.7237      46.7237      46.7237 
  108000      130.735     -7132.15   -6458.3653   -535.47648     102002.7      46.7237      46.7237      46.7237 
  109000    132.70291    -7129.194    -6445.267   -280.02984     102002.7      46.7237      46.7237      46.7237 
  110000    125.79258   -7123.5183   -6475.2059   -842.37256     102002.7      46.7237      46.7237      46.7237 
  111000    131.60426   -7134.9973   -6456.7326   -626.31364     102002.7      46.7237      46.7237      46.7237 
  112000    129.04481   -7132.2173   -6467.1435   -195.95598     102002.7      46.7237      46.7237      46.7237 
  113000    131.16606   -7123.5349   -6447.5286   -730.26027     102002.7      46.7237      46.7237      46.7237 
  114000    131.41903   -7106.6563   -6429.3462   -439.32523     102002.7      46.7237      46.7237      46.7237 
  115000     131.0429   -7128.3699   -6452.9983   -487.19077     102002.7      46.7237      46.7237      46.7237 
  116000    130.15821   -7123.0418   -6452.2297   -797.35045     102002.7      46.7237      46.7237      46.7237 
  117000    128.97494   -7115.2753   -6450.5616   -514.88149     102002.7      46.7237      46.7237      46.7237 
  118000    127.46419   -7135.2807   -6478.3532   -733.36391     102002.7      46.7237      46.7237      46.7237 
  119000    132.03304   -7124.5872   -6444.1126   -626.03289     102002.7      46.7237      46.7237      46.7237 
  120000    129.13809   -7137.5107   -6471.9562   -900.48581     102002.7      46.7237      46.7237      46.7237 
  121000    131.16527   -7136.9365   -6460.9342   -573.98842     102002.7      46.7237      46.7237      46.7237 
  122000    133.77282   -7117.4091    -6427.968   -720.24121     102002.7      46.7237      46.7237      46.7237 
  123000    127.89543   -7127.1511    -6468.001   -817.01916     102002.7      46.7237      46.7237      46.7237 
  124000    129.28029   -7107.5271   -6441.2397   -739.68623     102002.7      46.7237      46.7237      46.7237 
  125000    125.97077    -7113.772   -6464.5412   -499.01004     102002.7      46.7237      46.7237      46.7237 
  126000    130.73046   -7111.9397   -6438.1784   -282.66093     102002.7      46.7237      46.7237      46.7237 
  127000    126.49013   -7124.0765   -6472.1691   -751.42161     102002.7      46.7237      46.7237      46.7237 
  128000    127.58037   -7119.8775   -6462.3512   -608.37399     102002.7      46.7237      46.7237      46.7237 
  129000     131.5102   -7097.9015   -6420.1215   -723.76902     102002.7      46.7237      46.7237      46.7237 
  130000    128.33627   -7131.4218   -6469.9997   -766.50136     102002.7      46.7237      46.7237      46.7237 
  131000    127.68355   -7106.6691    -6448.611   -613.24751     102002.7      46.7237      46.7237      46.7237 
  132000    132.91365   -7100.7242   -6415.7111    -417.0334     102002.7      46.7237      46.7237      46.7237 
  133000    127.73477   -7118.9761    -6460.654   -331.71439     102002.7      46.7237      46.7237      46.7237 
  134000    138.45906   -7117.0403   -6403.4472   -512.00041     102002.7      46.7237      46.7237      46.7237 
  135000    130.32148   -7130.9752   -6459.3217   -800.75767     102002.7      46.7237      46.7237      46.7237 
  136000    129.91146   -7117.4974    -6447.957   -1058.1981     102002.7      46.7237      46.7237      46.7237 
  137000    128.68942   -7110.4244   -6447.1822   -863.75923     102002.7      46.7237      46.7237      46.7237 
  138000     127.3936   -7133.9446   -6477.3809   -820.38042     102002.7      46.7237      46.7237      46.7237 
  139000    130.09671   -7115.2051     -6444.71   -829.52172     102002.7      46.7237      46.7237      46.7237 
  140000    128.26502    -7107.916   -6446.8611   -814.34822     102002.7      46.7237      46.7237      46.7237 
  141000    127.75467   -7105.2262   -6446.8016   -497.96321     102002.7      46.7237      46.7237      46.7237 
  142000    126.09425   -7104.0622    -6454.195   -594.16862     102002.7      46.7237      46.7237      46.7237 
  143000    134.85164   -7138.9064   -6443.9052   -582.58544     102002.7      46.7237      46.7237      46.7237 
  144000     129.9079   -7133.8774   -6464.3553    -611.2152     102002.7      46.7237      46.7237      46.7237 
  145000    133.13187   -7128.7366   -6442.5988   -641.06098     102002.7      46.7237      46.7237      46.7237 
  146000    127.83527    -7132.129   -6473.2889   -435.82895     102002.7      46.7237      46.7237      46.7237 
  147000    135.80463   -7109.0605   -6409.1479   -911.24746     102002.7      46.7237      46.7237      46.7237 
  148000    127.37853   -7121.9504   -6465.4643   -656.14842     102002.7      46.7237      46.7237      46.7237 
  149000    130.83664   -7129.0748   -6454.7662   -796.57465     102002.7      46.7237      46.7237      46.7237 
  150000    129.61186   -7130.3391   -6462.3428   -851.66405     102002.7      46.7237      46.7237      46.7237 
  151000    127.48226   -7133.6467    -6476.626   -651.87071     102002.7      46.7237      46.7237      46.7237 
  152000    131.83748   -7127.5509   -6448.0842   -743.34067     102002.7      46.7237      46.7237      46.7237 
  153000    132.26029   -7131.5555   -6449.9097    -1099.414     102002.7      46.7237      46.7237      46.7237 
  154000    131.95593   -7119.9545   -6439.8773   -865.83048     102002.7      46.7237      46.7237      46.7237 
  155000    129.87518   -7131.4963    -6462.143   -571.78271     102002.7      46.7237      46.7237      46.7237 
  156000    130.58656   -7107.5408   -6434.5211   -518.15312     102002.7      46.7237      46.7237      46.7237 
  157000    130.64899   -7133.1006   -6459.7591    -916.5738     102002.7      46.7237      46.7237      46.7237 
  158000     126.1438   -7123.0938   -6472.9713   -744.17056     102002.7      46.7237      46.7237      46.7237 
  159000    133.55418   -7113.9779   -6425.6636   -586.86407     102002.7      46.7237      46.7237      46.7237 
  160000    132.18401   -7132.0852   -6450.8325   -1006.7466     102002.7      46.7237      46.7237      46.7237 
  161000    127.53573   -7130.7921   -6473.4958     -1034.83     102002.7      46.7237      46.7237      46.7237 
  162000    133.91387   -7131.5899   -6441.4218   -806.89529     102002.7      46.7237      46.7237      46.7237 
  163000    126.11345   -7140.4857   -6490.5196   -906.67789     102002.7      46.7237      46.7237      46.7237 
  164000    133.17255   -7123.7779   -6437.4305   -638.67514     102002.7      46.7237      46.7237      46.7237 
  165000    125.82747   -7132.7114   -6484.2192   -1166.9741     102002.7      46.7237      46.7237      46.7237 
  166000    129.57508   -7109.9498   -6442.1431   -795.64573     102002.7      46.7237      46.7237      46.7237 
  167000    129.78173   -7108.1619   -6439.2902   -908.46648     102002.7      46.7237      46.7237      46.7237 
  168000    128.37227   -7129.8185   -6468.2109    -897.4237     102002.7      46.7237      46.7237      46.7237 
  169000    133.35336   -7126.6206   -6439.3413   -770.84057     102002.7      46.7237      46.7237      46.7237 
  170000    130.44931   -7116.1743   -6443.8619   -875.55047     102002.7      46.7237      46.7237      46.7237 
  171000     126.8149   -7124.1387   -6470.5574    -954.3593     102002.7      46.7237      46.7237      46.7237 
  172000    129.88306   -7131.0488   -6461.6548    -956.8551     102002.7      46.7237      46.7237      46.7237 
  173000    130.11742   -7128.2797   -6457.6779   -828.95052     102002.7      46.7237      46.7237      46.7237 
  174000    128.09545   -7126.0923   -6465.9113   -521.17419     102002.7      46.7237      46.7237      46.7237 
  175000    132.77389   -7111.6914   -6427.3986   -743.01716     102002.7      46.7237      46.7237      46.7237 
  176000    132.17041   -7119.5667   -6438.3842   -707.88463     102002.7      46.7237      46.7237      46.7237 
  177000    128.42238   -7112.9058   -6451.0399   -823.84703     102002.7      46.7237      46.7237      46.7237 
  178000    133.86821   -7141.1223   -6451.1896   -784.71901     102002.7      46.7237      46.7237      46.7237 
  179000    135.01692   -7140.3135   -6444.4605    -740.6568     102002.7      46.7237      46.7237      46.7237 
  180000    129.96755   -7122.1642   -6452.3348   -769.81977     102002.7      46.7237      46.7237      46.7237 
  181000    129.93112   -7129.2431   -6459.6014    -699.6054     102002.7      46.7237      46.7237      46.7237 
  182000    136.09763   -7135.4435   -6434.0207    -864.3073     102002.7      46.7237      46.7237      46.7237 
  183000    129.35473   -7132.0165   -6465.3455   -723.86823     102002.7      46.7237      46.7237      46.7237 
  184000    129.83848   -7149.9304   -6480.7662   -911.63359     102002.7      46.7237      46.7237      46.7237 
  185000    134.15097   -7133.9326   -6442.5426   -745.29783     102002.7      46.7237      46.7237      46.7237 
  186000      135.291   -7125.6794   -6428.4138   -700.05573     102002.7      46.7237      46.7237      46.7237 
  187000    129.12965   -7121.6221   -6456.1111   -677.52114     102002.7      46.7237      46.7237      46.7237 
  188000    132.52213   -7106.6003    -6423.605   -810.81519     102002.7      46.7237      46.7237      46.7237 
  189000    130.51911   -7112.8076   -6440.1355   -885.01912     102002.7      46.7237      46.7237      46.7237 
  190000    131.21816   -7123.7203   -6447.4454   -984.96673     102002.7      46.7237      46.7237      46.7237 
  191000    131.23756   -7125.7784   -6449.4036   -732.29485     102002.7      46.7237      46.7237      46.7237 
  192000    127.44002   -7134.0722   -6477.2692   -800.89129     102002.7      46.7237      46.7237      46.7237 
  193000    132.00483   -7114.8428   -6434.5136   -559.40085     102002.7      46.7237      46.7237      46.7237 
  194000     129.1631   -7123.9442   -6458.2607   -778.23882     102002.7      46.7237      46.7237      46.7237 
  195000    131.73676   -7129.3723   -6450.4247   -308.80494     102002.7      46.7237      46.7237      46.7237 
  196000    130.77102   -7114.4461   -6440.4758   -395.83873     102002.7      46.7237      46.7237      46.7237 
  197000    129.20148   -7131.9115   -6466.0303   -522.74971     102002.7      46.7237      46.7237      46.7237 
  198000     130.2647   -7114.1001   -6442.7391   -554.25066     102002.7      46.7237      46.7237      46.7237 
  199000    130.63447   -7134.0194   -6460.7528   -784.69387     102002.7      46.7237      46.7237      46.7237 
  200000    129.35735   -7137.2133   -6470.5287   -822.64776     102002.7      46.7237      46.7237      46.7237 
  201000    131.07393   -7102.0605    -6426.529   -593.28995     102002.7      46.7237      46.7237      46.7237 
  202000    130.15842   -7120.3335   -6449.5203   -486.99124     102002.7      46.7237      46.7237      46.7237 
  203000    124.37939   -7141.9435   -6500.9144   -620.98323     102002.7      46.7237      46.7237      46.7237 
  204000    129.06596   -7130.2211   -6465.0383   -534.85606     102002.7      46.7237      46.7237      46.7237 
  205000    127.87099   -7124.8843   -6465.8602   -706.62499     102002.7      46.7237      46.7237      46.7237 
  206000    130.57705   -7107.5082   -6434.5376    -529.5612     102002.7      46.7237      46.7237      46.7237 
  207000    131.36245   -7134.6957   -6457.6772   -648.28298     102002.7      46.7237      46.7237      46.7237 
  208000    130.24233    -7147.282   -6476.0364   -987.76396     102002.7      46.7237      46.7237      46.7237 
  209000    130.35429    -7117.104   -6445.2814   -871.82615     102002.7      46.7237      46.7237      46.7237 
  210000    132.08097   -7137.3299   -6456.6083   -702.41475     102002.7      46.7237      46.7237      46.7237 
  211000    130.74195   -7116.4904   -6442.6698    -735.6808     102002.7      46.7237      46.7237      46.7237 
  212000    124.85671   -7095.1225   -6451.6334   -914.16092     102002.7      46.7237      46.7237      46.7237 
  213000     134.9392    -7137.732   -6442.2796   -735.28953     102002.7      46.7237      46.7237      46.7237 
  214000    129.88294   -7138.9828   -6469.5894   -962.35932     102002.7      46.7237      46.7237      46.7237 
  215000    132.21935   -7144.7914   -6463.3566   -563.09135     102002.7      46.7237      46.7237      46.7237 
  216000    128.78168   -7122.3212   -6458.6036   -892.50192     102002.7      46.7237      46.7237      46.7237 
  217000    128.94282    -7106.706   -6442.1578   -1020.1418     102002.7      46.7237      46.7237      46.7237 
  218000    125.93564   -7123.8531   -6474.8034    -485.2011     102002.7      46.7237      46.7237      46.7237 
  219000    129.12419   -7131.2365   -6465.7536   -755.27291     102002.7      46.7237      46.7237      46.7237 
  220000    130.49141   -7112.9493   -6440.4199   -592.56794     102002.7      46.7237      46.7237      46.7237 
  221000    127.73891   -7121.5517   -6463.2083   -953.96965     102002.7      46.7237      46.7237      46.7237 
  222000    127.14206   -7122.8667   -6467.5993   -689.38807     102002.7      46.7237      46.7237      46.7237 
  223000    132.39663   -7114.2108   -6431.8623   -849.02297     102002.7      46.7237      46.7237      46.7237 
  224000    128.29141   -7124.5504   -6463.3595   -938.56221     102002.7      46.7237      46.7237      46.7237 
  225000    130.87925   -7123.0796   -6448.5514   -987.17491     102002.7      46.7237      46.7237      46.7237 
  226000    129.26298   -7127.8941    -6461.696   -1150.4543     102002.7      46.7237      46.7237      46.7237 
  227000    135.40861     -7146.71   -6448.8383   -493.88453     102002.7      46.7237      46.7237      46.7237 
  228000    131.39022   -7119.6448   -6442.4832   -780.92114     102002.7      46.7237      46.7237      46.7237 
  229000    128.59281   -7126.9778   -6464.2335   -444.03652     102002.7      46.7237      46.7237      46.7237 
  230000    128.14378   -7107.5719   -6447.1418   -778.40706     102002.7      46.7237      46.7237      46.7237 
  231000    130.06817   -7100.8832   -6430.5352   -779.84654     102002.7      46.7237      46.7237      46.7237 
  232000    127.27673   -7108.0015     -6452.04   -667.91888     102002.7      46.7237      46.7237      46.7237 
  233000     129.8043   -7130.2735   -6461.2855   -653.02753     102002.7      46.7237      46.7237      46.7237 
  234000    130.35637   -7104.1501   -6432.3168   -404.52853     102002.7      46.7237      46.7237      46.7237 
  235000    127.38702   -7144.0507   -6487.5208   -499.32354     102002.7      46.7237      46.7237      46.7237 
  236000     130.6751   -7111.1734   -6437.6974   -686.51355     102002.7      46.7237      46.7237      46.7237 
  237000     129.4372   -7123.3059   -6456.2098   -482.74899     102002.7      46.7237      46.7237      46.7237 
  238000    128.39667   -7116.4449   -6454.7115   -585.29699     102002.7      46.7237      46.7237      46.7237 
  239000    128.19258   -7115.2736   -6454.5921   -657.28597     102002.7      46.7237      46.7237      46.7237 
  240000    133.07592   -7126.3015    -6440.452   -792.11304     102002.7      46.7237      46.7237      46.7237 
  241000    131.99273   -7128.5724   -6448.3056   -605.43263     102002.7      46.7237      46.7237      46.7237 
  242000    129.65121   -7117.7008   -6449.5017   -819.07093     102002.7      46.7237      46.7237      46.7237 
  243000     128.0109   -7120.1904   -6460.4451   -695.17453     102002.7      46.7237      46.7237      46.7237 
  244000    129.15151   -7094.0627   -6428.4389    -866.8223     102002.7      46.7237      46.7237      46.7237 
  245000    130.46216   -7123.8017   -6451.4232   -777.54814     102002.7      46.7237      46.7237      46.7237 
  246000    128.34448   -7097.9817   -6436.5172   -648.14776     102002.7      46.7237      46.7237      46.7237 
  247000    126.73978   -7121.1681    -6467.974   -856.85109     102002.7      46.7237      46.7237      46.7237 
  248000    129.55158   -7110.2994   -6442.6138   -560.32853     102002.7      46.7237      46.7237      46.7237 
  249000    127.15372   -7131.9734    -6476.646   -859.66249     102002.7      46.7237      46.7237      46.7237 
  250000    133.51331   -7106.7924   -6418.6888   -776.10548     102002.7      46.7237      46.7237      46.7237 
  251000     128.9319    -7129.285   -6464.7931   -706.35875     102002.7      46.7237      46.7237      46.7237 
  252000    131.61807   -7097.4672   -6419.1313   -923.48636     102002.7      46.7237      46.7237      46.7237 
  253000    126.64295   -7123.8755   -6471.1804   -888.47671     102002.7      46.7237      46.7237      46.7237 
  254000    133.41938   -7127.1912   -6439.5717   -729.21805     102002.7      46.7237      46.7237      46.7237 
  255000    127.54241   -7120.1364   -6462.8056   -902.68281     102002.7      46.7237      46.7237      46.7237 
  256000    128.25332   -7122.8787   -6461.8841   -806.67946     102002.7      46.7237      46.7237      46.7237 
  257000    131.01815    -7106.767    -6431.523   -256.38699     102002.7      46.7237      46.7237      46.7237 
  258000    128.54309   -7137.7002   -6475.2122   -682.58838     102002.7      46.7237      46.7237      46.7237 
  259000    129.23181   -7127.8018   -6461.7643   -678.09351     102002.7      46.7237      46.7237      46.7237 
  260000    128.68024   -7136.6104   -6473.4155   -749.67938     102002.7      46.7237      46.7237      46.7237 
  261000    126.91425   -7126.0043   -6471.9111   -850.46461     102002.7      46.7237      46.7237      46.7237 
  262000    132.27431   -7130.5788   -6448.8607   -1048.3836     102002.7      46.7237      46.7237      46.7237 
  263000    136.88721   -7111.2089   -6405.7168   -906.71055     102002.7      46.7237      46.7237      46.7237 
  264000    129.60192   -7123.9689   -6456.0239   -727.67263     102002.7      46.7237      46.7237      46.7237 
  265000    130.98655   -7117.7302    -6442.649   -624.75954     102002.7      46.7237      46.7237      46.7237 
  266000    127.85237   -7141.7874   -6482.8593   -823.88714     102002.7      46.7237      46.7237      46.7237 
  267000    129.22322    -7114.852   -6448.8587   -606.60386     102002.7      46.7237      46.7237      46.7237 
  268000     128.4654   -7082.9297    -6420.842   -849.53855     102002.7      46.7237      46.7237      46.7237 
  269000    130.88458   -7129.9808   -6455.4252    -746.3951     102002.7      46.7237      46.7237      46.7237 
  270000    131.16634   -7103.0914   -6427.0837   -1111.0829     102002.7      46.7237      46.7237      46.7237 
  271000    131.82321   -7131.7272    -6452.334   -544.65984     102002.7      46.7237      46.7237      46.7237 
  272000    129.33684   -7095.4652   -6428.8864   -656.26856     102002.7      46.7237      46.7237      46.7237 
  273000    132.03563   -7135.3282   -6454.8403    -707.3474     102002.7      46.7237      46.7237      46.7237 
  274000    132.94396   -7107.0477   -6421.8783   -998.56253     102002.7      46.7237      46.7237      46.7237 
  275000    128.17635   -7128.2717   -6467.6739   -680.50662     102002.7      46.7237      46.7237      46.7237 
  276000    132.00543   -7100.8571   -6420.5248    -1140.324     102002.7      46.7237      46.7237      46.7237 
  277000    130.90554   -7138.7624   -6464.0987   -954.48315     102002.7      46.7237      46.7237      46.7237 
  278000    126.69687   -7133.5341   -6480.5612     -560.108     102002.7      46.7237      46.7237      46.7237 
  279000    132.18426   -7127.3759   -6446.1219   -538.56989     102002.7      46.7237      46.7237      46.7237 
  280000    128.08362   -7117.7242   -6457.6042   -931.86077     102002.7      46.7237      46.7237      46.7237 
  281000    136.85218   -7126.7536    -6421.442   -558.51174     102002.7      46.7237      46.7237      46.7237 
  282000     129.3149   -7116.5327    -6450.067    -702.6718     102002.7      46.7237      46.7237      46.7237 
  283000    129.41611   -7123.3225   -6456.3351   -827.74487     102002.7      46.7237      46.7237      46.7237 
  284000    129.48497   -7131.7054   -6464.3631   -908.72683     102002.7      46.7237      46.7237      46.7237 
  285000    131.84966   -7137.2563   -6457.7268   -621.47569     102002.7      46.7237      46.7237      46.7237 
  286000    132.62626   -7136.3903   -6452.8583   -893.36645     102002.7      46.7237      46.7237      46.7237 
  287000    127.94774   -7125.2394   -6465.8197   -506.20963     102002.7      46.7237      46.7237      46.7237 
  288000    131.72393   -7115.0302   -6436.1487   -408.20192     102002.7      46.7237      46.7237      46.7237 
  289000    127.31573   -7138.3984    -6482.236   -546.56734     102002.7      46.7237      46.7237      46.7237 
  290000    129.19839   -7122.9325   -6457.0671   -244.86081     102002.7      46.7237      46.7237      46.7237 
  291000    130.82599   -7090.9572   -6416.7036   -513.78097     102002.7      46.7237      46.7237      46.7237 
  292000    127.26252   -7114.1567   -6458.2685   -742.12223     102002.7      46.7237      46.7237      46.7237 
  293000    129.96099   -7115.5444   -6445.7488   -756.33527     102002.7      46.7237      46.7237      46.7237 
  294000    133.40081   -7123.2956   -6435.7717   -744.80114     102002.7      46.7237      46.7237      46.7237 
  295000    127.68786   -7124.3548   -6466.2745   -879.80875     102002.7      46.7237      46.7237      46.7237 
  296000    128.09265   -7101.1102   -6440.9436   -562.47321     102002.7      46.7237      46.7237      46.7237 
  297000    130.86031   -7128.7935    -6454.363   -636.54982     102002.7      46.7237      46.7237      46.7237 
  298000    125.35489   -7135.4608   -6489.4041   -495.81758     102002.7      46.7237      46.7237      46.7237 
  299000    133.82629   -7129.9381   -6440.2214   -569.70315     102002.7      46.7237      46.7237      46.7237 
  300000    129.24675   -7138.9231   -6472.8085   -494.60448     102002.7      46.7237      46.7237      46.7237 
  301000    126.36916   -7127.2005   -6475.9166   -980.94969     102002.7      46.7237      46.7237      46.7237 
  302000     125.6948   -7094.3293   -6446.5209   -617.16942     102002.7      46.7237      46.7237      46.7237 
  303000    132.64518   -7132.1971   -6448.5676     -702.211     102002.7      46.7237      46.7237      46.7237 
  304000    127.94448   -7133.6147   -6474.2118   -805.92816     102002.7      46.7237      46.7237      46.7237 
  305000    132.67665   -7120.8089   -6437.0173   -254.40121     102002.7      46.7237      46.7237      46.7237 
  306000    127.14766    -7126.282   -6470.9857     -719.512     102002.7      46.7237      46.7237      46.7237 
  307000    131.60575   -7125.6989   -6447.4264   -693.37009     102002.7      46.7237      46.7237      46.7237 
  308000    126.94609   -7127.5427   -6473.2854    -439.5267     102002.7      46.7237      46.7237      46.7237 
  309000    134.88299   -7132.2292   -6437.0665   -693.98083     102002.7      46.7237      46.7237      46.7237 
  310000    127.79037   -7126.0446    -6467.436   -738.22139     102002.7      46.7237      46.7237      46.7237 
  311000    132.85538    -7106.054   -6421.3412   -651.95586     102002.7      46.7237      46.7237      46.7237 
  312000    126.85473   -7127.1451   -6473.3586   -711.19528     102002.7      46.7237      46.7237      46.7237 
  313000    126.54323   -7132.9831    -6480.802    -408.7715     102002.7      46.7237      46.7237      46.7237 
  314000    124.51024   -7112.4817   -6470.7782    -751.0042     102002.7      46.7237      46.7237      46.7237 
  315000    134.34809   -7128.0885   -6435.6826   -493.23719     102002.7      46.7237      46.7237      46.7237 
  316000    128.76223   -7120.4138   -6456.7964   -582.44887     102002.7      46.7237      46.7237      46.7237 
  317000    129.15013    -7117.061   -6451.4444   -675.28526     102002.7      46.7237      46.7237      46.7237 
  318000    134.06948   -7117.2096   -6426.2396   -1100.8509     102002.7      46.7237      46.7237      46.7237 
  319000    131.11301   -7148.0916   -6472.3587   -504.56737     102002.7      46.7237      46.7237      46.7237 
  320000    129.49822   -7121.1286    -6453.718   -567.19352     102002.7      46.7237      46.7237      46.7237 
  321000    129.34617   -7111.1508   -6444.5239    -377.7234     102002.7      46.7237      46.7237      46.7237 
  322000     128.9228   -7120.4034   -6455.9584   -692.96313     102002.7      46.7237      46.7237      46.7237 
  323000    128.98963   -7075.9985   -6411.2091   -675.94808     102002.7      46.7237      46.7237      46.7237 
  324000    129.46841   -7107.1252   -6439.8683   -580.36504     102002.7      46.7237      46.7237      46.7237 
  325000    126.33815   -7121.5987   -6470.4746   -817.83393     102002.7      46.7237      46.7237      46.7237 
  326000    131.04543   -7118.0914   -6442.7067   -639.69783     102002.7      46.7237      46.7237      46.7237 
  327000    130.18491   -7122.1118   -6451.1621   -675.02164     102002.7      46.7237      46.7237      46.7237 
  328000    130.44076   -7114.0166   -6441.7483   -661.97063     102002.7      46.7237      46.7237      46.7237 
  329000    129.14161   -7114.9235   -6449.3508   -531.58068     102002.7      46.7237      46.7237      46.7237 
  330000    126.82469   -7156.2177    -6502.586   -886.69379     102002.7      46.7237      46.7237      46.7237 
  331000    125.94478   -7096.8001   -6447.7033   -685.61074     102002.7      46.7237      46.7237      46.7237 
  332000    135.60517   -7092.4139   -6393.5292   -1227.0794     102002.7      46.7237      46.7237      46.7237 
  333000     128.2061   -7114.7932    -6454.042   -755.74529     102002.7      46.7237      46.7237      46.7237 
  334000    135.40163    -7122.525   -6424.6893   -589.89801     102002.7      46.7237      46.7237      46.7237 
  335000    132.56099    -7125.419   -6442.2235   -478.84615     102002.7      46.7237      46.7237      46.7237 
  336000    127.75478   -7134.1485   -6475.7232   -657.53313     102002.7      46.7237      46.7237      46.7237 
  337000    131.17744   -7105.8598   -6429.7947   -519.80492     102002.7      46.7237      46.7237      46.7237 
  338000    129.63331   -7128.4848    -6460.378   -341.24375     102002.7      46.7237      46.7237      46.7237 
  339000    133.39203    -7107.484   -6420.0055   -572.74082     102002.7      46.7237      46.7237      46.7237 
  340000    131.40131   -7132.4096   -6455.1909   -492.65177     102002.7      46.7237      46.7237      46.7237 
  341000    130.80984   -7110.6164   -6436.4459   -708.06597     102002.7      46.7237      46.7237      46.7237 
  342000    130.85057   -7126.3376   -6451.9572   -448.92273     102002.7      46.7237      46.7237      46.7237 
  343000    128.09552   -7115.9383    -6455.757   -744.31158     102002.7      46.7237      46.7237      46.7237 
  344000    134.88263   -7127.9524   -6432.7915    -612.8174     102002.7      46.7237      46.7237      46.7237 
  345000     128.1002   -7112.6867   -6452.4812   -1016.7601     102002.7      46.7237      46.7237      46.7237 
  346000    130.52358   -7140.3528   -6467.6577   -794.68378     102002.7      46.7237      46.7237      46.7237 
  347000    130.36852   -7110.5365   -6438.6405   -886.17718     102002.7      46.7237      46.7237      46.7237 
  348000    128.13112   -7127.6663   -6467.3015   -805.48767     102002.7      46.7237      46.7237      46.7237 
  349000    129.93819    -7108.028   -6438.3499   -550.09015     102002.7      46.7237      46.7237      46.7237 
  350000    127.39418   -7138.9101   -6482.3434   -805.64907     102002.7      46.7237      46.7237      46.7237 
  351000    129.79328   -7139.4418   -6470.5105   -408.34749     102002.7      46.7237      46.7237      46.7237 
  352000    133.07217   -7122.3501     -6436.52   -772.26803     102002.7      46.7237      46.7237      46.7237 
  353000    130.05694   -7141.7336   -6471.4435   -730.17062     102002.7      46.7237      46.7237      46.7237 
  354000     134.6113   -7126.3315    -6432.569   -420.88581     102002.7      46.7237      46.7237      46.7237 
  355000    128.17815   -7136.6727   -6476.0655   -1025.2816     102002.7      46.7237      46.7237      46.7237 
  356000    128.07676   -7101.6492   -6441.5645   -487.66732     102002.7      46.7237      46.7237      46.7237 
  357000    125.09945   -7115.8854   -6471.1452   -708.89654     102002.7      46.7237      46.7237      46.7237 
  358000    128.12257   -7100.5028    -6440.182   -669.28643     102002.7      46.7237      46.7237      46.7237 
  359000    129.94424   -7145.1119   -6475.4026   -394.58891     102002.7      46.7237      46.7237      46.7237 
  360000    130.30448   -7120.6715   -6449.1056   -787.41293     102002.7      46.7237      46.7237      46.7237 
  361000    125.72383   -7133.1972   -6485.2391   -916.36849     102002.7      46.7237      46.7237      46.7237 
  362000    136.07719   -7140.0337   -6438.7163   -645.86434     102002.7      46.7237      46.7237      46.7237 
  363000    133.26416   -7120.6499   -6433.8303   -589.44801     102002.7      46.7237      46.7237      46.7237 
  364000    130.83705   -7133.5812   -6459.2705   -905.15929     102002.7      46.7237      46.7237      46.7237 
  365000    127.07699   -7128.9873   -6474.0553   -287.29951     102002.7      46.7237      46.7237      46.7237 
  366000    130.32862   -7116.9905   -6445.3001   -528.03652     102002.7      46.7237      46.7237      46.7237 
  367000    127.99077   -7110.5142   -6450.8727   -519.73778     102002.7      46.7237      46.7237      46.7237 
  368000     129.8435    -7127.852   -6458.6619   -663.46516     102002.7      46.7237      46.7237      46.7237 
  369000    130.94313   -7107.5271   -6432.6697   -538.82805     102002.7      46.7237      46.7237      46.7237 
  370000    130.70968   -7121.0661   -6447.4119   -593.80437     102002.7      46.7237      46.7237      46.7237 
  371000    127.32777   -7141.5405    -6485.316   -650.59425     102002.7      46.7237      46.7237      46.7237 
  372000    132.89272   -7125.4946   -6440.5893   -652.64269     102002.7      46.7237      46.7237      46.7237 
  373000    129.64931   -7116.6626   -6448.4733   -728.70718     102002.7      46.7237      46.7237      46.7237 
  374000    129.87754   -7126.0011   -6456.6355   -735.74667     102002.7      46.7237      46.7237      46.7237 
  375000    125.45048   -7112.9972    -6466.448   -844.75673     102002.7      46.7237      46.7237      46.7237 
  376000    130.84873   -7124.7788   -6450.4079   -688.64349     102002.7      46.7237      46.7237      46.7237 
  377000    127.84559   -7129.3347   -6470.4415   -772.40807     102002.7      46.7237      46.7237      46.7237 
  378000    129.74382   -7138.1422   -6469.4659   -565.60266     102002.7      46.7237      46.7237      46.7237 
  379000    130.75918   -7112.8644    -6438.955   -630.83233     102002.7      46.7237      46.7237      46.7237 
  380000    121.25956   -7108.0065   -6483.0565   -512.78995     102002.7      46.7237      46.7237      46.7237 
  381000    132.20214   -7148.7923   -6467.4462   -715.10784     102002.7      46.7237      46.7237      46.7237 
  382000    127.99832   -7124.4252   -6464.7448   -347.95314     102002.7      46.7237      46.7237      46.7237 
  383000    131.91352   -7112.8286     -6432.97   -505.89235     102002.7      46.7237      46.7237      46.7237 
  384000     130.5664   -7127.4543   -6454.5385   -832.14649     102002.7      46.7237      46.7237      46.7237 
  385000    129.29493   -7109.4124   -6443.0495   -607.77302     102002.7      46.7237      46.7237      46.7237 
  386000    131.12841   -7123.3468   -6447.5345   -548.53384     102002.7      46.7237      46.7237      46.7237 
  387000    131.00364   -7129.1181   -6453.9489   -672.64394     102002.7      46.7237      46.7237      46.7237 
  388000    136.76047   -7130.4069   -6425.5679   -924.37379     102002.7      46.7237      46.7237      46.7237 
  389000    128.96837   -7129.3457   -6464.6659   -625.59689     102002.7      46.7237      46.7237      46.7237 
  390000    132.33777   -7116.3411    -6434.296   -705.55092     102002.7      46.7237      46.7237      46.7237 
  391000      128.726   -7130.9064   -6467.4756   -832.64854     102002.7      46.7237      46.7237      46.7237 
  392000    126.14699   -7124.8883   -6474.7493   -560.70455     102002.7      46.7237      46.7237      46.7237 
  393000    127.31751   -7105.3245   -6449.1529    -535.7996     102002.7      46.7237      46.7237      46.7237 
  394000    129.83195   -7137.1067   -6467.9761   -461.95573     102002.7      46.7237      46.7237      46.7237 
  395000    131.66209   -7119.8301   -6441.2673   -792.35486     102002.7      46.7237      46.7237      46.7237 
  396000    126.73644   -7134.3424   -6481.1655   -620.23579     102002.7      46.7237      46.7237      46.7237 
  397000    127.70283   -7106.4294   -6448.2719   -719.14705     102002.7      46.7237      46.7237      46.7237 
  398000    133.96734   -7127.8325   -6437.3889   -773.73169     102002.7      46.7237      46.7237      46.7237 
  399000    130.10704   -7123.9054    -6453.357   -580.25078     102002.7      46.7237      46.7237      46.7237 
  400000    129.75919   -7097.2139   -6428.4583   -649.80585     102002.7      46.7237      46.7237      46.7237 
  401000    127.44223   -7109.8725   -6453.0581    -462.8373     102002.7      46.7237      46.7237      46.7237 
  402000    129.56397   -7124.1728   -6456.4233   -547.78605     102002.7      46.7237      46.7237      46.7237 
  403000     129.6875   -7118.9386   -6450.5525   -493.47117     102002.7      46.7237      46.7237      46.7237 
  404000    130.58703    -7103.636   -6430.6139   -378.16239     102002.7      46.7237      46.7237      46.7237 
  405000    130.55631   -7112.3255   -6439.4617   -638.61777     102002.7      46.7237      46.7237      46.7237 
  406000    130.24529    -7124.238   -6452.9771   -785.77967     102002.7      46.7237      46.7237      46.7237 
  407000    129.55108   -7143.6634   -6475.9804   -554.08464     102002.7      46.7237      46.7237      46.7237 
  408000    135.51463   -7115.1353   -6416.7172    -440.8579     102002.7      46.7237      46.7237      46.7237 
  409000    130.80057   -7108.4401   -6434.3174   -633.45818     102002.7      46.7237      46.7237      46.7237 
  410000     129.3355   -7123.0996   -6456.5276   -822.82652     102002.7      46.7237      46.7237      46.7237 
  411000    125.55979   -7089.9525   -6442.8398   -742.60524     102002.7      46.7237      46.7237      46.7237 
  412000    130.62131   -7134.4429   -6461.2441   -721.04459     102002.7      46.7237      46.7237      46.7237 
  413000    128.29199   -7099.8355   -6438.6416   -720.83556     102002.7      46.7237      46.7237      46.7237 
  414000    128.95611   -7141.3015   -6476.6849   -988.83381     102002.7      46.7237      46.7237      46.7237 
  415000    130.64032   -7123.0007   -6449.7039   -776.16168     102002.7      46.7237      46.7237      46.7237 
  416000    128.85981   -7108.0385   -6443.9182    -840.2029     102002.7      46.7237      46.7237      46.7237 
  417000    127.13666   -7129.1409   -6473.9014   -852.38309     102002.7      46.7237      46.7237      46.7237 
  418000    133.40419   -7129.0523   -6441.5111   -501.94238     102002.7      46.7237      46.7237      46.7237 
  419000    132.16166   -7097.3287   -6416.1912   -612.14244     102002.7      46.7237      46.7237      46.7237 
  420000    129.10973   -7131.9749   -6466.5665    -787.3847     102002.7      46.7237      46.7237      46.7237 
  421000    132.74379     -7118.37   -6434.2323    -597.9489     102002.7      46.7237      46.7237      46.7237 
  422000    130.82632   -7125.2265   -6450.9711   -465.75841     102002.7      46.7237      46.7237      46.7237 
  423000    132.31103   -7114.6826   -6432.7752   -409.37084     102002.7      46.7237      46.7237      46.7237 
  424000    128.21781   -7099.9993   -6439.1877   -580.28784     102002.7      46.7237      46.7237      46.7237 
  425000    128.52374   -7117.2033    -6454.815   -336.08854     102002.7      46.7237      46.7237      46.7237 
  426000    129.33412   -7119.7202   -6453.1554   -268.42079     102002.7      46.7237      46.7237      46.7237 
  427000    126.99907   -7132.2304      -6477.7   -697.13116     102002.7      46.7237      46.7237      46.7237 
  428000    132.67512   -7103.0444   -6419.2607   -914.50593     102002.7      46.7237      46.7237      46.7237 
  429000    129.49703   -7115.4178   -6448.0134   -832.61969     102002.7      46.7237      46.7237      46.7237 
  430000    129.24814   -7128.6916   -6462.5699   -676.06113     102002.7      46.7237      46.7237      46.7237 
  431000    133.29495   -7130.7049   -6443.7267   -803.98942     102002.7      46.7237      46.7237      46.7237 
  432000     129.8602   -7145.9821    -6476.706   -531.95029     102002.7      46.7237      46.7237      46.7237 
  433000    130.09125    -7125.188    -6454.721   -593.12081     102002.7      46.7237      46.7237      46.7237 
  434000    131.06904    -7124.686   -6449.1797   -690.75942     102002.7      46.7237      46.7237      46.7237 
  435000    128.79752   -7162.7894   -6498.9901   -1056.2404     102002.7      46.7237      46.7237      46.7237 
  436000    129.50021   -7095.6572   -6428.2363   -907.53119     102002.7      46.7237      46.7237      46.7237 
  437000    129.82114   -7123.1687   -6454.0939   -682.42428     102002.7      46.7237      46.7237      46.7237 
  438000    131.19213   -7131.2166   -6455.0759   -1053.9921     102002.7      46.7237      46.7237      46.7237 
  439000    132.64214   -7104.6518    -6421.038   -723.85237     102002.7      46.7237      46.7237      46.7237 
  440000    132.37307   -7115.0752   -6432.8481   -895.44068     102002.7      46.7237      46.7237      46.7237 
  441000    130.86631   -7125.7048   -6451.2433   -821.01117     102002.7      46.7237      46.7237      46.7237 
  442000    127.88508   -7123.9857    -6464.889   -929.08099     102002.7      46.7237      46.7237      46.7237 
  443000    129.60804   -7114.9091   -6446.9325   -671.52431     102002.7      46.7237      46.7237      46.7237 
  444000    126.44317   -7143.9652   -6492.2998   -945.68855     102002.7      46.7237      46.7237      46.7237 
  445000    132.01892   -7125.9711   -6445.5692   -695.88443     102002.7      46.7237      46.7237      46.7237 
  446000    125.34593   -7104.3684    -6458.358   -721.91094     102002.7      46.7237      46.7237      46.7237 
  447000    127.61516   -7124.5374   -6466.8318   -630.70491     102002.7      46.7237      46.7237      46.7237 
  448000    128.87399   -7115.1623   -6450.9689   -681.47149     102002.7      46.7237      46.7237      46.7237 
  449000    126.97749   -7123.9036   -6469.4844   -795.48187     102002.7      46.7237      46.7237      46.7237 
  450000    126.07867   -7102.9927   -6453.2059   -635.27554     102002.7      46.7237      46.7237      46.7237 
  451000    131.94877   -7111.5711   -6431.5309    -797.7483     102002.7      46.7237      46.7237      46.7237 
  452000    128.94952   -7117.3229   -6452.7402   -588.69976     102002.7      46.7237      46.7237      46.7237 
  453000    129.85643   -7118.3131   -6449.0564   -912.23423     102002.7      46.7237      46.7237      46.7237 
  454000    128.34897    -7121.402   -6459.9144   -852.42212     102002.7      46.7237      46.7237      46.7237 
  455000    130.79298   -7112.4029   -6438.3193   -478.83393     102002.7      46.7237      46.7237      46.7237 
  456000    132.67487    -7135.852   -6452.0695   -923.58813     102002.7      46.7237      46.7237      46.7237 
  457000    126.46928   -7132.0049    -6480.205   -593.82752     102002.7      46.7237      46.7237      46.7237 
  458000    130.13759   -7115.9949   -6445.2891   -821.08244     102002.7      46.7237      46.7237      46.7237 
  459000    131.06066   -7123.6372   -6448.1741   -742.57479     102002.7      46.7237      46.7237      46.7237 
  460000    130.58582   -7149.5665   -6476.5506   -961.41081     102002.7      46.7237      46.7237      46.7237 
  461000    129.10532    -7121.524   -6456.1383   -539.73784     102002.7      46.7237      46.7237      46.7237 
  462000    137.41431   -7123.7115   -6415.5028   -705.88102     102002.7      46.7237      46.7237      46.7237 
  463000    128.65023   -7115.5169   -6452.4766   -588.27918     102002.7      46.7237      46.7237      46.7237 
  464000    134.04339   -7108.9794   -6418.1438    -595.1437     102002.7      46.7237      46.7237      46.7237 
  465000    128.94383   -7114.9231   -6450.3697   -750.25715     102002.7      46.7237      46.7237      46.7237 
  466000    129.78732   -7126.4138   -6457.5133   -503.98896     102002.7      46.7237      46.7237      46.7237 
  467000    130.33896   -7109.1668   -6437.4232   -578.46041     102002.7      46.7237      46.7237      46.7237 
  468000    127.67111   -7117.1024   -6459.1084    -508.3169     102002.7      46.7237      46.7237      46.7237 
  469000    131.47181   -7107.9994   -6430.4173   -949.41903     102002.7      46.7237      46.7237      46.7237 
  470000    130.24019   -7126.2806    -6455.046   -746.52746     102002.7      46.7237      46.7237      46.7237 
  471000     131.2358   -7124.8718    -6448.506   -659.53435     102002.7      46.7237      46.7237      46.7237 
  472000    134.35754   -7113.8804   -6421.4258    -762.9049     102002.7      46.7237      46.7237      46.7237 
  473000    131.34139   -7122.7172   -6445.8073   -755.57438     102002.7      46.7237      46.7237      46.7237 
  474000    131.65794   -7127.2306   -6448.6892   -586.32023     102002.7      46.7237      46.7237      46.7237 
  475000    126.18704   -7137.1528   -6486.8074   -799.06607     102002.7      46.7237      46.7237      46.7237 
  476000    133.67236   -7131.7327   -6442.8094   -467.18232     102002.7      46.7237      46.7237      46.7237 
  477000    124.77398   -7128.7092   -6485.6465   -546.29643     102002.7      46.7237      46.7237      46.7237 
  478000    127.41503   -7093.4539   -6436.7797   -913.02024     102002.7      46.7237      46.7237      46.7237 
  479000     128.1515   -7126.0783   -6465.6084   -595.65666     102002.7      46.7237      46.7237      46.7237 
  480000    127.04933   -7133.4915    -6478.702   -750.75415     102002.7      46.7237      46.7237      46.7237 
  481000    127.01284   -7083.7325   -6429.1311   -617.16543     102002.7      46.7237      46.7237      46.7237 
  482000    129.58608   -7137.4481   -6469.5847   -776.26919     102002.7      46.7237      46.7237      46.7237 
  483000    128.95155    -7118.235   -6453.6419   -963.67865     102002.7      46.7237      46.7237      46.7237 
  484000     127.1305   -7117.8898   -6462.6821   -725.08427     102002.7      46.7237      46.7237      46.7237 
  485000    132.61661   -7137.4984   -6454.0162   -923.46723     102002.7      46.7237      46.7237      46.7237 
  486000    131.27169   -7118.5207     -6441.97   -761.49616     102002.7      46.7237      46.7237      46.7237 
  487000    131.59333   -7138.3971   -6460.1887   -1019.4923     102002.7      46.7237      46.7237      46.7237 
  488000    127.46567   -7112.4742    -6455.539   -861.33989     102002.7      46.7237      46.7237      46.7237 
  489000    127.84401   -7126.8811    -6467.996   -919.88654     102002.7      46.7237      46.7237      46.7237 
  490000     130.3718   -7126.5415   -6454.6286   -889.11289     102002.7      46.7237      46.7237      46.7237 
  491000    128.13319   -7136.0251   -6475.6496   -606.02661     102002.7      46.7237      46.7237      46.7237 
  492000    130.19486   -7127.6619   -6456.6609   -816.58056     102002.7      46.7237      46.7237      46.7237 
  493000    130.63143   -7078.9618   -6405.7108    -776.1135     102002.7      46.7237      46.7237      46.7237 
  494000    129.87299   -7135.6505   -6466.3085   -649.66514     102002.7      46.7237      46.7237      46.7237 
  495000    128.67723   -7147.9665   -6484.7872   -499.54233     102002.7      46.7237      46.7237      46.7237 
  496000    125.09207   -7121.2308   -6476.5287    -804.7818     102002.7      46.7237      46.7237      46.7237 
  497000    127.80284   -7119.9901   -6461.3172   -735.89061     102002.7      46.7237      46.7237      46.7237 
  498000    132.16997   -7141.1428   -6459.9625   -761.44335     102002.7      46.7237      46.7237      46.7237 
  499000    132.28849   -7136.1361    -6454.345   -836.82111     102002.7      46.7237      46.7237      46.7237 
  500000    130.50881   -7114.6869   -6442.0679   -667.20163     102002.7      46.7237      46.7237      46.7237 
  500507     130.4732   -7114.1926   -6441.7571   -639.93464     102002.7      46.7237      46.7237      46.7237 
Loop time of 1287.64 on 16 procs for 500000 steps with 1730 atoms

Performance: 33.550 ns/day, 0.715 hours/ns, 388.306 timesteps/s
99.8% CPU use with 16 MPI tasks x no OpenMP threads

MPI task timing breakdown:
Section |  min time  |  avg time  |  max time  |%varavg| %total
---------------------------------------------------------------
Pair    | 501.37     | 686.05     | 875.58     | 461.7 | 53.28
Bond    | 166.3      | 173.8      | 178.21     |  27.2 | 13.50
Neigh   | 3.8132     | 3.8537     | 3.9286     |   2.2 |  0.30
Comm    | 216.19     | 410.92     | 594.16     | 600.9 | 31.91
Output  | 0.020302   | 0.020708   | 0.023925   |   0.6 |  0.00
Modify  | 6.9739     | 7.8067     | 8.5063     |  18.5 |  0.61
Other   |            | 5.192      |            |       |  0.40

Nlocal:    108.125 ave 135 max 79 min
Histogram: 3 0 0 2 1 5 1 0 2 2
Nghost:    2202.88 ave 2231 max 2177 min
Histogram: 2 1 1 2 3 3 0 1 1 2
Neighs:    11446 ave 17835 max 6621 min
Histogram: 2 2 1 3 1 2 3 1 0 1

Total # of neighbors = 183136
Ave neighs/atom = 105.859
Ave special neighs/atom = 6.65896
Neighbor list builds = 3355
Dangerous builds = 0
Neighbor list info ...
  update every 1 steps, delay 10 steps, check yes
  max neighbors/atom: 2000, page size: 100000
  master list distance cutoff = 16
  ghost atom cutoff = 16
  binsize = 8, bins = 6 6 6
  3 neighbor lists, perpetual/occasional/extra = 3 0 0
  (1) pair buck6d/coul/gauss/dsf, perpetual, skip from (3)
      attributes: half, newton on
      pair build: skip
      stencil: none
      bin: none
  (2) pair lj/cut, perpetual, skip from (3)
      attributes: half, newton on
      pair build: skip
      stencil: none
      bin: none
  (3) neighbor class addition, perpetual
      attributes: half, newton on
      pair build: half/bin/newton
      stencil: half/bin/3d/newton
      bin: standard
Setting up Verlet run ...
  Unit style    : real
  Current step  : 500507
  Time step     : 1
WARNING: Inconsistent image flags (../domain.cpp:786)
Per MPI rank memory allocation (min/avg/max) = 23.22 | 23.32 | 23.33 Mbytes
Step Time TotEng KinEng PotEng E_mol E_pair Temp Pxx Pyy Pzz Pxy Pxz Pyz Cella Cellb Cellc CellAlpha CellBeta CellGamma Volume Press 
  500507       500000   -6441.7571    672.43544   -7114.1926    4409.1556   -11523.348     130.4732   -609.52494    -619.1126   -691.16637    81.315177   -9.1373573    109.20702      46.7237      46.7237      46.7237           90           90           90     102002.7   -639.93464 
  501000       500493   -6455.0574    663.62693   -7118.6843    4409.9196   -11528.604    128.76407   -1225.7995   -552.08269   -868.87715   -110.24323    111.61099    164.83891      46.7237      46.7237      46.7237           90           90           90     102002.7    -882.2531 
  502000       501493   -6441.6902    648.69286    -7090.383    4445.7559   -11536.139     125.8664   -966.88672   -1034.5551   -1618.3417   -60.602258   -127.00612   -110.14838      46.7237      46.7237      46.7237           90           90           90     102002.7   -1206.5945 
  503000       502493   -6452.7906    662.69891   -7115.4895    4417.9759   -11533.465    128.58401   -1037.9468   -763.50889   -613.74036    291.13512    76.028916    379.99741      46.7237      46.7237      46.7237           90           90           90     102002.7   -805.06535 
  504000       503493   -6422.5937    697.74531    -7120.339    4427.0453   -11547.384    135.38409    -743.8018   -950.02031   -1278.2362    107.35545   -46.329564    -12.03003      46.7237      46.7237      46.7237           90           90           90     102002.7   -990.68611 
  505000       504493   -6429.1776     691.2897   -7120.4673    4404.8915   -11525.359     134.1315   -452.83849   -754.46898   -715.76396   -39.546506    67.568845    1.9244632      46.7237      46.7237      46.7237           90           90           90     102002.7   -641.02381 
  506000       505493   -6477.0747    657.39155   -7134.4663    4416.1053   -11550.572    127.55422   -721.77992   -567.51404   -1037.6694    129.43586    398.55006   -182.52435      46.7237      46.7237      46.7237           90           90           90     102002.7   -775.65446 
  507000       506493   -6455.0763    666.34669    -7121.423    4401.4707   -11522.894    129.29179   -741.16133   -906.26137   -418.28501    3.2548406   -112.97692   -80.486633      46.7237      46.7237      46.7237           90           90           90     102002.7   -688.56924 
  508000       507493   -6418.6911     690.5087   -7109.1998    4435.6465   -11544.846    133.97996   -673.53088   -863.73362    -732.4473    216.63236    57.331849    179.98367      46.7237      46.7237      46.7237           90           90           90     102002.7    -756.5706 
  509000       508493   -6462.2094    658.70824   -7120.9176     4424.545   -11545.463     127.8097    -287.3579    -950.3858   -690.60252    -230.5699    7.2342162   -61.610766      46.7237      46.7237      46.7237           90           90           90     102002.7   -642.78207 
  510000       509493   -6485.0724    663.37563   -7148.4481    4394.5485   -11542.997    128.71531   -907.01318   -1184.0529   -657.62964     19.90075   -163.71288   -134.39315      46.7237      46.7237      46.7237           90           90           90     102002.7    -916.2319 
  511000       510493   -6464.1437    668.86767   -7133.0114    4423.1592   -11556.171    129.78094   -1256.0821   -640.21669    -521.3678    85.860879    23.963037    122.31555      46.7237      46.7237      46.7237           90           90           90     102002.7   -805.88887 
  512000       511493   -6432.0536    671.27544    -7103.329    4429.5032   -11532.832    130.24812   -547.65401   -170.58166   -1268.9657   -37.512988    136.83151   -82.681525      46.7237      46.7237      46.7237           90           90           90     102002.7   -662.40045 
  513000       512493   -6438.2739    675.55653   -7113.8304    4437.1034   -11550.934    131.07878   -654.20127   -1261.6434   -1285.2937   -93.479735    47.522345    80.391815      46.7237      46.7237      46.7237           90           90           90     102002.7   -1067.0461 
  514000       513493   -6471.5901    638.77074   -7110.3609    4406.8556   -11517.216    123.94121   -1233.4484   -885.68435   -769.03619   -193.97513    56.990611   -203.12336      46.7237      46.7237      46.7237           90           90           90     102002.7   -962.72298 
  515000       514493    -6427.239    687.87113   -7115.1101     4408.693   -11523.803    133.46819   -833.65614   -724.98628   -819.40123   -29.220106    125.55102    121.11007      46.7237      46.7237      46.7237           90           90           90     102002.7   -792.68122 
  516000       515493    -6466.823    653.05239   -7119.8754    4407.6068   -11527.482    126.71229   -655.78806   -847.79487   -541.79319   -47.067481    159.33407   -77.256278      46.7237      46.7237      46.7237           90           90           90     102002.7   -681.79204 
  517000       516493   -6423.0087    697.11314   -7120.1219    4414.9821   -11535.104    135.26143   -648.16821   -1042.6696     -288.816   -38.341457    7.7644092    79.117008      46.7237      46.7237      46.7237           90           90           90     102002.7    -659.8846 
  518000       517493   -6441.3482    687.28991   -7128.6381    4405.2954   -11533.933    133.35542   -698.38595   -953.16587   -947.11602     78.23554   -182.58827   -182.44186      46.7237      46.7237      46.7237           90           90           90     102002.7   -866.22261 
  519000       518493   -6465.6411     674.0333   -7139.6744    4397.7187   -11537.393    130.78323   -375.36618   -1378.7365   -516.78991    139.26896    311.06015    23.663176      46.7237      46.7237      46.7237           90           90           90     102002.7   -756.96421 
  520000       519493   -6443.0177    661.51505   -7104.5328    4422.4438   -11526.977     128.3543    -575.4747   -613.61712   -618.81377   -304.56384    267.13381   -207.07401      46.7237      46.7237      46.7237           90           90           90     102002.7    -602.6352 
  521000       520493    -6450.574    660.29265   -7110.8667    4431.6678   -11542.534    128.11712   -1026.8223   -553.51479   -1228.4292   -68.773948    9.7683968    82.133131      46.7237      46.7237      46.7237           90           90           90     102002.7   -936.25543 
  522000       521493   -6488.9545    650.24549      -7139.2    4393.0883   -11532.288    126.16766   -712.90072   -614.39553   -397.26516   -74.783842   -18.196548    211.23493      46.7237      46.7237      46.7237           90           90           90     102002.7    -574.8538 
  523000       522493   -6449.2087    674.47086   -7123.6795    4449.3873   -11573.067    130.86813   -959.72069    -897.2523   -741.49938    3.8415203     217.9211    82.559835      46.7237      46.7237      46.7237           90           90           90     102002.7   -866.15746 
  524000       523493   -6435.9481    668.34228   -7104.2904     4425.278   -11529.568      129.679   -469.53519   -183.67232   -916.33283    364.65202    51.137688   -10.310536      46.7237      46.7237      46.7237           90           90           90     102002.7   -523.18011 
  525000       524493   -6450.0533    676.46713   -7126.5205    4413.6777   -11540.198    131.25547   -987.71883   -423.27646   -706.90188    70.162773   -44.632261   -85.559427      46.7237      46.7237      46.7237           90           90           90     102002.7   -705.96572 
  526000       525493    -6449.913    667.28089   -7117.1939    4429.2454   -11546.439    129.47305   -704.95045    -643.6538   -433.92985    147.02388    95.876783   -28.742213      46.7237      46.7237      46.7237           90           90           90     102002.7   -594.17803 
  527000       526493   -6476.1104    654.08409   -7130.1945    4408.3054     -11538.5    126.91247    -1024.251   -483.57457   -540.23242    87.198476   -88.804684    288.30676      46.7237      46.7237      46.7237           90           90           90     102002.7     -682.686 
  528000       527493   -6473.5863    657.91541   -7131.5017    4398.5855   -11530.087    127.65586   -724.41288   -710.30494   -981.72091   -314.42705    74.918782   -222.72541      46.7237      46.7237      46.7237           90           90           90     102002.7   -805.47958 
  529000       528493   -6432.9084    663.87029   -7096.7787    4456.8078   -11553.587    128.81129   -723.13515   -670.04232   -758.53607    1.9098795   -15.264051   -102.01217      46.7237      46.7237      46.7237           90           90           90     102002.7   -717.23785 
  530000       529493   -6431.0608    687.33807   -7118.3989    4411.7759   -11530.175    133.36476    -622.5003   -1030.8582   -425.47666    92.901846   -94.455536    99.884051      46.7237      46.7237      46.7237           90           90           90     102002.7   -692.94505 
  531000       530493   -6420.5149    669.05118   -7089.5661    4453.2187   -11542.785    129.81655   -333.34749   -725.28909   -1217.9637    41.216775   -10.466901    32.616612      46.7237      46.7237      46.7237           90           90           90     102002.7   -758.86677 
  532000       531493   -6457.4465    670.37611   -7127.8227    4379.5603   -11507.383    130.07362   -429.79289   -849.64605   -650.61511   -105.14209    147.30097   -132.07121      46.7237      46.7237      46.7237           90           90           90     102002.7   -643.35135 
  533000       532493   -6422.7721    685.24514   -7108.0173    4432.3591   -11540.376    132.95867   -671.76139    -605.8781    -371.8737     136.0637    14.521097    -69.59691      46.7237      46.7237      46.7237           90           90           90     102002.7   -549.83773 
  534000       533493   -6436.3946    702.90577   -7139.3004    4409.8709   -11549.171    136.38538   -737.60611   -1105.3165    -383.9081   -91.252791    107.98104    226.88213      46.7237      46.7237      46.7237           90           90           90     102002.7   -742.27692 
  535000       534493   -6472.9135    654.08445    -7126.998    4416.4341   -11543.432    126.91254    -344.9574   -666.98129   -607.63269    1.0139122   -372.21226    90.732396      46.7237      46.7237      46.7237           90           90           90     102002.7   -539.85713 
  536000       535493   -6444.5996    671.37241    -7115.972    4401.2755   -11517.247    130.26694   -664.96283   -1058.4984   -460.10685   -221.75582    133.55352     -101.378      46.7237      46.7237      46.7237           90           90           90     102002.7   -727.85603 
  537000       536493   -6458.4853    682.31817   -7140.8035    4388.3309   -11529.134    132.39075   -848.97482   -328.16197   -597.41754    53.522927    7.0270794    227.82811      46.7237      46.7237      46.7237           90           90           90     102002.7   -591.51811 
  538000       537493   -6437.7072    661.05267   -7098.7598    4414.6276   -11513.387    128.26459   -624.79513   -904.24671   -501.77108   -68.089641    290.95718    161.53015      46.7237      46.7237      46.7237           90           90           90     102002.7   -676.93764 
  539000       538493   -6442.4386    678.56609   -7121.0047    4413.0233   -11534.028    131.66273   -529.50265   -1045.7261    -157.1684    148.70802   -202.41756     17.18513      46.7237      46.7237      46.7237           90           90           90     102002.7   -577.46572 
  540000       539493   -6468.6852    667.93436   -7136.6196    4395.8811   -11532.501    129.59985   -758.09723   -758.56968    -719.6201    143.31707    191.25619    272.01985      46.7237      46.7237      46.7237           90           90           90     102002.7     -745.429 
  541000       540493   -6436.2528    652.55115   -7088.8039    4426.8537   -11515.658    126.61503   -534.55987   -475.31453   -1267.7998    77.261425    247.05314   -114.05732      46.7237      46.7237      46.7237           90           90           90     102002.7   -759.22474 
  542000       541493   -6439.4329    680.84525   -7120.2782    4406.2762   -11526.554    132.10496   -602.08481   -791.75651   -290.86448   -186.31618   -55.090046    -90.82648      46.7237      46.7237      46.7237           90           90           90     102002.7    -561.5686 
  543000       542493   -6449.8135    664.16194   -7113.9754    4435.0408   -11549.016    128.86788   -813.75906   -312.63116   -923.06888   -160.17692   -319.03787    15.393019      46.7237      46.7237      46.7237           90           90           90     102002.7   -683.15303 
  544000       543493   -6435.3301    673.52856   -7108.8586    4411.2663   -11520.125    130.68529    -92.96213   -375.47527   -1042.1865   -213.14673    122.26956    37.843087      46.7237      46.7237      46.7237           90           90           90     102002.7   -503.54131 
  545000       544493   -6459.4503    677.57922   -7137.0295    4404.7566   -11541.786    131.47125    -245.3576   -667.75469   -18.694452   -58.372544    212.83929   -166.75563      46.7237      46.7237      46.7237           90           90           90     102002.7   -310.60225 
  546000       545493   -6470.1506    673.76367   -7143.9142    4379.8884   -11523.803    130.73091   -479.42883   -285.74256   -717.12556   -147.10574    50.498253    278.18341      46.7237      46.7237      46.7237           90           90           90     102002.7   -494.09898 
  547000       546493   -6421.5132    679.24557   -7100.7588    4430.6356   -11531.394    131.79457   -442.78971   -372.98112   -390.76427    162.81617    34.415149   -127.24693      46.7237      46.7237      46.7237           90           90           90     102002.7   -402.17837 
  548000       547493   -6461.8178     663.1636   -7124.9814    4426.2373   -11551.219    128.67417   -251.46705   -807.37353   -588.21758   -261.24448   -319.10075    168.71001      46.7237      46.7237      46.7237           90           90           90     102002.7   -549.01939 
  549000       548493   -6463.3924    663.13504   -7126.5275    4400.9444   -11527.472    128.66863   -851.61963   -370.71706    39.150121   -16.237742    127.69936    -332.2042      46.7237      46.7237      46.7237           90           90           90     102002.7   -394.39552 
  550000       549493   -6430.5786    679.84116   -7110.4197    4434.1327   -11544.552    131.91013    -180.8164   -301.04418   -427.54439    305.03411    85.405186    76.125791      46.7237      46.7237      46.7237           90           90           90     102002.7   -303.13499 
  551000       550493   -6478.8881    653.79123   -7132.6794    4399.3444   -11532.024    126.85565   -215.66194   -867.54013   -456.41311    184.04895   -275.41132   -259.63824      46.7237      46.7237      46.7237           90           90           90     102002.7   -513.20506 
  552000       551493    -6431.904    675.79954   -7107.7035    4440.8545   -11548.558    131.12593    -1197.714   -668.58669   -83.180829   -14.411683   -298.10691    289.20252      46.7237      46.7237      46.7237           90           90           90     102002.7   -649.82716 
  553000       552493   -6487.7372    641.75724   -7129.4944    4396.4051     -11525.9    124.52068   -806.93773    -689.6816   -339.43834   -225.33261    240.44103   -197.26588      46.7237      46.7237      46.7237           90           90           90     102002.7   -612.01922 
  554000       553493   -6449.9846    663.58696   -7113.5715    4434.0048   -11547.576    128.75632   -1063.1379   -1184.9143   -707.97979    123.61425   -261.24743    65.639685      46.7237      46.7237      46.7237           90           90           90     102002.7     -985.344 
  555000       554493   -6424.7311    672.51161   -7097.2428    4444.1973    -11541.44    130.48798   -796.55368   -647.37902   -706.08342    20.717401   -219.34078   -370.45568      46.7237      46.7237      46.7237           90           90           90     102002.7   -716.67204 
[...]
  936000       935493    -6474.791    646.54112   -7121.3321    4419.1978    -11540.53     125.4489   -868.51904   -1121.6273   -690.42929    -179.2295    120.55299    331.56859      46.7237      46.7237      46.7237           90           90           90     102002.7   -893.52521 
  937000       936493   -6434.5977    663.84931    -7098.447    4442.5057   -11540.953    128.80722    -949.9185    -795.5375   -811.57856    124.40477   -149.67264   -0.7164934      46.7237      46.7237      46.7237           90           90           90     102002.7   -852.34485 
  938000       937493   -6476.9328    662.37385   -7139.3067    4399.8529    -11539.16    128.52094   -807.97431   -639.37495   -400.03683   -130.88191    95.652914    119.86566      46.7237      46.7237      46.7237           90           90           90     102002.7   -615.79536 
  939000       938493   -6432.5661    677.00262   -7109.5687     4433.547   -11543.116    131.35937   -1149.5731   -974.72536   -835.50053   -133.10151    307.40377   -79.660303      46.7237      46.7237      46.7237           90           90           90     102002.7   -986.59965 
  940000       939493   -6485.6684    663.82635   -7149.4948    4409.4982   -11558.993    128.80277   -362.48115   -609.92948   -953.51827   -24.070442     45.48868   -135.05629      46.7237      46.7237      46.7237           90           90           90     102002.7    -641.9763 
  941000       940493    -6463.325    670.21413   -7133.5391    4398.3875   -11531.927    130.04219   -952.25994   -715.26946   -415.48365   -233.38311   -47.636727    68.623548      46.7237      46.7237      46.7237           90           90           90     102002.7   -694.33768 
  942000       941493   -6452.9212    671.46938   -7124.3905    4438.6072   -11562.998    130.28575   -553.76642   -721.08859   -899.07839   -80.345067    291.96295   -105.07813      46.7237      46.7237      46.7237           90           90           90     102002.7   -724.64447 
  943000       942493   -6465.1909    673.48428   -7138.6751    4380.7212   -11519.396     130.6767     -846.306   -567.90729    -643.1356   -275.28134     49.75343    -80.43776      46.7237      46.7237      46.7237           90           90           90     102002.7   -685.78296 
  944000       943493   -6444.3729    677.97154   -7122.3444    4423.7236   -11546.068    131.54737   -660.49836   -1186.7108   -892.12054    14.851689    215.90915   -181.67439      46.7237      46.7237      46.7237           90           90           90     102002.7   -913.10989 
  945000       944493   -6474.2351    670.90527   -7145.1403    4395.9332   -11541.074    130.17629   -477.52022   -670.77378   -854.37191    114.09597    212.57978   -4.4259504      46.7237      46.7237      46.7237           90           90           90     102002.7    -667.5553 
  946000       945493   -6454.0586    656.23042    -7110.289    4423.1718   -11533.461    127.32892   -387.04188   -1193.0503   -1199.2717     103.6087   -18.971859    41.570978      46.7237      46.7237      46.7237           90           90           90     102002.7   -926.45462 
  947000       946493   -6461.0878    653.51358   -7114.6014    4416.5211   -11531.122    126.80177    40.553907   -703.56281   -823.95652    248.84667    -201.5182   -213.13398      46.7237      46.7237      46.7237           90           90           90     102002.7   -495.65514 
  948000       947493   -6461.4838    656.73512   -7118.2189    4426.7941   -11545.013    127.42685   -616.11733   -438.52935   -342.17083    137.04969   -100.62899   -37.842072      46.7237      46.7237      46.7237           90           90           90     102002.7   -465.60584 
  949000       948493   -6458.8678    659.16314   -7118.0309    4412.9347   -11530.966    127.89796   -719.85517   -802.37793   -697.51711   -51.416829   -85.619276    6.9727435      46.7237      46.7237      46.7237           90           90           90     102002.7   -739.91674 
  950000       949493   -6453.5013    655.41554   -7108.9168     4418.709   -11527.626    127.17081   -631.00795   -396.68786   -512.66306   -228.17561   -312.43135    142.19702      46.7237      46.7237      46.7237           90           90           90     102002.7   -513.45296 
  951000       950493   -6418.1062    680.90267   -7099.0089    4429.0839   -11528.093     132.1161   -962.85602   -420.84046   -869.55078    157.72527    224.83516   -40.932273      46.7237      46.7237      46.7237           90           90           90     102002.7   -751.08242 
  952000       951493   -6456.9928    679.40749   -7136.4003    4402.5797    -11538.98    131.82599   -478.07564   -791.26571   -944.49405   -16.444894   -129.08045    97.612792      46.7237      46.7237      46.7237           90           90           90     102002.7   -737.94513 
  953000       952493    -6419.694    679.24144   -7098.9354    4437.5277   -11536.463    131.79377    -703.8982   -1091.3777    -560.1227   -159.55565   -9.1770044    192.49451      46.7237      46.7237      46.7237           90           90           90     102002.7   -785.13288 
  954000       953493   -6440.9474    657.75217   -7098.6995    4432.2488   -11530.948    127.62419   -495.14709   -437.25782   -510.80145    176.55974    111.52307    125.92102      46.7237      46.7237      46.7237           90           90           90     102002.7   -481.06879 
  955000       954493   -6428.5281    675.65097   -7104.1791    4430.5379   -11534.717    131.09711   -936.78887   -749.00146   -311.06071   -117.70087    67.219603   -297.87304      46.7237      46.7237      46.7237           90           90           90     102002.7   -665.61701 
  956000       955493   -6463.0587    668.34083   -7131.3995    4391.7139   -11523.113    129.67871     -203.641   -1035.3437   -447.61088   -92.747119    46.178793    96.921973      46.7237      46.7237      46.7237           90           90           90     102002.7   -562.19853 
  957000       956493   -6444.1361     675.4804   -7119.6165    4419.6501   -11539.267    131.06401   -828.42798   -1007.7328   -370.86858   -38.789975    35.321541    127.48542      46.7237      46.7237      46.7237           90           90           90     102002.7   -735.67646 
  958000       957493   -6458.7447    657.75784   -7116.5025    4417.6202   -11534.123    127.62529   -326.69519   -522.84005   -331.72563    311.44308    40.992172   -83.562386      46.7237      46.7237      46.7237           90           90           90     102002.7   -393.75362 
  959000       958493   -6454.6247    666.95752   -7121.5822    4409.3354   -11530.918    129.41031   -557.16032   -435.55384   -745.49618    9.0916661   -96.554953    43.995405      46.7237      46.7237      46.7237           90           90           90     102002.7   -579.40344 
  960000       959493   -6446.7295    676.58909   -7123.3186    4405.8843   -11529.203    131.27913   -710.34493   -356.08926    -891.6453   -162.17657    149.41014    94.934122      46.7237      46.7237      46.7237           90           90           90     102002.7   -652.69317 
  961000       960493   -6470.2859    647.01896   -7117.3048    4423.5065   -11540.811    125.54161   -828.05036   -983.70409   -1048.6902    279.87692   -18.231178   -163.29112      46.7237      46.7237      46.7237           90           90           90     102002.7   -953.48154 
  962000       961493   -6464.3738    670.96621     -7135.34     4395.638   -11530.978    130.18812   -1030.7525   -846.44498   -999.69715   -58.168897   -263.74952    69.317358      46.7237      46.7237      46.7237           90           90           90     102002.7   -958.96488 
  963000       962493   -6430.9575     665.0862   -7096.0437    4451.3914   -11547.435    129.04722   -1114.6105   -850.04456   -1259.3228   -206.21292   -261.66298    15.109591      46.7237      46.7237      46.7237           90           90           90     102002.7   -1074.6593 
  964000       963493   -6440.3423     677.5031   -7117.8454    4432.8848    -11550.73    131.45648   -1281.4232    -289.0649   -719.40663   -177.34394   -6.4451573   -104.95796      46.7237      46.7237      46.7237           90           90           90     102002.7   -763.29825 
  965000       964493   -6448.6205    678.03823   -7126.6588    4394.4605   -11521.119    131.56031   -870.58145   -1133.3614   -697.89907   -158.62115   -15.545758    197.56807      46.7237      46.7237      46.7237           90           90           90     102002.7   -900.61397 
  966000       965493   -6461.9138    669.15577   -7131.0696    4429.7821   -11560.852    129.83684   -687.07703   -1326.5711   -627.48311    -222.7734    -142.4109    266.05859      46.7237      46.7237      46.7237           90           90           90     102002.7   -880.37708 
  967000       966493   -6468.4348    650.57424    -7119.009    4415.7905     -11534.8    126.23145    -955.4152   -475.90524   -1164.7844   -5.4023545    133.92156    32.057803      46.7237      46.7237      46.7237           90           90           90     102002.7   -865.36827 
  968000       967493   -6477.0527    673.03624   -7150.0889    4395.8321   -11545.921    130.58977     -688.637   -616.29138   -1219.0863    82.836453     277.0435     141.7408      46.7237      46.7237      46.7237           90           90           90     102002.7   -841.33823 
  969000       968493   -6455.2708    679.30513   -7134.5759    4407.7142    -11542.29    131.80613   -325.75948   -1177.8032    -866.4367    50.071993    113.38617    190.84657      46.7237      46.7237      46.7237           90           90           90     102002.7   -789.99981 
  970000       969493   -6443.7343    666.11803   -7109.8523    4420.2866   -11530.139    129.24742   -789.84286   -864.36088   -613.76396   -67.423236   -103.06966    32.860098      46.7237      46.7237      46.7237           90           90           90     102002.7   -755.98923 
  971000       970493   -6450.5738    670.48245   -7121.0562    4417.9044   -11538.961    130.09426   -825.21465   -546.32441   -480.57126    74.924944     404.4503   0.82019177      46.7237      46.7237      46.7237           90           90           90     102002.7   -617.37011 
  972000       971493   -6473.7202    661.28895   -7135.0091    4401.7344   -11536.744    128.31043   -405.32241   -163.42965    -703.1101    179.46166   -41.917971    17.640876      46.7237      46.7237      46.7237           90           90           90     102002.7   -423.95405 
  973000       972493   -6446.8286    671.83839    -7118.667    4405.5602   -11524.227    130.35735   -989.22579   -538.60393   -36.129886   -77.769893   -27.607601   -334.20315      46.7237      46.7237      46.7237           90           90           90     102002.7   -521.31987 
  974000       973493   -6435.2425    677.69555   -7112.9381    4426.6525   -11539.591    131.49382    -1091.636   -318.91841    38.835384    46.198942    132.91697    26.207506      46.7237      46.7237      46.7237           90           90           90     102002.7   -457.23967 
  975000       974493     -6460.98     653.8597   -7114.8397    4437.4107    -11552.25    126.86893    -149.5101   -599.77839   -550.92475    92.695328   -29.969004    89.773644      46.7237      46.7237      46.7237           90           90           90     102002.7   -433.40441 
  976000       975493   -6428.1199    689.05307    -7117.173    4406.7116   -11523.885    133.69753   -384.09085   -412.24943      -656.27   -116.85914   -157.49822   -90.514835      46.7237      46.7237      46.7237           90           90           90     102002.7   -484.20343 
  977000       976493   -6453.1451    649.35472   -7102.4998    4426.9116   -11529.411    125.99482    -883.9185   -309.66341   -521.11152   -132.08665    64.172471   -82.075869      46.7237      46.7237      46.7237           90           90           90     102002.7   -571.56448 
  978000       977493   -6451.6181    640.22567   -7091.8438     4436.904   -11528.748    124.22351   -390.51957   -325.07716   -1053.7962     20.04444    86.396241   -200.17963      46.7237      46.7237      46.7237           90           90           90     102002.7   -589.79766 
  979000       978493    -6468.546    668.66504    -7137.211    4394.3816   -11531.593    129.74162   -586.53535   -1118.3976   -821.79823   -57.427397    176.76198     203.5546      46.7237      46.7237      46.7237           90           90           90     102002.7   -842.24374 
  980000       979493   -6445.1695    673.55036   -7118.7199    4400.6193   -11519.339    130.68952   -724.40479   -14.177887   -511.08002    57.262643   -27.045508   -104.66589      46.7237      46.7237      46.7237           90           90           90     102002.7   -416.55423 
  981000       980493   -6475.8451    657.50001   -7133.3451    4393.8607   -11527.206    127.57526   -732.29417   -681.57664   -929.60077    21.927517    10.242124   -84.069971      46.7237      46.7237      46.7237           90           90           90     102002.7    -781.1572 
  982000       981493   -6449.2865    679.99918   -7129.2857    4409.3754   -11538.661     131.9408   -508.01341   -1034.1639   -894.16041   -104.55296    33.997207    95.862865      46.7237      46.7237      46.7237           90           90           90     102002.7   -812.11258 
  983000       982493   -6426.8303    683.92086   -7110.7512    4420.1262   -11530.877    132.70172   -526.80752   -384.22365   -465.75129   -47.225851   -36.455298    11.991721      46.7237      46.7237      46.7237           90           90           90     102002.7   -458.92749 
  984000       983493   -6439.5306    671.64896   -7111.1796    4427.1507    -11538.33    130.32059    -422.5601   -785.86876   -724.99486    158.84779    210.92293    -91.55654      46.7237      46.7237      46.7237           90           90           90     102002.7   -644.47457 
  985000       984493   -6481.9004    667.53597   -7149.4364    4394.8546   -11544.291    129.52255   -461.89331    -1124.508   -739.07606   -142.00742   -156.87237     196.9682      46.7237      46.7237      46.7237           90           90           90     102002.7   -775.15911 
  986000       985493   -6459.1509     650.7995   -7109.9504    4442.1779   -11552.128    126.27516   -816.13124   -812.58686   -895.95346   -34.918011   -98.630604   -5.4136991      46.7237      46.7237      46.7237           90           90           90     102002.7   -841.55719 
  987000       986493   -6454.5142    669.34972    -7123.864    4398.8067   -11522.671    129.87447   -838.41289    -823.5496   -1126.3345    261.76375    255.71591   -58.491516      46.7237      46.7237      46.7237           90           90           90     102002.7   -929.43232 
  988000       987493   -6442.7872    683.53016   -7126.3173     4410.656   -11536.973    132.62591   -670.98926   -206.36178   -1027.2414   -87.052359    160.79297    203.46623      46.7237      46.7237      46.7237           90           90           90     102002.7   -634.86416 
  989000       988493   -6454.1651      668.398   -7122.5631    4421.7165    -11544.28    129.68981    -802.2224   -722.83209   -564.79723   -191.63326     64.34553   -31.760771      46.7237      46.7237      46.7237           90           90           90     102002.7   -696.61724 
  990000       989493    -6451.962     679.0412   -7131.0032    4396.2736   -11527.277    131.75492   -857.35828   -627.51618   -566.12229   -74.459517    15.343369    55.934252      46.7237      46.7237      46.7237           90           90           90     102002.7   -683.66558 
  991000       990493   -6437.4213    673.05015   -7110.4714    4412.0467   -11522.518    130.59247   -75.663738   -260.22899   -585.00117    156.24537    130.94064    26.878911      46.7237      46.7237      46.7237           90           90           90     102002.7   -306.96463 
  992000       991493   -6455.6984     669.8377   -7125.5361    4412.4292   -11537.965    129.96915   -743.78193   -679.43447   -1100.0988      240.612    212.13854    144.99613      46.7237      46.7237      46.7237           90           90           90     102002.7   -841.10508 
  993000       992493   -6433.5974     667.5823   -7101.1797    4436.5156   -11537.695    129.53154   -726.97744   -598.93825   -807.64293    183.07759    11.173323    93.542708      46.7237      46.7237      46.7237           90           90           90     102002.7   -711.18621 
  994000       993493   -6469.7184      680.255   -7149.9734    4373.8752   -11523.849    131.99043   -0.7828409   -949.64817   -942.32253   -18.059421   -155.15585    157.21623      46.7237      46.7237      46.7237           90           90           90     102002.7   -630.91785 
  995000       994493   -6445.2764    666.26926   -7111.5456    4437.2558   -11548.801    129.27677   -502.30369   -847.40696   -755.19704   -82.966392    12.602569    257.01995      46.7237      46.7237      46.7237           90           90           90     102002.7    -701.6359 
  996000       995493   -6422.5546     692.6115   -7115.1661    4432.2105   -11547.377    134.38797   -626.41537    -1036.039   -974.94076   -81.141328    -155.7577    234.57574      46.7237      46.7237      46.7237           90           90           90     102002.7   -879.13171 
  997000       996493   -6460.0808    668.37572   -7128.4565    4419.7191   -11548.176    129.68548   -1304.9699   -813.76508   -867.54613    8.4440801   -267.33277    17.782472      46.7237      46.7237      46.7237           90           90           90     102002.7   -995.42704 
  998000       997493   -6459.1564    662.31356     -7121.47     4435.364   -11556.834    128.50924    -965.2606   -781.07635   -962.08936    -1.567686   -70.196085     200.8954      46.7237      46.7237      46.7237           90           90           90     102002.7   -902.80877 
  999000       998493   -6442.5429    679.25164   -7121.7945    4414.7519   -11536.546    131.79575   -1028.3077   -575.29776   -765.97118   -195.58471   -78.187489    138.32945      46.7237      46.7237      46.7237           90           90           90     102002.7   -789.85889 
 1000000       999493   -6453.7706    657.50315   -7111.2737    4428.4965    -11539.77    127.57587   -725.12854   -754.05814   -360.55994   -249.69109   -222.57759   -118.19874      46.7237      46.7237      46.7237           90           90           90     102002.7   -613.24887 
 1000507      1000000   -6475.5695    662.41144    -7137.981     4393.492   -11531.473    128.52823   -600.24874   -811.46522   -774.13161   -114.36826   -151.03317   -198.93645      46.7237      46.7237      46.7237           90           90           90     102002.7   -728.61519 
Loop time of 1430.19 on 16 procs for 500000 steps with 1730 atoms

Performance: 30.206 ns/day, 0.795 hours/ns, 349.604 timesteps/s
99.8% CPU use with 16 MPI tasks x no OpenMP threads

MPI task timing breakdown:
Section |  min time  |  avg time  |  max time  |%varavg| %total
---------------------------------------------------------------
Pair    | 555.76     | 769.26     | 981.29     | 516.4 | 53.79
Bond    | 175.43     | 183.01     | 189.47     |  30.7 | 12.80
Neigh   | 3.7098     | 3.7491     | 3.823      |   2.2 |  0.26
Comm    | 228.57     | 446.75     | 661.66     | 693.6 | 31.24
Output  | 0.096032   | 0.10129    | 0.10176    |   0.4 |  0.01
Modify  | 21.285     | 22.08      | 22.719     |  10.5 |  1.54
Other   |            | 5.242      |            |       |  0.37

Nlocal:    108.125 ave 145 max 79 min
Histogram: 3 1 0 4 2 2 0 1 2 1
Nghost:    2198.75 ave 2228 max 2157 min
Histogram: 1 0 3 0 2 1 3 2 1 3
Neighs:    11455.9 ave 17334 max 6957 min
Histogram: 2 2 3 1 1 2 2 1 1 1

Total # of neighbors = 183295
Ave neighs/atom = 105.951
Ave special neighs/atom = 6.65896
Neighbor list builds = 3288
Dangerous builds = 0
Total wall time: 0:45:20
