LAMMPS (30 Mar 2018)
Reading data file ...
  orthogonal box = (0 0 0) to (46.7237 46.7237 46.7237)
  2 by 2 by 4 MPI processor grid
  reading atoms ...
  2052 atoms
  scanning bonds ...
  5 = max bonds/atom
  scanning angles ...
  10 = max angles/atom
  scanning dihedrals ...
  32 = max dihedrals/atom
  scanning impropers ...
  3 = max impropers/atom
  reading bonds ...
  2064 bonds
  reading angles ...
  3696 angles
  reading dihedrals ...
  6240 dihedrals
  reading impropers ...
  1008 impropers
Finding 1-2 1-3 1-4 neighbors ...
  special bond factors lj:   0          0          0         
  special bond factors coul: 0          0          0         
  5 = max # of 1-2 neighbors
  8 = max # of 1-3 neighbors
  20 = max # of 1-4 neighbors
  19 = max # of special neighbors
Finding 1-2 1-3 1-4 neighbors ...
  special bond factors lj:   0          0          1         
  special bond factors coul: 1          1          1         
  5 = max # of 1-2 neighbors
  8 = max # of 1-3 neighbors
  19 = max # of special neighbors
WARNING: Using 'neigh_modify every 1 delay 0 check yes' setting during minimization (../min.cpp:168)
Neighbor list info ...
  update every 1 steps, delay 0 steps, check yes
  max neighbors/atom: 2000, page size: 100000
  master list distance cutoff = 16
  ghost atom cutoff = 16
  binsize = 8, bins = 6 6 6
  3 neighbor lists, perpetual/occasional/extra = 3 0 0
  (1) pair buck6d/coul/gauss/dsf, perpetual, skip from (3)
      attributes: half, newton on
      pair build: skip
      stencil: none
      bin: none
  (2) pair lj/cut, perpetual, skip from (3)
      attributes: half, newton on
      pair build: skip
      stencil: none
      bin: none
  (3) neighbor class addition, perpetual
      attributes: half, newton on
      pair build: half/bin/newton
      stencil: half/bin/3d/newton
      bin: standard
Setting up cg style minimization ...
  Unit style    : real
  Current step  : 0
WARNING: Inconsistent image flags (../domain.cpp:786)
Per MPI rank memory allocation (min/avg/max) = 22.91 | 23.37 | 23.81 Mbytes
Step Temp E_pair E_mol TotEng Press 
       0            0   -12555.206    6482.8914   -6072.3142    6124.5641 
     501            0   -12656.063    3730.5914   -8925.4716   -656.21536 
Loop time of 4.18584 on 16 procs for 501 steps with 2052 atoms

99.8% CPU use with 16 MPI tasks x no OpenMP threads

Minimization stats:
  Stopping criterion = max force evaluations
  Energy initial, next-to-last, final = 
        -6072.31415942     -8925.43636438     -8925.47163767
  Force two-norm initial, final = 2574.44 8.5952
  Force max component initial, final = 152.071 1.5069
  Final line search alpha, max atom move = 0.00614088 0.00925371
  Iterations, force evaluations = 501 1001

MPI task timing breakdown:
Section |  min time  |  avg time  |  max time  |%varavg| %total
---------------------------------------------------------------
Pair    | 1.5535     | 2.0252     | 2.6464     |  25.2 | 48.38
Bond    | 0.30332    | 0.377      | 0.53164    |   9.7 |  9.01
Neigh   | 0.033442   | 0.033879   | 0.034253   |   0.2 |  0.81
Comm    | 1.0397     | 1.7048     | 2.2315     |  29.3 | 40.73
Output  | 0          | 0          | 0          |   0.0 |  0.00
Modify  | 0          | 0          | 0          |   0.0 |  0.00
Other   |            | 0.04494    |            |       |  1.07

Nlocal:    128.25 ave 142 max 114 min
Histogram: 1 0 5 1 0 2 4 0 0 3
Nghost:    2498.25 ave 2512 max 2480 min
Histogram: 2 0 2 0 0 2 4 3 2 1
Neighs:    11455.7 ave 15921 max 7201 min
Histogram: 1 2 2 3 0 1 2 2 2 1

Total # of neighbors = 183291
Ave neighs/atom = 89.3231
Ave special neighs/atom = 5.61404
Neighbor list builds = 15
Dangerous builds = 0
Neighbor list info ...
  update every 1 steps, delay 10 steps, check yes
  max neighbors/atom: 2000, page size: 100000
  master list distance cutoff = 16
  ghost atom cutoff = 16
  binsize = 8, bins = 6 6 6
  3 neighbor lists, perpetual/occasional/extra = 3 0 0
  (1) pair buck6d/coul/gauss/dsf, perpetual, skip from (3)
      attributes: half, newton on
      pair build: skip
      stencil: none
      bin: none
  (2) pair lj/cut, perpetual, skip from (3)
      attributes: half, newton on
      pair build: skip
      stencil: none
      bin: none
  (3) neighbor class addition, perpetual
      attributes: half, newton on
      pair build: half/bin/newton
      stencil: half/bin/3d/newton
      bin: standard
Setting up Verlet run ...
  Unit style    : real
  Current step  : 501
  Time step     : 1
WARNING: Inconsistent image flags (../domain.cpp:786)
Per MPI rank memory allocation (min/avg/max) = 22.56 | 22.66 | 23.14 Mbytes
Step Temp PotEng TotEng Press Volume Lx Ly Lz 
     501           91   -8925.4716   -8369.1303   -406.89225     102002.7      46.7237      46.7237      46.7237 
    1000    77.742983   -8427.9882   -7952.6954   -583.13466     102002.7      46.7237      46.7237      46.7237 
    2000    96.500128   -8358.8217   -7768.8545    -582.8297     102002.7      46.7237      46.7237      46.7237 
    3000    90.844282   -8341.1654   -7785.7761   -810.57413     102002.7      46.7237      46.7237      46.7237 
    4000    89.735752   -8335.5843   -7786.9721   -313.52154     102002.7      46.7237      46.7237      46.7237 
    5000    90.842107   -8331.6725   -7776.2965   -420.42128     102002.7      46.7237      46.7237      46.7237 
    6000    90.162131   -8367.0364   -7815.8175   -618.06838     102002.7      46.7237      46.7237      46.7237 
    7000    89.582741   -8331.9959   -7784.3192   -472.49129     102002.7      46.7237      46.7237      46.7237 
    8000    89.556819    -8341.235   -7793.7168   -418.66473     102002.7      46.7237      46.7237      46.7237 
    9000    92.646746   -8347.4246   -7781.0156   -802.63421     102002.7      46.7237      46.7237      46.7237 
   10000    91.279091    -8338.124   -7780.0763   -691.19202     102002.7      46.7237      46.7237      46.7237 
   11000    91.985224   -8341.0685   -7778.7039   -605.97559     102002.7      46.7237      46.7237      46.7237 
   12000     91.81607   -8342.4538   -7781.1233   -611.09534     102002.7      46.7237      46.7237      46.7237 
   13000    92.751696   -8337.9718   -7770.9212   -840.12652     102002.7      46.7237      46.7237      46.7237 
   14000    92.007586   -8357.3525   -7794.8511   -577.45981     102002.7      46.7237      46.7237      46.7237 
   15000    91.830162   -8340.6662   -7779.2495   -925.41792     102002.7      46.7237      46.7237      46.7237 
   16000    91.965608    -8353.185   -7790.9402   -924.11237     102002.7      46.7237      46.7237      46.7237 
   17000    91.101915   -8334.4591   -7777.4946   -849.22245     102002.7      46.7237      46.7237      46.7237 
   18000    92.799347   -8330.7392   -7763.3973   -675.39219     102002.7      46.7237      46.7237      46.7237 
   19000    91.664752   -8335.3888   -7774.9833   -945.73818     102002.7      46.7237      46.7237      46.7237 
   20000    88.546959   -8345.8201   -7804.4757    -721.6891     102002.7      46.7237      46.7237      46.7237 
   21000    90.715289   -8346.5985   -7791.9977   -889.84725     102002.7      46.7237      46.7237      46.7237 
   22000    92.938136   -8338.2458   -7770.0554   -827.20644     102002.7      46.7237      46.7237      46.7237 
   23000    90.409101   -8344.9978    -7792.269   -641.20427     102002.7      46.7237      46.7237      46.7237 
   24000    88.829731   -8324.7823   -7781.7092   -491.84923     102002.7      46.7237      46.7237      46.7237 
   25000    90.196036   -8338.9801   -7787.5539   -939.01916     102002.7      46.7237      46.7237      46.7237 
   26000    93.269992   -8352.1722   -7781.9529    -651.3655     102002.7      46.7237      46.7237      46.7237 
   27000    89.431373   -8355.5859   -7808.8346   -752.14582     102002.7      46.7237      46.7237      46.7237 
   28000     92.21982   -8354.1375   -7790.3386   -504.86262     102002.7      46.7237      46.7237      46.7237 
   29000    88.895138   -8331.1992   -7787.7262   -997.23424     102002.7      46.7237      46.7237      46.7237 
   30000    89.473709   -8331.4396   -7784.4294   -854.42335     102002.7      46.7237      46.7237      46.7237 
   31000    89.639825    -8330.059   -7782.0333   -686.43391     102002.7      46.7237      46.7237      46.7237 
   32000    93.632472   -8328.3956   -7755.9603   -771.85025     102002.7      46.7237      46.7237      46.7237 
   33000     90.35813   -8330.8932    -7778.476   -782.77423     102002.7      46.7237      46.7237      46.7237 
   34000    92.187032    -8333.373   -7769.7746   -681.00035     102002.7      46.7237      46.7237      46.7237 
   35000    90.847593    -8331.866   -7776.4564   -807.98196     102002.7      46.7237      46.7237      46.7237 
   36000    86.531429   -8365.8519   -7836.8298   -664.92863     102002.7      46.7237      46.7237      46.7237 
   37000    91.080132    -8341.866   -7785.0347   -699.45682     102002.7      46.7237      46.7237      46.7237 
   38000    90.689739   -8328.2188   -7773.7743   -868.82449     102002.7      46.7237      46.7237      46.7237 
   39000    91.646511   -8338.7172   -7778.4233   -708.74771     102002.7      46.7237      46.7237      46.7237 
   40000    91.608518   -8325.5771   -7765.5155   -752.46101     102002.7      46.7237      46.7237      46.7237 
   41000    91.499485   -8351.4018   -7792.0067   -681.99886     102002.7      46.7237      46.7237      46.7237 
   42000     91.34329   -8335.8571    -7777.417   -852.21385     102002.7      46.7237      46.7237      46.7237 
   43000    91.137895   -8327.1616   -7769.9772   -692.14387     102002.7      46.7237      46.7237      46.7237 
   44000    93.118319   -8314.2998   -7745.0078   -732.23459     102002.7      46.7237      46.7237      46.7237 
   45000    91.267401   -8333.4362     -7775.46   -838.17859     102002.7      46.7237      46.7237      46.7237 
   46000     88.36761   -8346.8258   -7806.5779   -645.85142     102002.7      46.7237      46.7237      46.7237 
   47000    89.033125   -8334.1965   -7789.8799   -717.28226     102002.7      46.7237      46.7237      46.7237 
   48000    90.741171   -8321.7345   -7766.9755   -757.32648     102002.7      46.7237      46.7237      46.7237 
   49000    91.758007   -8333.2965   -7772.3209   -756.28181     102002.7      46.7237      46.7237      46.7237 
   50000    91.372807   -8322.7804   -7764.1598    -760.9714     102002.7      46.7237      46.7237      46.7237 
   51000    91.110425   -8323.3764   -7766.3599   -689.73096     102002.7      46.7237      46.7237      46.7237 
   52000    91.371703   -8329.7209   -7771.1071   -399.48249     102002.7      46.7237      46.7237      46.7237 
   53000    91.438977   -8322.3919   -7763.3668   -579.14844     102002.7      46.7237      46.7237      46.7237 
   54000    88.783003   -8336.2584    -7793.471    -826.4699     102002.7      46.7237      46.7237      46.7237 
   55000    88.067784    -8358.427   -7820.0122   -519.96792     102002.7      46.7237      46.7237      46.7237 
   56000    93.378251   -8336.0283   -7765.1471   -689.59005     102002.7      46.7237      46.7237      46.7237 
   57000    92.086844   -8353.4756   -7790.4896   -949.36677     102002.7      46.7237      46.7237      46.7237 
   58000    93.213117   -8338.0624   -7768.1908   -772.72408     102002.7      46.7237      46.7237      46.7237 
   59000    92.631918   -8340.9809   -7774.6626   -615.31092     102002.7      46.7237      46.7237      46.7237 
   60000    88.822427   -8333.8332   -7790.8047   -615.90355     102002.7      46.7237      46.7237      46.7237 
   61000    89.723772   -8339.4451   -7790.9061   -783.87904     102002.7      46.7237      46.7237      46.7237 
   62000    88.520417   -8339.1222   -7797.9401   -540.63932     102002.7      46.7237      46.7237      46.7237 
   63000    88.035595   -8328.6089   -7790.3908   -740.61071     102002.7      46.7237      46.7237      46.7237 
   64000     90.46627   -8344.5312   -7791.4528   -777.77112     102002.7      46.7237      46.7237      46.7237 
   65000    88.724329   -8346.0598   -7803.6311   -603.82131     102002.7      46.7237      46.7237      46.7237 
   66000    91.791303    -8361.982   -7800.8029   -717.22455     102002.7      46.7237      46.7237      46.7237 
   67000    89.724632   -8323.2823   -7774.7381   -830.46191     102002.7      46.7237      46.7237      46.7237 
   68000    90.926456   -8313.7626   -7757.8708   -956.30368     102002.7      46.7237      46.7237      46.7237 
   69000    89.297044   -8331.6381    -7785.708   -867.95844     102002.7      46.7237      46.7237      46.7237 
   70000    89.605689    -8317.709   -7769.8919   -709.69473     102002.7      46.7237      46.7237      46.7237 
   71000    90.036533   -8338.2221    -7787.771   -698.52633     102002.7      46.7237      46.7237      46.7237 
   72000    91.456817   -8346.7233   -7787.5891   -603.82592     102002.7      46.7237      46.7237      46.7237 
   73000    89.924419   -8341.0296   -7791.2639    -582.2095     102002.7      46.7237      46.7237      46.7237 
   74000    91.330946   -8334.0716   -7775.7069   -833.54237     102002.7      46.7237      46.7237      46.7237 
   75000    91.025796   -8342.7222   -7786.2231   -731.17846     102002.7      46.7237      46.7237      46.7237 
   76000    90.701551   -8342.0176   -7787.5009   -1095.5587     102002.7      46.7237      46.7237      46.7237 
   77000    87.994984   -8344.4003   -7806.4306   -708.03932     102002.7      46.7237      46.7237      46.7237 
   78000    92.624682   -8337.9339   -7771.6598   -843.42822     102002.7      46.7237      46.7237      46.7237 
   79000    93.019672   -8328.5413   -7759.8523   -926.34489     102002.7      46.7237      46.7237      46.7237 
   80000    90.887489   -8339.5249   -7783.8714    -864.5857     102002.7      46.7237      46.7237      46.7237 
   81000    91.793108   -8345.2469   -7784.0567   -913.69024     102002.7      46.7237      46.7237      46.7237 
   82000    86.997675   -8337.5387   -7805.6661   -928.07859     102002.7      46.7237      46.7237      46.7237 
   83000    93.397007   -8328.4071   -7757.4113   -881.76122     102002.7      46.7237      46.7237      46.7237 
   84000    93.240595    -8327.679   -7757.6394   -929.83206     102002.7      46.7237      46.7237      46.7237 
   85000    90.578389    -8330.844   -7777.0802   -604.57403     102002.7      46.7237      46.7237      46.7237 
   86000    90.172108   -8331.7894   -7780.5095   -973.56766     102002.7      46.7237      46.7237      46.7237 
   87000    91.519001   -8338.5068   -7778.9924   -796.34203     102002.7      46.7237      46.7237      46.7237 
   88000    91.363264   -8335.2955   -7776.7333   -479.23816     102002.7      46.7237      46.7237      46.7237 
   89000    90.599967   -8337.4836   -7783.5879   -740.41509     102002.7      46.7237      46.7237      46.7237 
   90000    90.720544   -8341.2741   -7786.6413   -784.36581     102002.7      46.7237      46.7237      46.7237 
   91000    93.203988    -8329.235   -7759.4193    -801.6312     102002.7      46.7237      46.7237      46.7237 
   92000    90.448604    -8352.621   -7799.6507   -716.30127     102002.7      46.7237      46.7237      46.7237 
   93000    90.236665   -8348.3012   -7796.6266   -886.49126     102002.7      46.7237      46.7237      46.7237 
   94000     89.49214   -8347.5171   -7800.3942   -868.92566     102002.7      46.7237      46.7237      46.7237 
   95000    90.910101   -8339.8827    -7784.091   -667.74256     102002.7      46.7237      46.7237      46.7237 
   96000     90.69556   -8325.6567   -7771.1766   -813.30156     102002.7      46.7237      46.7237      46.7237 
   97000    93.067204   -8349.1402   -7780.1607   -702.83782     102002.7      46.7237      46.7237      46.7237 
   98000    94.858947    -8335.082   -7755.1484   -839.25097     102002.7      46.7237      46.7237      46.7237 
   99000    94.986008   -8347.2003   -7766.4899   -904.74911     102002.7      46.7237      46.7237      46.7237 
  100000    91.158262   -8352.1963   -7794.8873   -932.82517     102002.7      46.7237      46.7237      46.7237 
  101000    90.026442   -8346.8813   -7796.4919   -1045.6524     102002.7      46.7237      46.7237      46.7237 
  102000    91.958656   -8333.5856   -7771.3834   -861.34401     102002.7      46.7237      46.7237      46.7237 
  103000    88.722629   -8343.7233    -7801.305   -920.69183     102002.7      46.7237      46.7237      46.7237 
  104000    88.551442   -8331.8207   -7790.4489    -864.6182     102002.7      46.7237      46.7237      46.7237 
  105000     92.60105   -8343.9173   -7777.7877   -1041.9258     102002.7      46.7237      46.7237      46.7237 
  106000    88.820806   -8350.6988   -7807.6803   -897.90245     102002.7      46.7237      46.7237      46.7237 
  107000    93.442641   -8350.3072   -7779.0324   -879.45453     102002.7      46.7237      46.7237      46.7237 
  108000    90.790077   -8329.9317   -7774.8737   -959.46594     102002.7      46.7237      46.7237      46.7237 
  109000    89.501943   -8343.2032   -7796.0205   -863.36035     102002.7      46.7237      46.7237      46.7237 
  110000    92.465746   -8325.6127   -7760.3103   -772.00596     102002.7      46.7237      46.7237      46.7237 
  111000    91.409642   -8334.7522   -7775.9064   -661.97342     102002.7      46.7237      46.7237      46.7237 
  112000    94.117359   -8346.0875   -7770.6877   -669.70205     102002.7      46.7237      46.7237      46.7237 
  113000     89.40667   -8342.6989   -7796.0986   -963.98576     102002.7      46.7237      46.7237      46.7237 
  114000    90.176937   -8351.1062   -7799.7968   -782.89816     102002.7      46.7237      46.7237      46.7237 
  115000    92.280217   -8338.0108   -7773.8427   -595.21972     102002.7      46.7237      46.7237      46.7237 
  116000    91.807721   -8317.8655   -7756.5861   -394.66375     102002.7      46.7237      46.7237      46.7237 
  117000    91.560858   -8323.9232   -7764.1529   -702.78544     102002.7      46.7237      46.7237      46.7237 
  118000    93.433205   -8332.8608   -7761.6437   -804.68207     102002.7      46.7237      46.7237      46.7237 
  119000    91.374175   -8330.7084   -7772.0795   -735.82576     102002.7      46.7237      46.7237      46.7237 
  120000    89.895576   -8339.6919   -7790.1026   -694.31905     102002.7      46.7237      46.7237      46.7237 
  121000    91.664417   -8340.6844    -7780.281   -433.41313     102002.7      46.7237      46.7237      46.7237 
  122000    94.972814   -8329.9841   -7749.3544   -864.61577     102002.7      46.7237      46.7237      46.7237 
  123000    91.893149   -8344.4399   -7782.6382    -695.8797     102002.7      46.7237      46.7237      46.7237 
  124000    89.230337   -8345.6636   -7800.1413   -652.67437     102002.7      46.7237      46.7237      46.7237 
  125000    92.597071   -8322.0425   -7755.9372   -882.94555     102002.7      46.7237      46.7237      46.7237 
  126000    89.229783   -8328.8148   -7783.2959   -1064.6162     102002.7      46.7237      46.7237      46.7237 
  127000    91.540582   -8313.9732   -7754.3269   -798.65135     102002.7      46.7237      46.7237      46.7237 
  128000    90.335956   -8332.9262   -7780.6446   -888.27983     102002.7      46.7237      46.7237      46.7237 
  129000    88.758608   -8341.7191   -7799.0808   -858.00443     102002.7      46.7237      46.7237      46.7237 
  130000    91.847731   -8325.6171    -7764.093   -801.91435     102002.7      46.7237      46.7237      46.7237 
  131000    90.405873   -8329.5389   -7776.8298   -710.00484     102002.7      46.7237      46.7237      46.7237 
  132000    90.879011   -8331.4916     -7775.89   -943.25192     102002.7      46.7237      46.7237      46.7237 
  133000    91.295119   -8342.7522   -7784.6066   -795.41451     102002.7      46.7237      46.7237      46.7237 
  134000    88.558552   -8340.6474   -7799.2321   -711.84332     102002.7      46.7237      46.7237      46.7237 
  135000    91.166591   -8329.4631   -7772.1032   -639.14689     102002.7      46.7237      46.7237      46.7237 
  136000     93.17243   -8316.4591   -7746.8362   -1021.7441     102002.7      46.7237      46.7237      46.7237 
  137000    90.058297   -8329.6114   -7779.0272   -791.85216     102002.7      46.7237      46.7237      46.7237 
  138000    92.208587   -8323.6003   -7759.8701   -935.19632     102002.7      46.7237      46.7237      46.7237 
  139000    90.328491   -8340.9377   -7788.7017   -777.76974     102002.7      46.7237      46.7237      46.7237 
  140000    92.541982   -8332.5811   -7766.8127   -889.73491     102002.7      46.7237      46.7237      46.7237 
  141000    91.013174    -8334.235   -7777.8131   -684.77537     102002.7      46.7237      46.7237      46.7237 
  142000    92.671942   -8337.4611   -7770.8981   -636.64206     102002.7      46.7237      46.7237      46.7237 
  143000    91.400743   -8326.2473   -7767.4559   -911.44548     102002.7      46.7237      46.7237      46.7237 
  144000    89.886635   -8343.6089   -7794.0742   -588.41312     102002.7      46.7237      46.7237      46.7237 
  145000    93.133588   -8326.7507   -7757.3654   -797.14081     102002.7      46.7237      46.7237      46.7237 
  146000    92.157112   -8318.9216    -7755.506   -652.87816     102002.7      46.7237      46.7237      46.7237 
  147000    90.792959     -8313.73   -7758.6544   -531.01432     102002.7      46.7237      46.7237      46.7237 
  148000    90.459085    -8311.743   -7758.7086   -761.17274     102002.7      46.7237      46.7237      46.7237 
  149000     90.84557   -8336.2604   -7780.8631   -460.41235     102002.7      46.7237      46.7237      46.7237 
  150000     91.07323   -8340.5822   -7783.7931   -705.53999     102002.7      46.7237      46.7237      46.7237 
  151000    90.704594   -8310.0373    -7755.502   -955.97675     102002.7      46.7237      46.7237      46.7237 
  152000    88.280084   -8355.6307   -7815.9179   -492.48086     102002.7      46.7237      46.7237      46.7237 
  153000    91.986296   -8336.6246   -7774.2534   -776.65625     102002.7      46.7237      46.7237      46.7237 
  154000    91.105379   -8326.5841   -7769.5985    -933.3363     102002.7      46.7237      46.7237      46.7237 
  155000    89.495179   -8348.1113   -7800.9698   -598.04542     102002.7      46.7237      46.7237      46.7237 
  156000    91.153339   -8334.9599   -7777.6811   -771.90765     102002.7      46.7237      46.7237      46.7237 
  157000    93.904866    -8333.591   -7759.4903    -976.3998     102002.7      46.7237      46.7237      46.7237 
  158000    89.859861   -8342.5819   -7793.2109   -851.60809     102002.7      46.7237      46.7237      46.7237 
  159000    94.432318   -8324.5982   -7747.2728   -837.66144     102002.7      46.7237      46.7237      46.7237 
  160000    92.528141   -8341.5838      -7775.9   -1018.8933     102002.7      46.7237      46.7237      46.7237 
  161000    88.478627   -8344.2278   -7803.3012   -798.97113     102002.7      46.7237      46.7237      46.7237 
  162000    88.949887   -8324.2168   -7780.4091   -1123.2694     102002.7      46.7237      46.7237      46.7237 
  163000    91.941461   -8336.1618   -7774.0646   -1040.0478     102002.7      46.7237      46.7237      46.7237 
  164000    90.543487   -8326.9074   -7773.3569   -1086.1304     102002.7      46.7237      46.7237      46.7237 
  165000    88.116731    -8329.228   -7790.5139   -994.20599     102002.7      46.7237      46.7237      46.7237 
  166000    90.722445   -8340.2271   -7785.5826   -1189.0129     102002.7      46.7237      46.7237      46.7237 
  167000     89.78514   -8329.0668   -7780.1526   -1375.2386     102002.7      46.7237      46.7237      46.7237 
  168000     91.29949   -8325.0993   -7766.9269   -869.23399     102002.7      46.7237      46.7237      46.7237 
  169000    89.135242   -8334.2952   -7789.3543   -754.75387     102002.7      46.7237      46.7237      46.7237 
  170000    92.604512   -8325.9264   -7759.7756   -835.42477     102002.7      46.7237      46.7237      46.7237 
  171000    89.727375   -8327.0384   -7778.4774   -731.14574     102002.7      46.7237      46.7237      46.7237 
  172000    89.718671   -8324.8178     -7776.31   -643.74774     102002.7      46.7237      46.7237      46.7237 
  173000    89.623749   -8335.4966   -7787.5691   -859.65324     102002.7      46.7237      46.7237      46.7237 
  174000    93.437068   -8339.7349   -7768.4942   -853.80243     102002.7      46.7237      46.7237      46.7237 
  175000     91.48532   -8341.1519   -7781.8435   -688.06228     102002.7      46.7237      46.7237      46.7237 
  176000    90.806056   -8336.5162   -7781.3606   -558.51109     102002.7      46.7237      46.7237      46.7237 
  177000    91.485141   -8348.4664   -7789.1591   -466.20567     102002.7      46.7237      46.7237      46.7237 
  178000    89.989443   -8320.4925   -7770.3293   -758.95255     102002.7      46.7237      46.7237      46.7237 
  179000    92.795019   -8325.3956   -7758.0802   -662.76917     102002.7      46.7237      46.7237      46.7237 
  180000     90.21294    -8344.351   -7792.8214    -635.0571     102002.7      46.7237      46.7237      46.7237 
  181000    90.351503   -8328.6354   -7776.2587   -541.03717     102002.7      46.7237      46.7237      46.7237 
  182000    91.621573   -8325.3434    -7765.202   -420.78588     102002.7      46.7237      46.7237      46.7237 
  183000     92.18873   -8333.3475   -7769.7386   -860.97715     102002.7      46.7237      46.7237      46.7237 
  184000    93.225639   -8314.0289   -7744.0808    -608.6869     102002.7      46.7237      46.7237      46.7237 
  185000     91.48623   -8330.9724   -7771.6584   -665.37977     102002.7      46.7237      46.7237      46.7237 
  186000    92.542946   -8317.7519   -7751.9776   -879.05225     102002.7      46.7237      46.7237      46.7237 
  187000    92.431164   -8324.9536   -7759.8626   -935.14594     102002.7      46.7237      46.7237      46.7237 
  188000     94.16883   -8339.9527   -7764.2382   -921.07725     102002.7      46.7237      46.7237      46.7237 
  189000      91.1008   -8332.0681   -7775.1105   -672.68547     102002.7      46.7237      46.7237      46.7237 
  190000     89.03592   -8331.7189   -7787.3852   -960.27507     102002.7      46.7237      46.7237      46.7237 
  191000    89.926397   -8303.2157   -7753.4379    -866.6772     102002.7      46.7237      46.7237      46.7237 
  192000    90.835136   -8337.2597   -7781.9263   -618.26552     102002.7      46.7237      46.7237      46.7237 
  193000    89.201687    -8322.217   -7776.8699   -1204.3309     102002.7      46.7237      46.7237      46.7237 
  194000    90.895549   -8344.5472   -7788.8444   -960.38909     102002.7      46.7237      46.7237      46.7237 
  195000    90.167722   -8346.6488   -7795.3957    -1217.419     102002.7      46.7237      46.7237      46.7237 
  196000    89.524648    -8317.931   -7770.6094   -1021.6457     102002.7      46.7237      46.7237      46.7237 
  197000    89.963885   -8320.3331   -7770.3262   -1043.0234     102002.7      46.7237      46.7237      46.7237 
  198000    90.510858   -8336.1203   -7782.7693   -899.06707     102002.7      46.7237      46.7237      46.7237 
  199000    91.888017   -8338.8357   -7777.0653   -853.92905     102002.7      46.7237      46.7237      46.7237 
  200000    89.775443   -8342.4132   -7793.5584   -829.13296     102002.7      46.7237      46.7237      46.7237 
  201000    88.641195   -8317.2755    -7775.355   -1114.9915     102002.7      46.7237      46.7237      46.7237 
  202000    92.942121   -8340.0216   -7771.8068   -836.46097     102002.7      46.7237      46.7237      46.7237 
  203000    89.948628   -8338.0515   -7788.1378   -874.99764     102002.7      46.7237      46.7237      46.7237 
  204000    86.842472    -8339.964   -7809.0402   -748.06666     102002.7      46.7237      46.7237      46.7237 
  205000    91.377182   -8330.0405   -7771.3931   -1044.9626     102002.7      46.7237      46.7237      46.7237 
  206000    94.624396   -8339.2421   -7760.7424   -762.42965     102002.7      46.7237      46.7237      46.7237 
  207000    87.351021   -8318.5837   -7784.5509   -819.46375     102002.7      46.7237      46.7237      46.7237 
  208000    90.575993    -8328.378   -7774.6288   -935.22383     102002.7      46.7237      46.7237      46.7237 
  209000    92.410753   -8334.4931   -7769.5269   -908.52598     102002.7      46.7237      46.7237      46.7237 
  210000    90.665695   -8332.8368   -7778.5393   -829.26215     102002.7      46.7237      46.7237      46.7237 
  211000    92.553811    -8319.073   -7753.2321    -873.6299     102002.7      46.7237      46.7237      46.7237 
  212000    91.682844   -8329.9619   -7769.4458    -1010.677     102002.7      46.7237      46.7237      46.7237 
  213000    91.490495   -8342.1914   -7782.8513   -808.29017     102002.7      46.7237      46.7237      46.7237 
  214000    90.077797   -8326.9944   -7776.2911   -801.92193     102002.7      46.7237      46.7237      46.7237 
  215000    90.287385   -8327.9179   -7775.9332   -817.76802     102002.7      46.7237      46.7237      46.7237 
  216000    89.797958   -8340.2623   -7791.2697   -1004.7066     102002.7      46.7237      46.7237      46.7237 
  217000    91.237999   -8340.6794   -7782.8829   -934.94051     102002.7      46.7237      46.7237      46.7237 
  218000    89.615796   -8338.4865   -7790.6076   -981.02146     102002.7      46.7237      46.7237      46.7237 
  219000    92.981641   -8321.1123   -7752.6559   -830.42386     102002.7      46.7237      46.7237      46.7237 
  220000    89.191892   -8329.1737   -7783.8865   -974.44175     102002.7      46.7237      46.7237      46.7237 
  221000    91.370143   -8349.2603    -7790.656   -670.89453     102002.7      46.7237      46.7237      46.7237 
  222000    92.369455   -8322.8391   -7758.1254   -720.47027     102002.7      46.7237      46.7237      46.7237 
  223000    89.304465   -8326.8712   -7780.8957   -938.09717     102002.7      46.7237      46.7237      46.7237 
  224000    93.367028   -8345.3619   -7774.5494   -636.41428     102002.7      46.7237      46.7237      46.7237 
  225000    87.851963   -8342.5691   -7805.4737   -747.55801     102002.7      46.7237      46.7237      46.7237 
  226000    89.659698   -8329.4604   -7781.3131   -546.19648     102002.7      46.7237      46.7237      46.7237 
  227000    90.007706   -8325.3813   -7775.1065   -639.02628     102002.7      46.7237      46.7237      46.7237 
  228000    89.652303   -8347.4627   -7799.3606   -780.62031     102002.7      46.7237      46.7237      46.7237 
  229000    91.851104   -8331.4294   -7769.8847   -805.82867     102002.7      46.7237      46.7237      46.7237 
  230000    89.143102   -8349.3577   -7804.3688   -871.81431     102002.7      46.7237      46.7237      46.7237 
  231000    89.545416   -8314.8568   -7767.4082   -668.46736     102002.7      46.7237      46.7237      46.7237 
  232000    90.812854   -8323.1917   -7767.9945   -903.59263     102002.7      46.7237      46.7237      46.7237 
  233000     89.43717   -8325.6881   -7778.9013   -774.08991     102002.7      46.7237      46.7237      46.7237 
  234000    92.078468   -8333.2588   -7770.3241   -622.33615     102002.7      46.7237      46.7237      46.7237 
  235000    90.804931   -8329.4143   -7774.2655   -835.57648     102002.7      46.7237      46.7237      46.7237 
  236000    90.628422   -8311.6396   -7757.5699   -603.85643     102002.7      46.7237      46.7237      46.7237 
  237000    89.990394   -8316.1655   -7765.9965   -797.99666     102002.7      46.7237      46.7237      46.7237 
  238000      91.7264   -8339.0054   -7778.2231   -816.23712     102002.7      46.7237      46.7237      46.7237 
  239000    89.740113   -8326.8282   -7778.1893   -659.40206     102002.7      46.7237      46.7237      46.7237 
  240000    90.429631   -8339.8785   -7787.0242   -951.69145     102002.7      46.7237      46.7237      46.7237 
  241000    92.043146    -8343.912   -7781.1932   -721.09769     102002.7      46.7237      46.7237      46.7237 
  242000     91.43594   -8334.7409   -7775.7343   -830.95638     102002.7      46.7237      46.7237      46.7237 
  243000     93.25887   -8324.1938   -7754.0425   -911.96947     102002.7      46.7237      46.7237      46.7237 
  244000    91.367395   -8329.7783   -7771.1909   -440.22764     102002.7      46.7237      46.7237      46.7237 
  245000    89.846932   -8319.3831   -7770.0912   -863.40012     102002.7      46.7237      46.7237      46.7237 
  246000    90.800117   -8318.9499   -7763.8306    -684.8532     102002.7      46.7237      46.7237      46.7237 
  247000    93.120343   -8349.2057   -7779.9013   -573.32548     102002.7      46.7237      46.7237      46.7237 
  248000    91.349732   -8316.3206   -7757.8411   -770.67083     102002.7      46.7237      46.7237      46.7237 
  249000    92.987268   -8320.5382   -7752.0474   -534.58045     102002.7      46.7237      46.7237      46.7237 
  250000    90.240227   -8306.3272   -7754.6308   -694.88106     102002.7      46.7237      46.7237      46.7237 
  251000    93.372976    -8352.428   -7781.5791   -758.16619     102002.7      46.7237      46.7237      46.7237 
  252000    90.432766   -8328.6492   -7775.7757   -1055.1138     102002.7      46.7237      46.7237      46.7237 
  253000    90.544355   -8333.4817    -7779.926   -875.46321     102002.7      46.7237      46.7237      46.7237 
  254000    91.397706   -8338.7335   -7779.9607   -901.70773     102002.7      46.7237      46.7237      46.7237 
  255000    89.427618   -8323.9245   -7777.1961   -954.42482     102002.7      46.7237      46.7237      46.7237 
  256000    91.425421   -8325.5461   -7766.6038   -805.50106     102002.7      46.7237      46.7237      46.7237 
  257000    91.709146   -8329.4986   -7768.8218   -883.97949     102002.7      46.7237      46.7237      46.7237 
  258000    88.758985   -8319.8108   -7777.1701   -905.18532     102002.7      46.7237      46.7237      46.7237 
  259000    90.161517   -8319.5406   -7768.3254   -762.24459     102002.7      46.7237      46.7237      46.7237 
  260000     91.47179    -8335.825   -7776.5993   -915.57307     102002.7      46.7237      46.7237      46.7237 
  261000    93.855558   -8310.9852    -7737.186   -913.10546     102002.7      46.7237      46.7237      46.7237 
  262000    91.076726   -8331.0844    -7774.274   -939.21481     102002.7      46.7237      46.7237      46.7237 
  263000    89.319023   -8318.9709   -7772.9065   -657.26621     102002.7      46.7237      46.7237      46.7237 
  264000      91.5407   -8316.6797   -7757.0326   -429.24616     102002.7      46.7237      46.7237      46.7237 
  265000    89.849175   -8338.2154   -7788.9098   -770.49817     102002.7      46.7237      46.7237      46.7237 
  266000    88.843779   -8330.3905   -7787.2315   -653.14112     102002.7      46.7237      46.7237      46.7237 
  267000    88.725112   -8331.2447   -7788.8112   -752.07376     102002.7      46.7237      46.7237      46.7237 
  268000    90.152406   -8340.4874   -7789.3279   -829.74489     102002.7      46.7237      46.7237      46.7237 
  269000    87.822126   -8318.2976   -7781.3846   -823.05362     102002.7      46.7237      46.7237      46.7237 
  270000    90.068007   -8330.3009   -7779.6574   -763.70721     102002.7      46.7237      46.7237      46.7237 
  271000    90.993912   -8324.1679   -7767.8638   -992.15664     102002.7      46.7237      46.7237      46.7237 
  272000    95.185521   -8328.8886   -7746.9585    -818.6456     102002.7      46.7237      46.7237      46.7237 
  273000     93.70336      -8337.1   -7764.2312   -613.22585     102002.7      46.7237      46.7237      46.7237 
  274000    92.926158   -8324.5446   -7756.4274   -669.46955     102002.7      46.7237      46.7237      46.7237 
  275000    91.789793   -8344.0621   -7782.8923   -724.95619     102002.7      46.7237      46.7237      46.7237 
  276000    92.200948   -8325.5711   -7761.8875   -720.78815     102002.7      46.7237      46.7237      46.7237 
  277000    92.575392   -8338.8796   -7772.9069   -737.96953     102002.7      46.7237      46.7237      46.7237 
  278000    90.085657   -8317.5466   -7766.7952   -550.46996     102002.7      46.7237      46.7237      46.7237 
  279000    90.797039   -8349.9849   -7794.8843   -778.47183     102002.7      46.7237      46.7237      46.7237 
  280000     91.80433    -8337.543   -7776.2842   -704.30489     102002.7      46.7237      46.7237      46.7237 
  281000    94.325562   -8330.5504   -7753.8778   -448.64196     102002.7      46.7237      46.7237      46.7237 
  282000    92.560292   -8342.5387   -7776.6582   -448.43304     102002.7      46.7237      46.7237      46.7237 
  283000    89.982873   -8343.5631   -7793.4401   -567.96229     102002.7      46.7237      46.7237      46.7237 
  284000    88.872344   -8313.0592   -7769.7255   -432.95274     102002.7      46.7237      46.7237      46.7237 
  285000    89.616434   -8332.3191   -7784.4363   -696.72493     102002.7      46.7237      46.7237      46.7237 
  286000    93.666095   -8326.4467   -7753.8057   -735.86659     102002.7      46.7237      46.7237      46.7237 
  287000    89.847939   -8331.3305   -7782.0324   -667.30976     102002.7      46.7237      46.7237      46.7237 
  288000    90.291287   -8320.6062   -7768.5976   -830.62606     102002.7      46.7237      46.7237      46.7237 
  289000    90.951666   -8338.5466   -7782.5008   -668.12344     102002.7      46.7237      46.7237      46.7237 
  290000    90.355469   -8335.6148   -7783.2139   -929.46799     102002.7      46.7237      46.7237      46.7237 
  291000     89.62432   -8324.3135   -7776.3825   -918.10864     102002.7      46.7237      46.7237      46.7237 
  292000    90.991108   -8314.6054   -7758.3184   -901.26339     102002.7      46.7237      46.7237      46.7237 
  293000    91.333336    -8316.277   -7757.8977   -721.62611     102002.7      46.7237      46.7237      46.7237 
  294000    89.910296   -8349.4506   -7799.7713   -1132.1228     102002.7      46.7237      46.7237      46.7237 
  295000    88.506557   -8328.0952   -7786.9978   -1092.6175     102002.7      46.7237      46.7237      46.7237 
  296000    90.387181   -8322.0545   -7769.4597   -770.19752     102002.7      46.7237      46.7237      46.7237 
  297000    90.797774   -8346.8831    -7791.778   -810.29916     102002.7      46.7237      46.7237      46.7237 
  298000    90.782319   -8325.7823   -7770.7718   -635.05654     102002.7      46.7237      46.7237      46.7237 
  299000    87.296038   -8350.7942   -7817.0975   -683.98134     102002.7      46.7237      46.7237      46.7237 
  300000    90.108649   -8330.4221   -7779.5302   -813.38456     102002.7      46.7237      46.7237      46.7237 
  301000    92.767577   -8330.2655   -7763.1178   -853.04128     102002.7      46.7237      46.7237      46.7237 
  302000    90.115065   -8344.7023   -7793.7711   -836.87709     102002.7      46.7237      46.7237      46.7237 
  303000    91.414528   -8323.8141   -7764.9384   -747.72722     102002.7      46.7237      46.7237      46.7237 
  304000    90.214542   -8362.0675   -7810.5282     -616.061     102002.7      46.7237      46.7237      46.7237 
  305000    92.390872   -8327.8784   -7763.0338     -731.652     102002.7      46.7237      46.7237      46.7237 
  306000    90.990233   -8349.5251   -7793.2434   -652.54075     102002.7      46.7237      46.7237      46.7237 
  307000    90.395945   -8326.1821   -7773.5337   -639.27546     102002.7      46.7237      46.7237      46.7237 
  308000    89.330905   -8331.6362   -7785.4991   -896.81343     102002.7      46.7237      46.7237      46.7237 
  309000    88.590209   -8347.9811   -7806.3723   -766.50622     102002.7      46.7237      46.7237      46.7237 
  310000    90.756145   -8325.1563   -7770.3058   -661.71785     102002.7      46.7237      46.7237      46.7237 
  311000    92.912494   -8329.5362   -7761.5025   -727.95668     102002.7      46.7237      46.7237      46.7237 
  312000    92.782407   -8324.0243   -7756.7859   -733.64065     102002.7      46.7237      46.7237      46.7237 
  313000    92.334628   -8339.1638    -7774.663   -472.67399     102002.7      46.7237      46.7237      46.7237 
  314000     90.36642    -8313.253   -7760.7851   -853.96748     102002.7      46.7237      46.7237      46.7237 
  315000    91.942766    -8322.503   -7760.3979   -595.95453     102002.7      46.7237      46.7237      46.7237 
  316000    90.099889   -8326.4365   -7775.5981   -822.35924     102002.7      46.7237      46.7237      46.7237 
  317000    90.194697   -8322.6677   -7771.2497   -832.92294     102002.7      46.7237      46.7237      46.7237 
  318000    91.675205   -8349.1045   -7788.6352   -678.74793     102002.7      46.7237      46.7237      46.7237 
  319000    90.705178     -8318.81   -7764.2711   -972.13708     102002.7      46.7237      46.7237      46.7237 
  320000    89.790088   -8320.2347   -7771.2903   -1215.4758     102002.7      46.7237      46.7237      46.7237 
  321000    90.168238   -8317.8264   -7766.5701   -1039.2687     102002.7      46.7237      46.7237      46.7237 
  322000    87.667505   -8331.0619   -7795.0942   -941.84883     102002.7      46.7237      46.7237      46.7237 
  323000    89.660858   -8327.5565   -7779.4022   -768.70563     102002.7      46.7237      46.7237      46.7237 
  324000    94.537459   -8338.6365   -7760.6684   -714.43813     102002.7      46.7237      46.7237      46.7237 
  325000    91.228676   -8307.2367   -7749.4973   -799.72408     102002.7      46.7237      46.7237      46.7237 
  326000    92.468901   -8337.4419   -7772.1202   -993.23424     102002.7      46.7237      46.7237      46.7237 
  327000     90.67392   -8348.2079   -7793.8601   -651.82902     102002.7      46.7237      46.7237      46.7237 
  328000     89.95242   -8331.6893   -7781.7525   -726.46156     102002.7      46.7237      46.7237      46.7237 
  329000    90.335319   -8342.5534   -7790.2757   -1004.1184     102002.7      46.7237      46.7237      46.7237 
  330000    94.378733    -8328.641   -7751.6433   -665.25095     102002.7      46.7237      46.7237      46.7237 
  331000    92.106157    -8345.175   -7782.0709   -695.73771     102002.7      46.7237      46.7237      46.7237 
  332000     88.84388   -8326.3846    -7783.225   -717.30475     102002.7      46.7237      46.7237      46.7237 
  333000    86.653586   -8328.9524   -7799.1835   -626.63204     102002.7      46.7237      46.7237      46.7237 
  334000    90.332116   -8333.4441    -7781.186    -847.5735     102002.7      46.7237      46.7237      46.7237 
  335000    89.236161   -8345.2143   -7799.6564   -594.32462     102002.7      46.7237      46.7237      46.7237 
  336000    90.226037   -8347.9891   -7796.3794    -861.5703     102002.7      46.7237      46.7237      46.7237 
  337000    91.423761   -8328.4999   -7769.5678   -1104.6306     102002.7      46.7237      46.7237      46.7237 
  338000    90.154216   -8324.1142   -7772.9437   -753.73425     102002.7      46.7237      46.7237      46.7237 
  339000     93.48835   -8342.2204   -7770.6662   -778.81739     102002.7      46.7237      46.7237      46.7237 
  340000    91.361823   -8341.2906   -7782.7372   -773.77504     102002.7      46.7237      46.7237      46.7237 
  341000    91.299883   -8343.2233   -7785.0486   -1035.3137     102002.7      46.7237      46.7237      46.7237 
  342000    91.635139   -8350.3873   -7790.1629   -768.97335     102002.7      46.7237      46.7237      46.7237 
  343000    91.293155   -8332.9972   -7774.8636   -462.54197     102002.7      46.7237      46.7237      46.7237 
  344000    92.929061   -8348.4288   -7780.2938   -763.71241     102002.7      46.7237      46.7237      46.7237 
  345000    89.491864   -8347.4515   -7800.3303    -580.7539     102002.7      46.7237      46.7237      46.7237 
  346000    93.390194   -8344.2888   -7773.3347   -857.87212     102002.7      46.7237      46.7237      46.7237 
  347000    92.987493   -8336.2274   -7767.7352    -847.5142     102002.7      46.7237      46.7237      46.7237 
  348000    88.487875   -8333.1312   -7792.1481    -463.5456     102002.7      46.7237      46.7237      46.7237 
  349000    92.303248   -8329.6056   -7765.2966   -1041.0805     102002.7      46.7237      46.7237      46.7237 
  350000    91.274934   -8347.6538   -7789.6316   -759.39032     102002.7      46.7237      46.7237      46.7237 
  351000    88.764879   -8325.5713   -7782.8947   -900.10187     102002.7      46.7237      46.7237      46.7237 
  352000    91.101975   -8336.1262   -7779.1613    -845.5737     102002.7      46.7237      46.7237      46.7237 
  353000    91.745667   -8353.7781    -7792.878     -994.069     102002.7      46.7237      46.7237      46.7237 
  354000    91.273108    -8323.291     -7765.28   -1087.9928     102002.7      46.7237      46.7237      46.7237 
  355000    93.832992    -8321.859   -7748.1978   -666.48215     102002.7      46.7237      46.7237      46.7237 
  356000    92.185801   -8348.2072   -7784.6163   -901.72318     102002.7      46.7237      46.7237      46.7237 
  357000    87.548318   -8320.2362   -7784.9971   -774.25962     102002.7      46.7237      46.7237      46.7237 
  358000    92.803269    -8343.099   -7775.7331   -780.06941     102002.7      46.7237      46.7237      46.7237 
  359000    91.497956   -8345.9841   -7786.5984   -718.52112     102002.7      46.7237      46.7237      46.7237 
  360000     90.09593   -8329.1738   -7778.3596   -916.11353     102002.7      46.7237      46.7237      46.7237 
  361000     94.47756   -8323.2302   -7745.6282   -758.89271     102002.7      46.7237      46.7237      46.7237 
  362000    87.901548   -8332.9633   -7795.5647   -642.06282     102002.7      46.7237      46.7237      46.7237 
  363000    88.755405   -8336.2197    -7793.601   -980.79727     102002.7      46.7237      46.7237      46.7237 
  364000    94.172707   -8331.7727   -7756.0346   -961.41405     102002.7      46.7237      46.7237      46.7237 
  365000    91.432684   -8339.0646    -7780.078   -967.44836     102002.7      46.7237      46.7237      46.7237 
  366000    89.047239   -8337.6899    -7793.287   -983.21848     102002.7      46.7237      46.7237      46.7237 
  367000    91.307159     -8311.95   -7753.7308   -639.36482     102002.7      46.7237      46.7237      46.7237 
  368000    89.870976    -8337.722   -7788.2831   -793.83125     102002.7      46.7237      46.7237      46.7237 
  369000    89.683222   -8336.1679   -7787.8768   -777.13401     102002.7      46.7237      46.7237      46.7237 
  370000    92.760442   -8321.0985   -7753.9945   -932.16113     102002.7      46.7237      46.7237      46.7237 
  371000    94.610152   -8333.2271   -7754.8146   -719.19179     102002.7      46.7237      46.7237      46.7237 
  372000    89.623043   -8328.1403   -7780.2172   -822.52919     102002.7      46.7237      46.7237      46.7237 
  373000    93.235607   -8317.3191   -7747.3101   -594.29555     102002.7      46.7237      46.7237      46.7237 
  374000     88.70368   -8312.2688   -7769.9663   -742.36575     102002.7      46.7237      46.7237      46.7237 
  375000    90.674576   -8331.0927   -7776.7409   -654.16592     102002.7      46.7237      46.7237      46.7237 
  376000     90.46715   -8332.8603   -7779.7765   -851.88532     102002.7      46.7237      46.7237      46.7237 
  377000    90.667754   -8335.4075   -7781.0973   -771.17912     102002.7      46.7237      46.7237      46.7237 
  378000    91.757162   -8322.9836   -7762.0132   -973.64357     102002.7      46.7237      46.7237      46.7237 
  379000    90.189069   -8324.1748   -7772.7912    -711.7941     102002.7      46.7237      46.7237      46.7237 
  380000    91.205648   -8313.6089   -7756.0103   -645.59977     102002.7      46.7237      46.7237      46.7237 
  381000    93.905144   -8352.1363    -7778.034   -1042.9902     102002.7      46.7237      46.7237      46.7237 
  382000    93.318274   -8318.6007   -7748.0862   -646.01525     102002.7      46.7237      46.7237      46.7237 
  383000    91.289079   -8323.0341   -7764.9254   -735.39166     102002.7      46.7237      46.7237      46.7237 
  384000    90.945857   -8341.5751   -7785.5647   -991.78602     102002.7      46.7237      46.7237      46.7237 
  385000    89.394896   -8323.4052   -7776.8768   -672.30252     102002.7      46.7237      46.7237      46.7237 
  386000    91.183003   -8349.1244   -7791.6642   -827.38395     102002.7      46.7237      46.7237      46.7237 
  387000    92.650852   -8344.4096   -7777.9755   -802.85393     102002.7      46.7237      46.7237      46.7237 
  388000    88.634337   -8357.6261   -7815.7476   -705.25643     102002.7      46.7237      46.7237      46.7237 
  389000    91.033834   -8328.2814   -7771.7332   -700.30076     102002.7      46.7237      46.7237      46.7237 
  390000    91.995117   -8343.6793   -7781.2541   -490.85873     102002.7      46.7237      46.7237      46.7237 
  391000    89.807147   -8317.0099   -7767.9612   -699.45661     102002.7      46.7237      46.7237      46.7237 
  392000    92.921406   -8332.3737   -7764.2856   -629.35296     102002.7      46.7237      46.7237      46.7237 
  393000    92.153128   -8349.3687   -7785.9775   -449.45523     102002.7      46.7237      46.7237      46.7237 
  394000    91.174153   -8351.2135   -7793.8074   -400.37338     102002.7      46.7237      46.7237      46.7237 
  395000    93.193873   -8319.7734   -7750.0194   -634.39365     102002.7      46.7237      46.7237      46.7237 
  396000    90.246511   -8329.6196   -7777.8848   -462.82735     102002.7      46.7237      46.7237      46.7237 
  397000    90.249036   -8336.7513   -7785.0011     -616.305     102002.7      46.7237      46.7237      46.7237 
  398000    91.837012   -8324.8641   -7763.4055   -750.57965     102002.7      46.7237      46.7237      46.7237 
  399000    88.722552   -8352.9725   -7810.5546   -878.76053     102002.7      46.7237      46.7237      46.7237 
  400000    89.470232    -8334.535   -7787.5461   -767.98184     102002.7      46.7237      46.7237      46.7237 
  401000    90.114894   -8327.7644   -7776.8342    -800.8391     102002.7      46.7237      46.7237      46.7237 
  402000    91.237516   -8337.6093   -7779.8159   -984.18458     102002.7      46.7237      46.7237      46.7237 
  403000    93.319335    -8338.981   -7768.4601   -1136.5417     102002.7      46.7237      46.7237      46.7237 
  404000    89.839518   -8339.9373   -7790.6907   -779.90781     102002.7      46.7237      46.7237      46.7237 
  405000    91.932771   -8340.0755   -7778.0315   -595.49515     102002.7      46.7237      46.7237      46.7237 
  406000    92.866582   -8344.1197   -7776.3667   -571.65688     102002.7      46.7237      46.7237      46.7237 
  407000    88.169201   -8358.3292   -7819.2943   -832.97538     102002.7      46.7237      46.7237      46.7237 
  408000    87.751839   -8327.5079   -7791.0246   -862.31139     102002.7      46.7237      46.7237      46.7237 
  409000     91.50586    -8334.651   -7775.2169   -570.34526     102002.7      46.7237      46.7237      46.7237 
  410000    92.598263   -8325.4672   -7759.3546   -787.69317     102002.7      46.7237      46.7237      46.7237 
  411000    93.279948   -8312.5847   -7742.3045    -878.6259     102002.7      46.7237      46.7237      46.7237 
  412000    90.649555   -8337.4895   -7783.2906   -795.22512     102002.7      46.7237      46.7237      46.7237 
  413000    92.571436   -8344.0368   -7778.0882   -763.87457     102002.7      46.7237      46.7237      46.7237 
  414000    88.820396   -8335.4694   -7792.4534   -718.22679     102002.7      46.7237      46.7237      46.7237 
  415000    89.555841    -8321.296   -7773.7837   -780.68905     102002.7      46.7237      46.7237      46.7237 
  416000    90.423908   -8334.8787   -7782.0594   -646.42288     102002.7      46.7237      46.7237      46.7237 
  417000    92.989784   -8332.4082    -7763.902   -477.73395     102002.7      46.7237      46.7237      46.7237 
  418000    91.429198   -8334.9186   -7775.9532   -683.69995     102002.7      46.7237      46.7237      46.7237 
  419000    92.073078   -8327.5309   -7764.6291   -509.33621     102002.7      46.7237      46.7237      46.7237 
  420000    88.680861   -8317.5469   -7775.3839   -768.87089     102002.7      46.7237      46.7237      46.7237 
  421000    90.343496   -8317.4963   -7765.1686   -831.08051     102002.7      46.7237      46.7237      46.7237 
  422000    92.356761   -8327.9457   -7763.3096   -547.41668     102002.7      46.7237      46.7237      46.7237 
  423000     89.46983   -8353.0122   -7806.0257   -744.06015     102002.7      46.7237      46.7237      46.7237 
  424000    92.012326   -8333.7541   -7771.2237   -641.95664     102002.7      46.7237      46.7237      46.7237 
  425000    88.234268   -8343.9756    -7804.543   -710.56582     102002.7      46.7237      46.7237      46.7237 
  426000    93.754916   -8352.0318   -7778.8479   -808.36705     102002.7      46.7237      46.7237      46.7237 
  427000    92.968458   -8334.6145   -7766.2387   -826.68358     102002.7      46.7237      46.7237      46.7237 
  428000    91.846977    -8333.545   -7772.0255   -689.01918     102002.7      46.7237      46.7237      46.7237 
  429000    93.297936   -8340.9197   -7770.5296   -600.32625     102002.7      46.7237      46.7237      46.7237 
  430000    95.610257   -8343.2964   -7758.7695    -617.3315     102002.7      46.7237      46.7237      46.7237 
  431000     91.59726   -8338.2032   -7778.2104   -542.48848     102002.7      46.7237      46.7237      46.7237 
  432000     85.26416    -8336.625   -7815.3505   -620.21883     102002.7      46.7237      46.7237      46.7237 
  433000    88.748773   -8332.4115   -7789.8333   -709.49121     102002.7      46.7237      46.7237      46.7237 
  434000    92.579297   -8336.7676    -7770.771   -638.04366     102002.7      46.7237      46.7237      46.7237 
  435000    93.049857   -8314.0945    -7745.221   -593.89349     102002.7      46.7237      46.7237      46.7237 
  436000    92.176193   -8339.5957   -7776.0635   -562.47839     102002.7      46.7237      46.7237      46.7237 
  437000    95.534606   -8331.9672   -7747.9029   -460.77583     102002.7      46.7237      46.7237      46.7237 
  438000    92.452573    -8338.321   -7773.0991   -672.58127     102002.7      46.7237      46.7237      46.7237 
  439000    89.080142   -8331.7758   -7787.1717   -494.36479     102002.7      46.7237      46.7237      46.7237 
  440000    93.232301   -8333.0306   -7763.0417   -183.28582     102002.7      46.7237      46.7237      46.7237 
  441000    92.525279   -8330.2958   -7764.6294   -647.23244     102002.7      46.7237      46.7237      46.7237 
  442000    89.076693   -8322.7167   -7778.1337   -689.81373     102002.7      46.7237      46.7237      46.7237 
  443000    91.964554   -8322.1976   -7759.9593   -584.23135     102002.7      46.7237      46.7237      46.7237 
  444000    90.111162   -8339.6698   -7788.7625   -605.19151     102002.7      46.7237      46.7237      46.7237 
  445000    89.099215   -8334.0525   -7789.3318    -634.4842     102002.7      46.7237      46.7237      46.7237 
  446000    89.015843   -8307.5788   -7763.3678   -666.20575     102002.7      46.7237      46.7237      46.7237 
  447000    87.327664   -8326.7153   -7792.8253   -773.46899     102002.7      46.7237      46.7237      46.7237 
  448000     93.12247   -8319.4052   -7750.0878   -818.12337     102002.7      46.7237      46.7237      46.7237 
  449000    93.481984   -8334.9237   -7763.4083    -791.8855     102002.7      46.7237      46.7237      46.7237 
  450000    89.290975   -8325.3155   -7779.4225   -792.06507     102002.7      46.7237      46.7237      46.7237 
  451000    91.076743   -8351.0498   -7794.2393   -1020.7525     102002.7      46.7237      46.7237      46.7237 
  452000    90.820528   -8321.6348   -7766.3907   -960.34715     102002.7      46.7237      46.7237      46.7237 
  453000    90.862251    -8337.172   -7781.6728   -865.73956     102002.7      46.7237      46.7237      46.7237 
  454000    87.414441   -8343.9177   -7809.4971   -885.61037     102002.7      46.7237      46.7237      46.7237 
  455000    89.867931   -8340.4726   -7791.0523   -862.72801     102002.7      46.7237      46.7237      46.7237 
  456000     93.44111   -8326.7977   -7755.5322   -854.07717     102002.7      46.7237      46.7237      46.7237 
  457000    91.405404   -8331.7853   -7772.9654   -1127.9558     102002.7      46.7237      46.7237      46.7237 
  458000    89.775449   -8335.4695   -7786.6146    -981.6995     102002.7      46.7237      46.7237      46.7237 
  459000    92.608629    -8319.193   -7753.0171   -981.86822     102002.7      46.7237      46.7237      46.7237 
  460000    89.939345   -8355.0055   -7805.1486   -887.34836     102002.7      46.7237      46.7237      46.7237 
  461000    92.512007    -8339.046   -7773.4607   -767.65486     102002.7      46.7237      46.7237      46.7237 
  462000    93.404924    -8326.362   -7755.3178   -894.44492     102002.7      46.7237      46.7237      46.7237 
  463000    93.729219   -8349.5771   -7776.5503   -1075.4255     102002.7      46.7237      46.7237      46.7237 
  464000    90.969082   -8346.4386   -7790.2862   -836.76739     102002.7      46.7237      46.7237      46.7237 
  465000    87.603762   -8323.8786   -7788.3006   -830.32081     102002.7      46.7237      46.7237      46.7237 
  466000    91.960222   -8336.0956   -7773.8838   -666.43034     102002.7      46.7237      46.7237      46.7237 
  467000    86.976975   -8321.6945   -7789.9485   -675.06254     102002.7      46.7237      46.7237      46.7237 
  468000    90.136859    -8322.035   -7770.9706   -834.74068     102002.7      46.7237      46.7237      46.7237 
  469000    91.351222   -8339.7431   -7781.2545   -637.43862     102002.7      46.7237      46.7237      46.7237 
  470000    93.861569    -8332.989    -7759.153    -453.9158     102002.7      46.7237      46.7237      46.7237 
  471000    91.158597   -8327.4417   -7770.1307   -655.03939     102002.7      46.7237      46.7237      46.7237 
  472000     92.88192   -8322.1916   -7754.3448   -967.06757     102002.7      46.7237      46.7237      46.7237 
  473000    90.644489   -8322.8008   -7768.6329    -702.8848     102002.7      46.7237      46.7237      46.7237 
  474000    87.685483   -8315.6212   -7779.5436   -778.37024     102002.7      46.7237      46.7237      46.7237 
  475000    89.996481   -8340.5308   -7790.3246   -504.71127     102002.7      46.7237      46.7237      46.7237 
  476000    89.680901   -8338.0661   -7789.7892   -559.92617     102002.7      46.7237      46.7237      46.7237 
  477000    90.408133   -8320.4345   -7767.7116   -746.74645     102002.7      46.7237      46.7237      46.7237 
  478000    89.249342   -8340.1633   -7794.5248   -403.44169     102002.7      46.7237      46.7237      46.7237 
  479000     91.42764   -8339.6751   -7780.7193   -414.68814     102002.7      46.7237      46.7237      46.7237 
  480000    92.322063    -8331.325    -7766.901   -252.79485     102002.7      46.7237      46.7237      46.7237 
  481000     90.02977   -8352.8299   -7802.4202   -567.75444     102002.7      46.7237      46.7237      46.7237 
  482000    92.095871   -8326.4088   -7763.3677   -765.08296     102002.7      46.7237      46.7237      46.7237 
  483000    90.188829   -8334.9792   -7783.5971   -831.49941     102002.7      46.7237      46.7237      46.7237 
  484000    89.305506   -8350.2941   -7804.3123   -803.87174     102002.7      46.7237      46.7237      46.7237 
  485000    88.133804   -8334.5768   -7795.7583    -652.0167     102002.7      46.7237      46.7237      46.7237 
  486000    91.339013   -8333.8888   -7775.4748   -761.54931     102002.7      46.7237      46.7237      46.7237 
  487000    89.281678   -8332.4409   -7786.6047   -773.21781     102002.7      46.7237      46.7237      46.7237 
  488000     91.48861   -8331.7323   -7772.4038    -1006.664     102002.7      46.7237      46.7237      46.7237 
  489000    89.876711   -8350.8969   -7801.4229   -564.92311     102002.7      46.7237      46.7237      46.7237 
  490000    90.195917   -8327.8012   -7776.3757   -740.81372     102002.7      46.7237      46.7237      46.7237 
  491000    91.193766   -8321.9495   -7764.4235   -786.88345     102002.7      46.7237      46.7237      46.7237 
  492000    92.196161    -8322.842   -7759.1877   -690.97841     102002.7      46.7237      46.7237      46.7237 
  493000    92.444216    -8337.875   -7772.7042   -1055.7503     102002.7      46.7237      46.7237      46.7237 
  494000     90.68921   -8326.7769   -7772.3356   -769.60365     102002.7      46.7237      46.7237      46.7237 
  495000    87.554584   -8326.2641   -7790.9868   -909.73859     102002.7      46.7237      46.7237      46.7237 
  496000    92.275418   -8311.7967   -7747.6578    -914.6746     102002.7      46.7237      46.7237      46.7237 
  497000    93.464254   -8332.6645   -7761.2576   -582.31473     102002.7      46.7237      46.7237      46.7237 
  498000    91.690151   -8341.2636   -7780.7029   -850.49101     102002.7      46.7237      46.7237      46.7237 
  499000    94.718024   -8310.3785   -7731.3065   -652.47627     102002.7      46.7237      46.7237      46.7237 
  500000    92.629222   -8348.7928   -7782.4909   -703.34804     102002.7      46.7237      46.7237      46.7237 
  500501    94.205301   -8339.1838   -7763.2464   -796.51845     102002.7      46.7237      46.7237      46.7237 
Loop time of 1399.94 on 16 procs for 500000 steps with 2052 atoms

Performance: 30.858 ns/day, 0.778 hours/ns, 357.158 timesteps/s
99.9% CPU use with 16 MPI tasks x no OpenMP threads

MPI task timing breakdown:
Section |  min time  |  avg time  |  max time  |%varavg| %total
---------------------------------------------------------------
Pair    | 579.27     | 774.85     | 1018.1     | 526.4 | 55.35
Bond    | 164.79     | 174.69     | 185.6      |  38.0 | 12.48
Neigh   | 6.3806     | 6.404      | 6.4272     |   0.5 |  0.46
Comm    | 175.5      | 430.34     | 635.27     | 720.4 | 30.74
Output  | 0.020531   | 0.020957   | 0.024325   |   0.6 |  0.00
Modify  | 7.4201     | 8.187      | 9.6049     |  23.3 |  0.58
Other   |            | 5.448      |            |       |  0.39

Nlocal:    128.25 ave 157 max 103 min
Histogram: 2 3 3 1 0 1 1 0 4 1
Nghost:    2554.38 ave 2584 max 2523 min
Histogram: 2 2 1 1 1 1 3 1 3 1
Neighs:    11462.2 ave 17082 max 5988 min
Histogram: 2 2 1 3 1 1 1 1 1 3

Total # of neighbors = 183396
Ave neighs/atom = 89.3743
Ave special neighs/atom = 5.61404
Neighbor list builds = 3886
Dangerous builds = 0
Neighbor list info ...
  update every 1 steps, delay 10 steps, check yes
  max neighbors/atom: 2000, page size: 100000
  master list distance cutoff = 16
  ghost atom cutoff = 16
  binsize = 8, bins = 6 6 6
  3 neighbor lists, perpetual/occasional/extra = 3 0 0
  (1) pair buck6d/coul/gauss/dsf, perpetual, skip from (3)
      attributes: half, newton on
      pair build: skip
      stencil: none
      bin: none
  (2) pair lj/cut, perpetual, skip from (3)
      attributes: half, newton on
      pair build: skip
      stencil: none
      bin: none
  (3) neighbor class addition, perpetual
      attributes: half, newton on
      pair build: half/bin/newton
      stencil: half/bin/3d/newton
      bin: standard
Setting up Verlet run ...
  Unit style    : real
  Current step  : 500501
  Time step     : 1
WARNING: Inconsistent image flags (../domain.cpp:786)
Per MPI rank memory allocation (min/avg/max) = 23.05 | 23.29 | 23.36 Mbytes
Step Time TotEng KinEng PotEng E_mol E_pair Temp Pxx Pyy Pzz Pxy Pxz Pyz Cella Cellb Cellc CellAlpha CellBeta CellGamma Volume Press 
  500501       500000   -7763.2464    575.93743   -8339.1838    4206.5562    -12545.74    94.205301   -397.32274    -979.7933   -1012.4393   -114.90749    79.415734    -250.0595      46.7237      46.7237      46.7237           90           90           90     102002.7   -796.51845 
  501000       500499   -7765.7658    549.09625    -8314.862    4214.3463   -12529.208    89.814925   -1094.6068   -869.12805   -627.51305   -53.448598    10.787095   -199.69029      46.7237      46.7237      46.7237           90           90           90     102002.7   -863.74931 
  502000       501499   -7794.5331    540.97429   -8335.5074    4208.1999   -12543.707    88.486427   -707.68538   -650.65745   -406.23105    88.124135    66.593137   -187.27039      46.7237      46.7237      46.7237           90           90           90     102002.7    -588.1913 
  503000       502499   -7787.4959    549.85876   -8337.3546    4180.5859   -12517.941    89.939648   -572.96198   -764.64481   -1240.0278    85.820061    13.237285    294.89941      46.7237      46.7237      46.7237           90           90           90     102002.7   -859.21154 
  504000       503499    -7772.971    571.59763   -8344.5687    4176.5399   -12521.109    93.495446   -986.60749   -766.81876   -1115.8532   -1.2473859    97.576049   -105.06021      46.7237      46.7237      46.7237           90           90           90     102002.7   -956.42649 
  505000       504499   -7753.4359    562.02813    -8315.464    4218.7823   -12534.246    91.930176   -783.93383   -1296.8907   -682.08559    118.03619    101.64629   -89.209589      46.7237      46.7237      46.7237           90           90           90     102002.7   -920.97003 
  506000       505499   -7760.0068    573.56543   -8333.5723     4225.589   -12559.161    93.817317   -1129.6953   -761.48091   -965.45512    49.475803    211.36172    129.23112      46.7237      46.7237      46.7237           90           90           90     102002.7   -952.21044 
  507000       506499   -7791.6805    558.69073   -8350.3713    4195.6471   -12546.018    91.384282   -648.98108   -908.10423   -1068.7291    58.152505   -51.770827    25.790048      46.7237      46.7237      46.7237           90           90           90     102002.7   -875.27148 
  508000       507499    -7760.424    552.07629   -8312.5003    4216.4998       -12529    90.302367   -1033.1625   -1289.7824   -793.14427   -70.154949     90.96757   -32.717658      46.7237      46.7237      46.7237           90           90           90     102002.7   -1038.6964 
  509000       508499   -7778.8502    555.07798   -8333.9282    4218.2777   -12552.206     90.79335   -820.75478   -927.76439   -1312.8292    43.115957   -63.683499    -173.3281      46.7237      46.7237      46.7237           90           90           90     102002.7   -1020.4495 
  510000       509499   -7751.3564    581.29944   -8332.6558    4204.2976   -12536.953    95.082357   -1118.5642    -993.5286   -916.20558   -77.310753    90.665581    92.418436      46.7237      46.7237      46.7237           90           90           90     102002.7   -1009.4328 
  511000       510499   -7777.0081    549.29463   -8326.3027    4233.9807   -12560.283    89.847375   -625.38087   -827.31035    -534.1578    61.881405   -134.11033    318.90501      46.7237      46.7237      46.7237           90           90           90     102002.7   -662.28301 
  512000       511499   -7779.1813     556.2023   -8335.3836    4201.7564    -12537.14    90.977253   -693.02993   -968.69481   -737.11257    59.741734    68.927041    88.091474      46.7237      46.7237      46.7237           90           90           90     102002.7   -799.61244 
  513000       512499   -7793.4354    542.45798   -8335.8933    4209.7067     -12545.6    88.729112   -1229.7618   -826.76883   -928.61983    242.73664    126.53286   -81.426579      46.7237      46.7237      46.7237           90           90           90     102002.7   -995.05017 
  514000       513499   -7776.7543    550.11089   -8326.8652    4200.7206   -12527.586     89.98089   -635.08797   -694.32169   -551.67424    40.947188   -17.798186   -117.34721      46.7237      46.7237      46.7237           90           90           90     102002.7   -627.02797 
  515000       514499    -7777.587    550.95305     -8328.54    4209.8531   -12538.393     90.11864   -387.14528   -769.36864   -830.36555    6.4872737     47.81652   -143.63847      46.7237      46.7237      46.7237           90           90           90     102002.7   -662.29315 
  516000       515499    -7752.157    555.76446   -8307.9214    4218.1186    -12526.04    90.905636    -1039.816   -743.51622   -348.72865    37.372843    223.56365    241.89606      46.7237      46.7237      46.7237           90           90           90     102002.7   -710.68696 
  517000       516499   -7789.8085    550.20263   -8340.0111    4190.9325   -12530.944    89.995895    -796.3586   -220.69632    -1049.364   -59.622392    -117.3606    169.57317      46.7237      46.7237      46.7237           90           90           90     102002.7   -688.80629 
  518000       517499   -7772.6793     549.3957   -8322.0751    4223.4004   -12545.475    89.863907   -620.19318   -958.36719   -1308.6061    150.75168   0.68474823    263.36237      46.7237      46.7237      46.7237           90           90           90     102002.7   -962.38884 
  519000       518499   -7787.0363    549.82957   -8336.8658    4179.9552   -12516.821    89.934873   -477.07954   -1481.4181   -892.73373   -56.002465    248.86305    53.935609      46.7237      46.7237      46.7237           90           90           90     102002.7   -950.41046 
  520000       519499   -7767.0959    558.89833   -8325.9942    4203.3189   -12529.313    91.418238   -684.54377    -569.0006   -839.24245    11.248836   -28.065375   -52.742833      46.7237      46.7237      46.7237           90           90           90     102002.7   -697.59561 
  521000       520499   -7773.7133    556.72906   -8330.4423    4201.5154   -12531.958    91.063414   -419.55741   -794.73869   -720.29128    169.05229    53.324794   -60.496679      46.7237      46.7237      46.7237           90           90           90     102002.7   -644.86246 
  522000       521499   -7786.9432    545.71612   -8332.6594     4194.009   -12526.668    89.262042   -662.10934   -1175.9971   -595.36424    30.666662   -401.74782    105.30598      46.7237      46.7237      46.7237           90           90           90     102002.7   -811.15688 
  523000       522499    -7782.484    566.48812   -8348.9721    4174.9647   -12523.937     92.65969   -651.40156   -757.97731   -914.12101    203.90062    9.3669104    9.2345082      46.7237      46.7237      46.7237           90           90           90     102002.7   -774.49996 
  524000       523499    -7766.036    560.40196    -8326.438    4213.1763   -12539.614    91.664186   -421.59903   -930.59328   -707.42538    140.30247    39.504404    49.309746      46.7237      46.7237      46.7237           90           90           90     102002.7   -686.53923 
  525000       524499   -7787.9651    551.27659   -8339.2417    4197.7769   -12537.019    90.171561   -741.34992   -411.79625   -668.21215   -260.82007   -46.556659    183.61797      46.7237      46.7237      46.7237           90           90           90     102002.7   -607.11944 
  526000       525499   -7813.9515    542.24751    -8356.199    4177.9253   -12534.124    88.694687   -786.86342    -683.8851   -740.35477   -17.196409    224.87973   -119.21783      46.7237      46.7237      46.7237           90           90           90     102002.7   -737.03443 
  527000       526499   -7791.9673    549.08369    -8341.051     4198.029    -12539.08    89.812871   -307.07553   -626.02531   -1045.1281    61.398903   -100.02357    29.917468      46.7237      46.7237      46.7237           90           90           90     102002.7   -659.40963 
  528000       527499    -7754.953    553.67971   -8308.6328    4216.2386   -12524.871    90.564637   -694.63145   -556.09069    -572.8512    74.206612   -10.480419    16.710934      46.7237      46.7237      46.7237           90           90           90     102002.7   -607.85778 
  529000       528499   -7766.1356    564.28421   -8330.4199     4206.453   -12536.873      92.2992    -900.8845   -550.83013   -643.80083   -16.372962    26.180158     83.98118      46.7237      46.7237      46.7237           90           90           90     102002.7   -698.50515 
  530000       529499   -7791.2303    538.62309   -8329.8534    4201.1186   -12530.972    88.101846     -547.972   -599.28474   -711.06396    -129.2427   -91.238806    -122.4385      46.7237      46.7237      46.7237           90           90           90     102002.7   -619.44023 
  531000       530499   -7780.4728    541.66296   -8322.1358    4218.5144    -12540.65    88.599073    -951.6939   -631.20458   -923.19883    107.74178   -110.75823   -125.83957      46.7237      46.7237      46.7237           90           90           90     102002.7   -835.36577 
  532000       531499   -7773.7139    558.68192   -8332.3958    4200.3529   -12532.749    91.382841   -863.06737   -760.71009   -421.24311      193.506   -170.24291    85.512641      46.7237      46.7237      46.7237           90           90           90     102002.7   -681.67352 
  533000       532499   -7793.7983    535.02741   -8328.8257    4219.4023   -12548.228    87.513705    -1442.767   -722.07409   -829.99035   -57.519833     69.95152   -26.937806      46.7237      46.7237      46.7237           90           90           90     102002.7   -998.27716 
  534000       533499   -7760.2199    559.48154   -8319.7014     4217.681   -12537.382    91.513633   -1020.3994   -840.30725   -716.98769    51.045267    193.34094   -194.46418      46.7237      46.7237      46.7237           90           90           90     102002.7   -859.23145 
  535000       534499   -7760.5796    561.50259   -8322.0822    4218.8601   -12540.942    91.844214   -710.59506   -1391.8288   -423.25361   -160.16717   -43.486904    72.681608      46.7237      46.7237      46.7237           90           90           90     102002.7   -841.89249 
  536000       535499   -7785.0313    558.93367    -8343.965    4203.5934   -12547.558    91.424019   -784.21749    -640.1277   -772.39501    104.99308     104.9973   -164.40973      46.7237      46.7237      46.7237           90           90           90     102002.7   -732.24673 
  537000       536499   -7756.9516    566.63392   -8323.5855    4197.2277   -12520.813    92.683539   -940.33428   -673.00487    -659.5257   -42.860928    17.026779   -176.99762      46.7237      46.7237      46.7237           90           90           90     102002.7   -757.62162 
  538000       537499   -7789.0867    553.29905   -8342.3857    4191.6138   -12533.999    90.502372   -738.25693    -957.7012   -341.13659    117.85515    119.53666    29.836028      46.7237      46.7237      46.7237           90           90           90     102002.7   -679.03157 
  539000       538499   -7760.8832    552.00068   -8312.8838    4202.5693   -12515.453    90.289999   -664.04204   -688.52954   -590.65319   -155.25439    111.33979    9.8853582      46.7237      46.7237      46.7237           90           90           90     102002.7   -647.74159 
  540000       539499   -7774.9105    580.53436   -8355.4448    4181.2879   -12536.733    94.957215   -1153.5551   -471.02585   -868.09619   -188.35362    47.810984    93.181384      46.7237      46.7237      46.7237           90           90           90     102002.7   -830.89238 
  541000       540499   -7799.1764    550.09581   -8349.2722    4181.9946   -12531.267    89.978422   -683.36357   -599.72134   -801.43567   -237.98465    56.370232   -11.220261      46.7237      46.7237      46.7237           90           90           90     102002.7   -694.84019 
  542000       541499   -7773.4051    548.70242   -8322.1075    4213.5786   -12535.686    89.750508   -1018.4983   -666.98203   -1223.1148    40.382495    -270.0769    64.671497      46.7237      46.7237      46.7237           90           90           90     102002.7   -969.53172 
  543000       542499   -7751.9714    566.49975   -8318.4711    4219.5818   -12538.053    92.661593   -1126.7697    -549.8713   -773.38042    28.303503   -68.975971   -209.56792      46.7237      46.7237      46.7237           90           90           90     102002.7   -816.67382 
  544000       543499   -7774.4869    562.12801   -8336.6149    4189.3917   -12526.007    91.946513   -790.84422   -1105.1914   -523.94615   -87.315528    -43.10106    86.407625      46.7237      46.7237      46.7237           90           90           90     102002.7   -806.66058 
  545000       544499   -7778.4973    559.64225   -8338.1395    4197.6571   -12535.797    91.539921   -399.96544   -448.97796   -640.36988   -371.41338    133.69611    255.48614      46.7237      46.7237      46.7237           90           90           90     102002.7   -496.43776 
  546000       545499   -7770.2799    558.09081   -8328.3708    4204.7539   -12533.125    91.286154   -625.66138   -453.74835   -1062.1815   -228.98958   -234.38469   -34.228833      46.7237      46.7237      46.7237           90           90           90     102002.7   -713.86375 
  547000       546499   -7783.7759    548.11747   -8331.8934    4197.6086   -12529.502    89.654828   -762.07723   -891.76116   -612.84915    90.142118    103.80525   -20.870653      46.7237      46.7237      46.7237           90           90           90     102002.7   -755.56252 
  548000       547499   -7753.6888    572.13037   -8325.8192    4192.9177   -12518.737    93.582586   -488.63685   -759.57686   -755.63314    17.291675   -181.09941    -19.52078      46.7237      46.7237      46.7237           90           90           90     102002.7   -667.94895 
  549000       548499   -7790.3592    537.30679    -8327.666     4186.579   -12514.245     87.88654   -334.84278   -674.82162   -248.16852   -199.86386     18.22916   -152.25404      46.7237      46.7237      46.7237           90           90           90     102002.7   -419.27764 
  550000       549499   -7757.0185    563.70234   -8320.7208    4196.5023   -12517.223    92.204023   -643.91979   -725.20525   -493.28609   -30.816534    271.55694    37.579271      46.7237      46.7237      46.7237           90           90           90     102002.7   -620.80371 
  551000       550499   -7761.9114    572.50911   -8334.4205    4200.8545   -12535.275    93.644535   -997.19215   -412.29206   -398.98098   -131.54877    56.929622    -265.1136      46.7237      46.7237      46.7237           90           90           90     102002.7   -602.82173 
  552000       551499    -7775.141    564.40981   -8339.5508    4187.2542   -12526.805    92.319745   -615.37701   -489.38239   -375.52316   -6.6340973    35.222413   -5.6066518      46.7237      46.7237      46.7237           90           90           90     102002.7   -493.42752 
  553000       552499   -7763.6371    557.32304   -8320.9601    4209.6351   -12530.595    91.160571    -437.2783   -750.92807   -588.51454    51.448336     171.0241    243.50423      46.7237      46.7237      46.7237           90           90           90     102002.7    -592.2403 
  554000       553499    -7740.509    562.54812   -8303.0571    4218.4912   -12521.548    92.015229   -892.95225   -612.83749   -928.46622    42.612981   -98.330902   -24.127221      46.7237      46.7237      46.7237           90           90           90     102002.7   -811.41865 
  555000       554499   -7768.4436    570.94764   -8339.3912    4184.1086     -12523.5    93.389127   -860.30063   -473.39607   -771.98236    37.873084   -134.57455    135.53787      46.7237      46.7237      46.7237           90           90           90     102002.7   -701.89302 
[...]
  936000       935499   -7779.7559     552.6164   -8332.3723     4190.881   -12523.253    90.390712   -741.19904   -560.46274   -1014.6571   -69.652747     -7.05269    263.24983      46.7237      46.7237      46.7237           90           90           90     102002.7   -772.10628 
  937000       936499   -7745.6632    575.84502   -8321.5082    4209.4584   -12530.967    94.190186   -615.90885   -382.27518   -520.36799  -0.83070559   -133.81872    163.47086      46.7237      46.7237      46.7237           90           90           90     102002.7   -506.18401 
  938000       937499   -7763.6312    555.17539   -8318.8066    4206.5507   -12525.357    90.809283   -895.65884   -1039.9436   -985.50146   -56.066949   -26.177268    44.860498      46.7237      46.7237      46.7237           90           90           90     102002.7   -973.70128 
  939000       938499   -7796.9477    549.37045   -8346.3181    4179.4156   -12525.734    89.859777    -564.4148   -603.26756   -726.91955   -75.621677   -52.959768     152.7682      46.7237      46.7237      46.7237           90           90           90     102002.7   -631.53397 
  940000       939499    -7761.875    565.97323   -8327.8482    4186.0233   -12513.872     92.57547   -1127.4046   -400.80652    -536.8043   -28.926136    89.257531   -236.90819      46.7237      46.7237      46.7237           90           90           90     102002.7   -688.33849 
  941000       940499   -7779.0771      549.413   -8328.4901    4193.3493   -12521.839    89.866737   -615.73734   -660.19341   -1067.7065    344.86896    61.910052   -156.38531      46.7237      46.7237      46.7237           90           90           90     102002.7   -781.21242 
  942000       941499   -7781.4733    552.35633   -8333.8297    4204.7995   -12538.629    90.348172   -757.09018   -657.67732    -213.6757   -39.143794    -99.66101     13.83805      46.7237      46.7237      46.7237           90           90           90     102002.7    -542.8144 
  943000       942499   -7776.4889    552.59599   -8329.0849    4216.8717   -12545.957    90.387373    -746.8669   -896.49029   -913.15434   -40.958511   -24.867169   -98.921308      46.7237      46.7237      46.7237           90           90           90     102002.7   -852.17051 
  944000       943499   -7804.2122    541.65945   -8345.8716    4187.5872   -12533.459    88.598498   -716.00491   -635.00103   -895.92403   -7.6504492   -33.654175   -164.86157      46.7237      46.7237      46.7237           90           90           90     102002.7   -748.97666 
  945000       944499   -7759.3325    562.97237   -8322.3049    4212.7839   -12535.089    92.084624   -728.67286   -674.69231   -569.72771    26.392409   -111.63887    5.6128424      46.7237      46.7237      46.7237           90           90           90     102002.7   -657.69763 
  946000       945499   -7779.9795    559.53437   -8339.5138    4181.7162    -12521.23    91.522275   -977.18846   -993.76487   -707.67003   -49.347848    -34.58773    114.70593      46.7237      46.7237      46.7237           90           90           90     102002.7   -892.87445 
  947000       946499    -7778.693    549.70044   -8328.3934    4197.1608   -12525.554    89.913752   -472.76086   -820.78284   -411.05441   -52.441967    38.668968   -56.112551      46.7237      46.7237      46.7237           90           90           90     102002.7   -568.19937 
  948000       947499   -7757.6136     563.4786   -8321.0922    4197.8947   -12518.987    92.167427   -662.39923   -898.92476    -593.6107    116.08661   -27.957695   -107.44967      46.7237      46.7237      46.7237           90           90           90     102002.7   -718.31156 
  949000       948499   -7782.6252    548.02159   -8330.6468    4185.0553   -12515.702    89.639145   -472.78456   -1017.1463   -517.23947   -112.51945   -67.868042   -172.55135      46.7237      46.7237      46.7237           90           90           90     102002.7   -669.05679 
  950000       949499   -7803.8283    551.36953   -8355.1978    4190.0759   -12545.274    90.186764   -634.16897   -1117.5542    -978.2018    343.39537    56.411035    169.10696      46.7237      46.7237      46.7237           90           90           90     102002.7   -909.97498 
  951000       950499    -7774.638    565.88644   -8340.5245    4208.6529   -12549.177    92.561275    -825.6608   -1476.1583   -1058.6966    120.17329   -73.753571    58.855716      46.7237      46.7237      46.7237           90           90           90     102002.7   -1120.1719 
  952000       951499   -7766.1026    565.33732   -8331.4399    4206.2855   -12537.725    92.471456   -846.42998   -764.14133   -857.00932   -178.93615    107.16922    8.7467691      46.7237      46.7237      46.7237           90           90           90     102002.7   -822.52688 
  953000       952499    -7798.093    538.07022   -8336.1633    4188.6573   -12524.821    88.011413   -565.52621   -915.98091   -844.98376   -79.766049     401.3197     29.60977      46.7237      46.7237      46.7237           90           90           90     102002.7   -775.49696 
  954000       953499   -7787.6352    544.90479     -8332.54    4192.1499    -12524.69    89.129334   -802.40972   -896.63395   -1286.5784   -35.776466   -1.4448893   -86.313084      46.7237      46.7237      46.7237           90           90           90     102002.7   -995.20734 
  955000       954499   -7764.7787    560.20852   -8324.9873    4199.5645   -12524.552    91.632545   -1171.6203   -1011.9308   -883.63056   -175.10039    47.551305    41.900449      46.7237      46.7237      46.7237           90           90           90     102002.7   -1022.3939 
  956000       955499   -7770.4714    549.13939   -8319.6108    4190.2822   -12509.893    89.821983   -991.44137   -868.95693    -954.9528    173.24872   -236.32093    26.102082      46.7237      46.7237      46.7237           90           90           90     102002.7   -938.45036 
  957000       956499   -7765.5404    554.09031   -8319.6307    4188.7624   -12508.393    90.631798   -340.51785   -1008.5075   -1194.2725   -192.48743   -40.883776   -85.634806      46.7237      46.7237      46.7237           90           90           90     102002.7   -847.76595 
  958000       957499   -7762.1258    564.65941   -8326.7852    4199.3923   -12526.178    92.360571   -651.13038   -1193.4094   -567.00151    74.057996    257.02518    84.680653      46.7237      46.7237      46.7237           90           90           90     102002.7   -803.84711 
  959000       958499   -7778.7245    555.65015   -8334.3746    4196.1691   -12530.544    90.886939   -513.68124   -1176.3155   -1162.7107    -131.3654   -55.675383   -97.332185      46.7237      46.7237      46.7237           90           90           90     102002.7   -950.90251 
  960000       959499   -7779.8917    559.45069   -8339.3424    4186.3124   -12525.655    91.508587   -745.56515   -805.58728   -845.28218    -34.82544   -23.801534    100.17392      46.7237      46.7237      46.7237           90           90           90     102002.7   -798.81154 
  961000       960499   -7790.9547     563.3298   -8354.2845    4184.0083   -12538.293    92.143088   -572.12288   -900.60559   -588.97259   -55.139302   -99.303557    96.388986      46.7237      46.7237      46.7237           90           90           90     102002.7   -687.23369 
  962000       961499   -7765.4256    560.99804   -8326.4236    4214.4823   -12540.906    91.761685   -497.64417   -678.57079   -721.18865   -194.00553    218.19885    267.14847      46.7237      46.7237      46.7237           90           90           90     102002.7   -632.46787 
  963000       962499   -7776.6668    541.18757   -8317.8543    4211.1998   -12529.054    88.521314   -380.85136   -541.50072   -897.73081    20.450731    92.426324   -13.527583      46.7237      46.7237      46.7237           90           90           90     102002.7   -606.69429 
  964000       963499   -7758.6645     568.1834   -8326.8479     4202.985   -12529.833    92.936986   -1129.5987   -947.46872   -822.28478     127.4384    49.185456    268.81885      46.7237      46.7237      46.7237           90           90           90     102002.7   -966.45072 
  965000       964499   -7778.5109    555.27842   -8333.7893    4202.5553   -12536.345    90.826135   -536.11703   -814.04812   -974.80554     162.9741    117.65726    35.130932      46.7237      46.7237      46.7237           90           90           90     102002.7   -774.99023 
  966000       965499   -7779.3506      550.951   -8330.3016    4215.8018   -12546.103    90.118305   -404.73571   -1027.4938   -805.38415   -155.07592   -47.364391    68.919374      46.7237      46.7237      46.7237           90           90           90     102002.7   -745.87121 
  967000       966499   -7771.4746    554.26519   -8325.7398    4206.6442   -12532.384    90.660402   -895.24988   -1339.2426   -630.00712   -92.265155    137.02676    332.85624      46.7237      46.7237      46.7237           90           90           90     102002.7    -954.8332 
  968000       967499   -7790.3487    539.73811   -8330.0868    4186.9554   -12517.042    88.284228    -943.0124   -743.80787   -1179.4501   -75.924681    27.115083   -68.650842      46.7237      46.7237      46.7237           90           90           90     102002.7   -955.42345 
  969000       968499    -7784.745    550.88712   -8335.6322    4201.7492   -12537.381    90.107855   -994.36074    -832.6264   -1139.0477    -98.53129   -217.69491    93.201836      46.7237      46.7237      46.7237           90           90           90     102002.7   -988.67827 
  970000       969499   -7777.9054    555.03166    -8332.937    4213.6035   -12546.541    90.785773   -1135.3355   -1223.3356   -1156.5249     107.2393    13.763406    37.018216      46.7237      46.7237      46.7237           90           90           90     102002.7    -1171.732 
  971000       970499   -7778.8443    558.64871    -8337.493    4206.0865    -12543.58    91.377409   -756.48821   -728.18704   -720.46903    76.150349   -139.12008    314.16283      46.7237      46.7237      46.7237           90           90           90     102002.7   -735.04809 
  972000       971499   -7792.5396    557.46854   -8350.0081    4182.5437   -12532.552     91.18437   -1289.1872   -709.57435   -380.44066    49.575243     73.13402   -164.68193      46.7237      46.7237      46.7237           90           90           90     102002.7    -793.0674 
  973000       972499   -7785.6803    558.56071    -8344.241    4203.8401   -12548.081    91.363014   -1199.3753   -1082.8438   -572.83097    20.905378    -145.4369   -183.41775      46.7237      46.7237      46.7237           90           90           90     102002.7   -951.68336 
  974000       973499   -7755.9061      577.412   -8333.3181    4196.4534   -12529.771    94.446495   -393.64196   -514.03324   -937.57945    31.000657   -189.44608   -25.569146      46.7237      46.7237      46.7237           90           90           90     102002.7   -615.08488 
  975000       974499   -7783.3551    548.92507   -8332.2802    4203.5194     -12535.8    89.786926   -888.72846   -491.01482   -313.10257   -21.515799    133.94892    236.77327      46.7237      46.7237      46.7237           90           90           90     102002.7   -564.28195 
  976000       975499   -7800.4997    559.12338   -8359.6231    4167.0888   -12526.712    91.455049   -615.64256   -716.95296    -548.6881    44.156134    65.211108   -182.81937      46.7237      46.7237      46.7237           90           90           90     102002.7   -627.09454 
  977000       976499    -7794.545    551.28258   -8345.8276    4202.8284   -12548.656    90.172541   -819.92501   -1122.3938   -634.25464   -43.393662    101.65347    18.216746      46.7237      46.7237      46.7237           90           90           90     102002.7   -858.85781 
  978000       977499   -7778.3313     562.6501   -8340.9814     4208.371   -12549.352    92.031911   -744.06558   -1075.2426   -634.10927   -176.10621    31.632354   -165.75411      46.7237      46.7237      46.7237           90           90           90     102002.7   -817.80581 
  979000       978499   -7758.6679    575.85728   -8334.5252    4211.8184   -12546.344    94.192191   -611.24462   -714.70873   -504.46385   -248.51844    56.871035    45.678162      46.7237      46.7237      46.7237           90           90           90     102002.7   -610.13907 
  980000       979499   -7791.4631    558.83226   -8350.2954    4192.3483   -12542.644    91.407431   -591.79865   -927.02124   -522.48329    57.931626    142.36292    64.846789      46.7237      46.7237      46.7237           90           90           90     102002.7    -680.4344 
  981000       980499   -7780.9231    560.77802   -8341.7011     4199.099     -12540.8    91.725696   -743.15231   -639.92291   -541.35637    127.98375    175.46035   -49.230621      46.7237      46.7237      46.7237           90           90           90     102002.7    -641.4772 
  982000       981499   -7778.5551    550.58696    -8329.142    4205.0367   -12534.179     90.05876   -68.381881   -662.94401   -997.68417    264.52504    -192.4605   -18.453302      46.7237      46.7237      46.7237           90           90           90     102002.7   -576.33669 
  983000       982499   -7779.7616    561.81212   -8341.5738    4208.8524   -12550.426    91.894844   -739.98235   -871.27256   -619.40302   -326.25343    101.85322   -63.083594      46.7237      46.7237      46.7237           90           90           90     102002.7   -743.55264 
  984000       983499   -7775.1765    560.53898   -8335.7155    4211.8526   -12547.568    91.686597   -616.99683   -334.23647   -861.82572   -27.187859      17.0381   -125.99108      46.7237      46.7237      46.7237           90           90           90     102002.7   -604.35301 
  985000       984499   -7821.5269    535.58492   -8357.1118    4177.8901   -12535.002    87.604896    -765.5272   -853.39374   -1015.5225    89.974146    122.52964    153.80059      46.7237      46.7237      46.7237           90           90           90     102002.7   -878.14781 
  986000       985499   -7787.1256    558.70269   -8345.8283    4187.6362   -12533.464    91.386238   -272.09328   -1313.6437   -736.97485   -55.621754    59.773165    186.77258      46.7237      46.7237      46.7237           90           90           90     102002.7   -774.23727 
  987000       986499    -7762.602    571.86672   -8334.4687    4201.7541   -12536.223    93.539461   -656.55133   -984.73491   -966.74856    243.82168   -93.834101   -1.8951465      46.7237      46.7237      46.7237           90           90           90     102002.7   -869.34494 
  988000       987499   -7803.1212    535.49652   -8338.6177     4192.383   -12531.001    87.590436   -719.96981   -230.17105   -946.68726   -15.015448    25.826587   -63.700751      46.7237      46.7237      46.7237           90           90           90     102002.7   -632.27604 
  989000       988499   -7768.0136    563.29798   -8331.3116    4201.6312   -12532.943    92.137884   -708.07976   -776.18114    -726.6224   -68.002782   -269.19286   -67.176504      46.7237      46.7237      46.7237           90           90           90     102002.7    -736.9611 
  990000       989499   -7781.4652    545.87858   -8327.3437    4210.1361    -12537.48    89.288617   -786.30223     -640.995   -1412.3225   -51.746128    127.10633   -113.91325      46.7237      46.7237      46.7237           90           90           90     102002.7   -946.53993 
  991000       990499   -7796.2251    551.19032   -8347.4154    4203.3436   -12550.759    90.157449   -592.43281   -844.33945   -689.71934   -115.78992   -23.741367     116.1204      46.7237      46.7237      46.7237           90           90           90     102002.7   -708.83054 
  992000       991499   -7758.1343    557.90603   -8316.0403    4216.0305   -12532.071    91.255929   -521.40905    -611.7711   -833.07048    80.614045   -34.604308    129.70087      46.7237      46.7237      46.7237           90           90           90     102002.7   -655.41688 
  993000       992499   -7758.7944    584.71015   -8343.5045    4199.6006   -12543.105    95.640244    -719.8333    -360.0753   -921.87672    132.09143    163.25526   -54.503035      46.7237      46.7237      46.7237           90           90           90     102002.7   -667.26177 
  994000       993499   -7793.9189    542.34395   -8336.2629     4212.652   -12548.915    88.710462   -933.84263   -690.02343   -591.44174   -41.234613   -146.71938    51.506243      46.7237      46.7237      46.7237           90           90           90     102002.7   -738.43593 
  995000       994499   -7800.2838     543.3275   -8343.6113    4199.7405   -12543.352    88.871339   -781.32511   -995.83758   -311.71858    200.56769   -53.089972   -217.94222      46.7237      46.7237      46.7237           90           90           90     102002.7   -696.29376 
  996000       995499    -7782.273    552.50178   -8334.7748    4190.4518   -12525.227    90.371963   -356.89186   -425.49977    -849.3277     -48.4103    -40.76858   -2.9194493      46.7237      46.7237      46.7237           90           90           90     102002.7   -543.90645 
  997000       996499   -7772.4381    567.55953   -8339.9976    4184.4712   -12524.469     92.83494    -388.7171   -825.73388   -741.79253     34.77372   -203.06414    141.05516      46.7237      46.7237      46.7237           90           90           90     102002.7   -652.08117 
  998000       997499   -7761.3466    554.30687   -8315.6535    4214.8398   -12530.493     90.66722    -1090.084   -1083.1842   -760.03071    84.514025   -40.871947    155.13396      46.7237      46.7237      46.7237           90           90           90     102002.7    -977.7663 
  999000       998499   -7766.7722    567.35466   -8334.1268    4198.7047   -12532.831     92.80143   -800.56969   -611.25393   -1198.0674    79.576215    51.591174   -21.186836      46.7237      46.7237      46.7237           90           90           90     102002.7   -869.96368 
 1000000       999499   -7782.9817    555.46448   -8338.4462    4196.1596   -12534.606    90.856569   -528.21701    -1135.615   -992.51393     -11.7837    76.694088   -110.23208      46.7237      46.7237      46.7237           90           90           90     102002.7   -885.44863 
 1000501      1000000   -7787.8387    549.28207   -8337.1207    4211.3464   -12548.467     89.84532   -659.54891    -949.4023   -934.70162    149.35865    18.083159    109.49161      46.7237      46.7237      46.7237           90           90           90     102002.7   -847.88428 
Loop time of 1649.66 on 16 procs for 500000 steps with 2052 atoms

Performance: 26.187 ns/day, 0.916 hours/ns, 303.092 timesteps/s
99.9% CPU use with 16 MPI tasks x no OpenMP threads

MPI task timing breakdown:
Section |  min time  |  avg time  |  max time  |%varavg| %total
---------------------------------------------------------------
Pair    | 641.17     | 906.84     | 1207.8     | 675.2 | 54.97
Bond    | 164.12     | 183.9      | 204.84     |  98.1 | 11.15
Neigh   | 6.5166     | 6.541      | 6.5662     |   0.5 |  0.40
Comm    | 202.2      | 524.47     | 802.45     | 940.8 | 31.79
Output  | 0.10579    | 0.11109    | 0.1115     |   0.4 |  0.01
Modify  | 21.118     | 22.283     | 23.377     |  13.8 |  1.35
Other   |            | 5.515      |            |       |  0.33

Nlocal:    128.25 ave 148 max 113 min
Histogram: 3 1 2 2 2 1 2 0 1 2
Nghost:    2557.5 ave 2587 max 2532 min
Histogram: 3 0 2 2 2 3 0 0 2 2
Neighs:    11462.6 ave 16494 max 6911 min
Histogram: 2 1 2 3 1 1 2 2 0 2

Total # of neighbors = 183401
Ave neighs/atom = 89.3767
Ave special neighs/atom = 5.61404
Neighbor list builds = 3894
Dangerous builds = 0
Total wall time: 0:50:53
