LAMMPS (30 Mar 2018)
Reading data file ...
  orthogonal box = (0 0 0) to (46.7237 46.7237 46.7237)
  2 by 3 by 4 MPI processor grid
  reading atoms ...
  1729 atoms
  scanning bonds ...
  5 = max bonds/atom
  scanning angles ...
  10 = max angles/atom
  scanning dihedrals ...
  32 = max dihedrals/atom
  scanning impropers ...
  3 = max impropers/atom
  reading bonds ...
  2064 bonds
  reading angles ...
  3696 angles
  reading dihedrals ...
  6240 dihedrals
  reading impropers ...
  1008 impropers
Finding 1-2 1-3 1-4 neighbors ...
  special bond factors lj:   0          0          0         
  special bond factors coul: 0          0          0         
  5 = max # of 1-2 neighbors
  8 = max # of 1-3 neighbors
  20 = max # of 1-4 neighbors
  19 = max # of special neighbors
Finding 1-2 1-3 1-4 neighbors ...
  special bond factors lj:   0          0          1         
  special bond factors coul: 1          1          1         
  5 = max # of 1-2 neighbors
  8 = max # of 1-3 neighbors
  19 = max # of special neighbors
WARNING: Using 'neigh_modify every 1 delay 0 check yes' setting during minimization (../min.cpp:168)
Neighbor list info ...
  update every 1 steps, delay 0 steps, check yes
  max neighbors/atom: 2000, page size: 100000
  master list distance cutoff = 16
  ghost atom cutoff = 16
  binsize = 8, bins = 6 6 6
  3 neighbor lists, perpetual/occasional/extra = 3 0 0
  (1) pair buck6d/coul/gauss/dsf, perpetual, skip from (3)
      attributes: half, newton on
      pair build: skip
      stencil: none
      bin: none
  (2) pair lj/cut, perpetual, skip from (3)
      attributes: half, newton on
      pair build: skip
      stencil: none
      bin: none
  (3) neighbor class addition, perpetual
      attributes: half, newton on
      pair build: half/bin/newton
      stencil: half/bin/3d/newton
      bin: standard
Setting up cg style minimization ...
  Unit style    : real
  Current step  : 0
WARNING: Inconsistent image flags (../domain.cpp:786)
Per MPI rank memory allocation (min/avg/max) = 22.87 | 23.28 | 24.42 Mbytes
Step Temp E_pair E_mol TotEng Press 
       0            0   -11516.112    6482.8914    -5033.221    6290.2806 
     501            0   -11536.426    3737.9634   -7798.4627   -484.36492 
Loop time of 1.21828 on 24 procs for 501 steps with 1729 atoms

99.8% CPU use with 24 MPI tasks x no OpenMP threads

Minimization stats:
  Stopping criterion = max force evaluations
  Energy initial, next-to-last, final = 
         -5033.2210205     -7798.39202868     -7798.46274091
  Force two-norm initial, final = 2576.99 12.0212
  Force max component initial, final = 151.958 1.5978
  Final line search alpha, max atom move = 0.00831605 0.0132874
  Iterations, force evaluations = 501 1001

MPI task timing breakdown:
Section |  min time  |  avg time  |  max time  |%varavg| %total
---------------------------------------------------------------
Pair    | 0.47891    | 0.59996    | 0.74169    |  10.1 | 49.25
Bond    | 0.137      | 0.15827    | 0.19622    |   4.1 | 12.99
Neigh   | 0.0099615  | 0.010104   | 0.010273   |   0.1 |  0.83
Comm    | 0.30081    | 0.42884    | 0.56816    |  11.2 | 35.20
Output  | 0          | 0          | 0          |   0.0 |  0.00
Modify  | 0          | 0          | 0          |   0.0 |  0.00
Other   |            | 0.02111    |            |       |  1.73

Nlocal:    72.0417 ave 82 max 63 min
Histogram: 2 1 2 4 5 3 2 2 2 1
Nghost:    1967.62 ave 2138 max 1875 min
Histogram: 16 0 0 0 0 0 0 0 0 8
Neighs:    7638.54 ave 11093 max 4221 min
Histogram: 1 3 2 4 3 1 5 2 2 1

Total # of neighbors = 183325
Ave neighs/atom = 106.029
Ave special neighs/atom = 6.66281
Neighbor list builds = 19
Dangerous builds = 0
Neighbor list info ...
  update every 1 steps, delay 10 steps, check yes
  max neighbors/atom: 2000, page size: 100000
  master list distance cutoff = 16
  ghost atom cutoff = 16
  binsize = 8, bins = 6 6 6
  3 neighbor lists, perpetual/occasional/extra = 3 0 0
  (1) pair buck6d/coul/gauss/dsf, perpetual, skip from (3)
      attributes: half, newton on
      pair build: skip
      stencil: none
      bin: none
  (2) pair lj/cut, perpetual, skip from (3)
      attributes: half, newton on
      pair build: skip
      stencil: none
      bin: none
  (3) neighbor class addition, perpetual
      attributes: half, newton on
      pair build: half/bin/newton
      stencil: half/bin/3d/newton
      bin: standard
Setting up Verlet run ...
  Unit style    : real
  Current step  : 501
  Time step     : 1
WARNING: Inconsistent image flags (../domain.cpp:786)
Per MPI rank memory allocation (min/avg/max) = 22.52 | 22.69 | 23.29 Mbytes
Step Temp PotEng TotEng Press Volume Lx Ly Lz 
     501          110   -7798.4627   -7231.8704   -230.44785     102002.7      46.7237      46.7237      46.7237 
    1000    94.365391   -7276.3811   -6790.3201   -565.05209     102002.7      46.7237      46.7237      46.7237 
    2000    114.37362   -7231.0384   -6641.9182   -461.66314     102002.7      46.7237      46.7237      46.7237 
    3000    104.00589   -7201.6236   -6665.9059    -821.0417     102002.7      46.7237      46.7237      46.7237 
    4000    109.17407   -7230.2314   -6667.8933    -537.8693     102002.7      46.7237      46.7237      46.7237 
    5000    109.13606   -7208.4509   -6646.3086   -767.43614     102002.7      46.7237      46.7237      46.7237 
    6000    108.60724   -7265.9061   -6706.4876   -559.47763     102002.7      46.7237      46.7237      46.7237 
    7000    111.64083   -7220.2347   -6645.1907   -453.66494     102002.7      46.7237      46.7237      46.7237 
    8000    109.55655   -7222.2041   -6657.8958   -504.88499     102002.7      46.7237      46.7237      46.7237 
    9000     108.2211   -7215.1019   -6657.6723   -545.81107     102002.7      46.7237      46.7237      46.7237 
   10000    109.98581   -7213.7212   -6647.2019   -430.94584     102002.7      46.7237      46.7237      46.7237 
   11000    107.23919   -7226.0149   -6673.6431   -760.06761     102002.7      46.7237      46.7237      46.7237 
   12000    111.88382   -7208.2393   -6631.9437   -875.22728     102002.7      46.7237      46.7237      46.7237 
   13000    108.98211   -7221.0735   -6659.7241   -628.42604     102002.7      46.7237      46.7237      46.7237 
   14000    111.90923   -7234.6347   -6658.2082   -803.51339     102002.7      46.7237      46.7237      46.7237 
   15000    109.26309   -7213.9305   -6651.1338   -703.88855     102002.7      46.7237      46.7237      46.7237 
   16000    107.71201   -7230.1524   -6675.3451   -887.64447     102002.7      46.7237      46.7237      46.7237 
   17000    110.00352   -7225.7768   -6659.1663   -689.30954     102002.7      46.7237      46.7237      46.7237 
   18000    112.21922   -7193.1007   -6615.0775   -605.41601     102002.7      46.7237      46.7237      46.7237 
   19000    112.38089   -7230.0049    -6651.149   -595.66343     102002.7      46.7237      46.7237      46.7237 
   20000    109.89336   -7221.0841    -6655.041   -727.07643     102002.7      46.7237      46.7237      46.7237 
   21000    109.15357   -7238.0649   -6675.8324   -992.86573     102002.7      46.7237      46.7237      46.7237 
   22000     107.0669    -7215.972   -6664.4876   -968.92159     102002.7      46.7237      46.7237      46.7237 
   23000    112.45185   -7210.1279   -6630.9064    -786.4375     102002.7      46.7237      46.7237      46.7237 
   24000    109.92214   -7225.6504   -6659.4591   -810.87998     102002.7      46.7237      46.7237      46.7237 
   25000    110.28748    -7214.009   -6645.9359    -720.2451     102002.7      46.7237      46.7237      46.7237 
   26000    108.40504   -7220.8972   -6662.5202   -575.23156     102002.7      46.7237      46.7237      46.7237 
   27000    109.73718   -7207.5413   -6642.3027   -522.77996     102002.7      46.7237      46.7237      46.7237 
   28000    111.06942   -7235.4801   -6663.3793   -665.82592     102002.7      46.7237      46.7237      46.7237 
   29000    109.81803   -7214.4204   -6648.7653   -1031.7114     102002.7      46.7237      46.7237      46.7237 
   30000    111.99277   -7220.8069   -6643.9501    -958.1121     102002.7      46.7237      46.7237      46.7237 
   31000    111.56905   -7233.7892   -6659.1149   -857.78405     102002.7      46.7237      46.7237      46.7237 
   32000    107.03062   -7225.8788   -6674.5812   -1183.0319     102002.7      46.7237      46.7237      46.7237 
   33000    107.21963   -7215.6816   -6663.4105   -947.27283     102002.7      46.7237      46.7237      46.7237 
   34000    112.17337   -7222.3713   -6644.5842   -441.60848     102002.7      46.7237      46.7237      46.7237 
   35000    108.31625   -7235.9954   -6678.0758   -843.62315     102002.7      46.7237      46.7237      46.7237 
   36000    110.29212   -7234.5355   -6666.4385   -667.58173     102002.7      46.7237      46.7237      46.7237 
   37000    110.51285    -7223.838    -6654.604   -1095.8966     102002.7      46.7237      46.7237      46.7237 
   38000    109.51506   -7217.3998   -6653.3053   -775.89709     102002.7      46.7237      46.7237      46.7237 
   39000    107.09431   -7231.1978   -6679.5722   -732.94465     102002.7      46.7237      46.7237      46.7237 
   40000    111.20618   -7218.6684   -6645.8632   -493.61653     102002.7      46.7237      46.7237      46.7237 
   41000    108.53316   -7245.7761   -6686.7392   -661.49393     102002.7      46.7237      46.7237      46.7237 
   42000    112.34142   -7219.9605   -6641.3078   -579.58202     102002.7      46.7237      46.7237      46.7237 
   43000      108.591   -7224.4964   -6665.1616   -712.33843     102002.7      46.7237      46.7237      46.7237 
   44000    111.67647   -7217.7564   -6642.5288   -664.51496     102002.7      46.7237      46.7237      46.7237 
   45000    111.64556   -7237.6556   -6662.5872   -424.99534     102002.7      46.7237      46.7237      46.7237 
   46000    110.73967   -7227.2074   -6656.8051   -350.10013     102002.7      46.7237      46.7237      46.7237 
   47000    111.25024   -7229.3432   -6656.3111   -659.65394     102002.7      46.7237      46.7237      46.7237 
   48000    108.76502   -7216.6615   -6656.4303   -769.47532     102002.7      46.7237      46.7237      46.7237 
   49000    108.62617   -7238.4253   -6678.9093   -533.13602     102002.7      46.7237      46.7237      46.7237 
   50000    111.97481   -7213.9512   -6637.1869   -837.94595     102002.7      46.7237      46.7237      46.7237 
   51000    109.21175   -7240.7738   -6678.2416   -479.44277     102002.7      46.7237      46.7237      46.7237 
   52000    112.25686   -7225.2447   -6647.0276   -742.58222     102002.7      46.7237      46.7237      46.7237 
   53000    109.40023   -7219.2793   -6655.7762   -650.67377     102002.7      46.7237      46.7237      46.7237 
   54000    114.69404   -7217.3103   -6626.5397   -501.53428     102002.7      46.7237      46.7237      46.7237 
   55000    109.91573   -7216.5625   -6650.4042   -212.69187     102002.7      46.7237      46.7237      46.7237 
   56000    110.09315   -7219.7345   -6652.6623   -702.59907     102002.7      46.7237      46.7237      46.7237 
   57000    109.06638   -7212.5723   -6650.7888   -420.10189     102002.7      46.7237      46.7237      46.7237 
   58000    108.20664   -7211.3343   -6653.9792   -692.25105     102002.7      46.7237      46.7237      46.7237 
   59000    108.60923   -7214.5266   -6655.0978   -466.44451     102002.7      46.7237      46.7237      46.7237 
   60000    111.48658   -7197.9271   -6623.6776   -435.89557     102002.7      46.7237      46.7237      46.7237 
   61000    109.37681   -7230.0842   -6666.7017   -793.08986     102002.7      46.7237      46.7237      46.7237 
   62000    111.76246   -7206.3556   -6630.6851   -822.35446     102002.7      46.7237      46.7237      46.7237 
   63000    106.46221   -7222.8223   -6674.4525   -684.79415     102002.7      46.7237      46.7237      46.7237 
   64000    109.69081   -7202.7984   -6637.7986   -489.98282     102002.7      46.7237      46.7237      46.7237 
   65000    110.08685    -7239.057   -6672.0172   -851.22371     102002.7      46.7237      46.7237      46.7237 
   66000    107.97689   -7233.1297   -6676.9581   -634.60743     102002.7      46.7237      46.7237      46.7237 
   67000      111.441   -7222.6494   -6648.6347   -764.16963     102002.7      46.7237      46.7237      46.7237 
   68000    107.76183   -7236.7293   -6681.6653    -541.7112     102002.7      46.7237      46.7237      46.7237 
   69000    108.65334   -7226.0242   -6666.3683   -660.42901     102002.7      46.7237      46.7237      46.7237 
   70000    111.82865   -7211.8328   -6635.8214   -728.22503     102002.7      46.7237      46.7237      46.7237 
   71000    110.75482    -7227.041   -6656.5606   -768.69573     102002.7      46.7237      46.7237      46.7237 
   72000    107.69741   -7247.2602   -6692.5281   -407.57465     102002.7      46.7237      46.7237      46.7237 
   73000    107.62035   -7216.8551   -6662.5199   -576.91883     102002.7      46.7237      46.7237      46.7237 
   74000    111.30355   -7229.9713   -6656.6645   -435.44682     102002.7      46.7237      46.7237      46.7237 
   75000    111.33291   -7227.1437   -6653.6858   -306.04724     102002.7      46.7237      46.7237      46.7237 
   76000    109.12563   -7230.8541   -6668.7654   -534.92391     102002.7      46.7237      46.7237      46.7237 
   77000    110.99044   -7215.6773   -6643.9833   -376.02621     102002.7      46.7237      46.7237      46.7237 
   78000    109.89722   -7235.3278   -6669.2648   -556.16692     102002.7      46.7237      46.7237      46.7237 
   79000    109.75912   -7233.9419   -6668.5903   -405.64752     102002.7      46.7237      46.7237      46.7237 
   80000    112.18274   -7244.7222   -6666.8868   -510.68264     102002.7      46.7237      46.7237      46.7237 
   81000    107.75582   -7234.7948   -6679.7618   -790.28721     102002.7      46.7237      46.7237      46.7237 
   82000    108.95823   -7216.9465   -6655.7201   -848.21713     102002.7      46.7237      46.7237      46.7237 
   83000     111.8208   -7217.8666   -6641.8956    -750.3477     102002.7      46.7237      46.7237      46.7237 
   84000    110.59208   -7227.3051    -6657.663   -875.86669     102002.7      46.7237      46.7237      46.7237 
   85000    110.68476   -7230.6215   -6660.5021   -1030.7352     102002.7      46.7237      46.7237      46.7237 
   86000    109.37463   -7228.0764   -6664.7052    -749.1326     102002.7      46.7237      46.7237      46.7237 
   87000    108.61741   -7221.9872   -6662.5163    -771.1943     102002.7      46.7237      46.7237      46.7237 
   88000    109.94712   -7217.9429   -6651.6229   -655.83398     102002.7      46.7237      46.7237      46.7237 
   89000    107.48026   -7232.6431   -6679.0295    -1035.728     102002.7      46.7237      46.7237      46.7237 
   90000    108.14685   -7224.6738   -6667.6267    -841.7106     102002.7      46.7237      46.7237      46.7237 
   91000    108.77966   -7217.3865   -6657.0799   -533.34096     102002.7      46.7237      46.7237      46.7237 
   92000      112.056   -7239.4892   -6662.3067   -610.42869     102002.7      46.7237      46.7237      46.7237 
   93000    111.29956   -7239.8138   -6666.5276   -390.22227     102002.7      46.7237      46.7237      46.7237 
   94000    109.58324   -7211.8595   -6647.4138   -572.39226     102002.7      46.7237      46.7237      46.7237 
   95000    110.22334   -7220.1538   -6652.4111   -325.86417     102002.7      46.7237      46.7237      46.7237 
   96000    108.79973   -7215.9574   -6655.5474   -724.95072     102002.7      46.7237      46.7237      46.7237 
   97000    110.12806   -7242.3824   -6675.1304   -827.70157     102002.7      46.7237      46.7237      46.7237 
   98000    113.99615   -7227.8358   -6640.6599   -811.27719     102002.7      46.7237      46.7237      46.7237 
   99000    106.36505   -7218.0306   -6670.1612   -984.52155     102002.7      46.7237      46.7237      46.7237 
  100000    110.79648   -7223.7547   -6653.0598   -772.87857     102002.7      46.7237      46.7237      46.7237 
  101000     111.4742   -7224.1253   -6649.9395   -812.25177     102002.7      46.7237      46.7237      46.7237 
  102000     108.3907   -7211.4884   -6653.1853   -633.45121     102002.7      46.7237      46.7237      46.7237 
  103000    109.15363   -7237.1563   -6674.9234    -728.1453     102002.7      46.7237      46.7237      46.7237 
  104000    109.15961   -7222.4746   -6660.2109   -825.91823     102002.7      46.7237      46.7237      46.7237 
  105000    110.83809   -7217.3705   -6646.4612   -932.18495     102002.7      46.7237      46.7237      46.7237 
  106000    110.18189   -7207.0267   -6639.4974   -770.54648     102002.7      46.7237      46.7237      46.7237 
  107000    109.64645   -7210.8474   -6646.0761    -859.4225     102002.7      46.7237      46.7237      46.7237 
  108000    109.98679   -7211.7696   -6645.2453   -741.07478     102002.7      46.7237      46.7237      46.7237 
  109000    108.78534   -7227.9834   -6667.6475   -842.85674     102002.7      46.7237      46.7237      46.7237 
  110000    112.89629   -7224.3554   -6642.8447   -607.44377     102002.7      46.7237      46.7237      46.7237 
  111000    109.42427   -7223.4474   -6659.8205   -438.76895     102002.7      46.7237      46.7237      46.7237 
  112000    108.26759   -7238.8733   -6681.2043   -740.09998     102002.7      46.7237      46.7237      46.7237 
  113000    109.53497   -7220.8024   -6656.6053   -506.64492     102002.7      46.7237      46.7237      46.7237 
  114000    108.20719    -7221.347   -6663.9891   -465.56697     102002.7      46.7237      46.7237      46.7237 
  115000    109.56988   -7212.4524   -6648.0755   -762.16019     102002.7      46.7237      46.7237      46.7237 
  116000    109.25004   -7223.5795   -6660.8501   -818.23296     102002.7      46.7237      46.7237      46.7237 
  117000    107.78452   -7213.6669   -6658.4861   -721.13961     102002.7      46.7237      46.7237      46.7237 
  118000    109.74481   -7205.9984   -6640.7204   -1024.9712     102002.7      46.7237      46.7237      46.7237 
  119000    108.14948   -7226.4442   -6669.3836   -950.69279     102002.7      46.7237      46.7237      46.7237 
  120000    106.32894   -7217.9743    -6670.291   -665.99094     102002.7      46.7237      46.7237      46.7237 
  121000    109.94912   -7221.2887   -6654.9583   -730.25578     102002.7      46.7237      46.7237      46.7237 
  122000    107.53194   -7212.6464   -6658.7666   -628.97292     102002.7      46.7237      46.7237      46.7237 
  123000    104.58595   -7228.4642   -6689.7588   -731.82886     102002.7      46.7237      46.7237      46.7237 
  124000     111.1924   -7221.4852   -6648.7509   -969.89783     102002.7      46.7237      46.7237      46.7237 
  125000    108.00527   -7225.3149   -6668.9971   -592.25299     102002.7      46.7237      46.7237      46.7237 
  126000    112.60069    -7231.506   -6651.5178   -826.05173     102002.7      46.7237      46.7237      46.7237 
  127000    112.23425   -7209.6665   -6631.5659   -961.35906     102002.7      46.7237      46.7237      46.7237 
  128000    108.89409   -7233.3148   -6672.4188   -661.26311     102002.7      46.7237      46.7237      46.7237 
  129000    110.10006   -7219.2733   -6652.1655   -723.57336     102002.7      46.7237      46.7237      46.7237 
  130000    107.93021   -7232.8942    -6676.963   -622.71282     102002.7      46.7237      46.7237      46.7237 
  131000    109.50542   -7216.0142   -6651.9693   -545.16213     102002.7      46.7237      46.7237      46.7237 
  132000    109.54872   -7212.6493   -6648.3814    -569.2299     102002.7      46.7237      46.7237      46.7237 
  133000    110.96512    -7241.533   -6669.9694   -519.08981     102002.7      46.7237      46.7237      46.7237 
  134000    108.81226   -7245.0468   -6684.5723   -701.53487     102002.7      46.7237      46.7237      46.7237 
  135000    109.52902   -7236.0279   -6671.8615   -430.16752     102002.7      46.7237      46.7237      46.7237 
  136000    112.77914   -7220.7733   -6639.8661    -520.5977     102002.7      46.7237      46.7237      46.7237 
  137000    109.76189   -7241.1019    -6675.736   -556.69484     102002.7      46.7237      46.7237      46.7237 
  138000    112.14809   -7204.5183   -6626.8614   -681.31268     102002.7      46.7237      46.7237      46.7237 
  139000    111.73841   -7211.5676    -6636.021   -629.03525     102002.7      46.7237      46.7237      46.7237 
  140000    109.87227   -7220.9506   -6655.0161   -421.05642     102002.7      46.7237      46.7237      46.7237 
  141000    112.26072   -7231.7007   -6653.4638   -637.47033     102002.7      46.7237      46.7237      46.7237 
  142000    106.46619   -7218.5469   -6670.1566   -595.63413     102002.7      46.7237      46.7237      46.7237 
  143000    109.37564   -7224.6846   -6661.3082   -441.02026     102002.7      46.7237      46.7237      46.7237 
  144000    108.33745   -7198.8532   -6640.8244   -568.68185     102002.7      46.7237      46.7237      46.7237 
  145000    113.72486   -7220.6163   -6634.8377    -648.8676     102002.7      46.7237      46.7237      46.7237 
  146000    109.33356   -7231.8422   -6668.6825   -578.83853     102002.7      46.7237      46.7237      46.7237 
  147000    109.37373   -7220.7105   -6657.3439   -654.08354     102002.7      46.7237      46.7237      46.7237 
  148000    113.13661    -7233.296   -6650.5475   -504.81271     102002.7      46.7237      46.7237      46.7237 
  149000     108.3283   -7238.7107   -6680.7289   -542.23527     102002.7      46.7237      46.7237      46.7237 
  150000    112.44985   -7223.6409   -6644.4298    -854.7941     102002.7      46.7237      46.7237      46.7237 
  151000    108.37471    -7230.756   -6672.5352    -549.3477     102002.7      46.7237      46.7237      46.7237 
  152000    107.20717   -7222.1897   -6669.9827   -634.82655     102002.7      46.7237      46.7237      46.7237 
  153000    112.64527   -7212.1485   -6631.9308   -700.23762     102002.7      46.7237      46.7237      46.7237 
  154000    109.59048   -7230.3794   -6665.8964   -411.52421     102002.7      46.7237      46.7237      46.7237 
  155000    112.74605   -7223.7746   -6643.0378   -836.46703     102002.7      46.7237      46.7237      46.7237 
  156000    109.54611   -7237.6064    -6673.352   -371.82283     102002.7      46.7237      46.7237      46.7237 
  157000    110.48354   -7211.0966   -6642.0136   -724.22239     102002.7      46.7237      46.7237      46.7237 
  158000    107.21845   -7214.8453   -6662.5802   -619.76522     102002.7      46.7237      46.7237      46.7237 
  159000    109.98983   -7218.8095   -6652.2695   -482.41778     102002.7      46.7237      46.7237      46.7237 
  160000    111.51739   -7250.6154   -6676.2071   -453.63359     102002.7      46.7237      46.7237      46.7237 
  161000    108.04426   -7214.9441   -6658.4254   -405.58167     102002.7      46.7237      46.7237      46.7237 
  162000    111.74101   -7237.5643   -6662.0043    -395.8809     102002.7      46.7237      46.7237      46.7237 
  163000    105.07983   -7229.9887   -6688.7394   -833.63169     102002.7      46.7237      46.7237      46.7237 
  164000    113.05868   -7237.1877   -6654.8405   -774.95676     102002.7      46.7237      46.7237      46.7237 
  165000    109.96471   -7210.7277   -6644.3171   -877.66327     102002.7      46.7237      46.7237      46.7237 
  166000    108.74734     -7239.36   -6679.2199   -737.67508     102002.7      46.7237      46.7237      46.7237 
  167000    106.94218   -7204.6161   -6653.7741   -884.51562     102002.7      46.7237      46.7237      46.7237 
  168000    109.90071   -7230.3065   -6664.2255   -678.85553     102002.7      46.7237      46.7237      46.7237 
  169000     107.8663    -7238.312   -6682.7099   -713.34842     102002.7      46.7237      46.7237      46.7237 
  170000    110.31985   -7219.7011   -6651.4612   -970.71642     102002.7      46.7237      46.7237      46.7237 
  171000    109.39915   -7228.4379   -6664.9404   -878.06213     102002.7      46.7237      46.7237      46.7237 
  172000    109.87107   -7225.4039   -6659.4756   -698.03969     102002.7      46.7237      46.7237      46.7237 
  173000    110.19778   -7209.0428   -6641.4317   -599.37684     102002.7      46.7237      46.7237      46.7237 
  174000    109.03933   -7214.0472   -6652.4031   -780.03214     102002.7      46.7237      46.7237      46.7237 
  175000    111.07677   -7231.6501   -6659.5115   -1058.6213     102002.7      46.7237      46.7237      46.7237 
  176000    108.32336   -7225.1177   -6667.1615   -865.50196     102002.7      46.7237      46.7237      46.7237 
  177000    107.09363   -7209.8135   -6658.1913   -956.43429     102002.7      46.7237      46.7237      46.7237 
  178000    111.44802   -7220.8682   -6646.8173    -515.1258     102002.7      46.7237      46.7237      46.7237 
  179000    111.69574   -7230.9109    -6655.584   -695.98717     102002.7      46.7237      46.7237      46.7237 
  180000    106.55184   -7229.1633   -6680.3319   -542.53927     102002.7      46.7237      46.7237      46.7237 
  181000    110.35422   -7226.2055   -6657.7886   -658.23808     102002.7      46.7237      46.7237      46.7237 
  182000    109.80284   -7215.2988    -6649.722   -1029.2808     102002.7      46.7237      46.7237      46.7237 
  183000    107.88062   -7228.2119   -6672.5361   -823.59473     102002.7      46.7237      46.7237      46.7237 
  184000    111.22956   -7217.0062   -6644.0805   -976.39287     102002.7      46.7237      46.7237      46.7237 
  185000    113.94621   -7233.3744   -6646.4557   -896.30171     102002.7      46.7237      46.7237      46.7237 
  186000    109.78571   -7227.8887   -6662.4001   -637.49821     102002.7      46.7237      46.7237      46.7237 
  187000    111.97568   -7220.2851   -6643.5163   -840.57888     102002.7      46.7237      46.7237      46.7237 
  188000     106.9353   -7230.1453   -6679.3387   -960.83558     102002.7      46.7237      46.7237      46.7237 
  189000    110.89171   -7234.7248   -6663.5393   -948.92828     102002.7      46.7237      46.7237      46.7237 
  190000    106.60412    -7220.754   -6671.6532   -669.68944     102002.7      46.7237      46.7237      46.7237 
  191000    111.74288   -7218.7248   -6643.1551   -645.38341     102002.7      46.7237      46.7237      46.7237 
  192000    110.54819   -7232.2512   -6662.8352   -680.94672     102002.7      46.7237      46.7237      46.7237 
  193000    110.94433   -7224.4354   -6652.9789   -876.54857     102002.7      46.7237      46.7237      46.7237 
  194000    112.53348   -7222.7697   -6643.1278   -704.31082     102002.7      46.7237      46.7237      46.7237 
  195000    110.81171   -7231.4795   -6660.7062   -769.75529     102002.7      46.7237      46.7237      46.7237 
  196000    110.22315   -7221.4122   -6653.6704   -732.93835     102002.7      46.7237      46.7237      46.7237 
  197000    109.00488   -7239.4236    -6677.957     -446.722     102002.7      46.7237      46.7237      46.7237 
  198000    111.12174   -7213.1426   -6640.7723   -718.03771     102002.7      46.7237      46.7237      46.7237 
  199000    108.24567   -7217.4639   -6659.9077    -221.4089     102002.7      46.7237      46.7237      46.7237 
  200000     107.6752   -7227.3515   -6672.7338   -635.37194     102002.7      46.7237      46.7237      46.7237 
  201000    109.89162   -7226.0145   -6659.9804   -508.60252     102002.7      46.7237      46.7237      46.7237 
  202000    109.06189      -7222.7   -6660.9397   -295.29914     102002.7      46.7237      46.7237      46.7237 
  203000    109.87496   -7214.4299   -6648.4816   -723.30842     102002.7      46.7237      46.7237      46.7237 
  204000    110.08158   -7209.9262   -6642.9136   -573.93624     102002.7      46.7237      46.7237      46.7237 
  205000    112.53641   -7226.4998   -6646.8428   -810.43867     102002.7      46.7237      46.7237      46.7237 
  206000    105.38256   -7227.1548   -6684.3461   -523.74894     102002.7      46.7237      46.7237      46.7237 
  207000    112.27205   -7229.5744    -6651.279   -668.63953     102002.7      46.7237      46.7237      46.7237 
  208000    110.90474   -7205.7151   -6634.4625   -559.44617     102002.7      46.7237      46.7237      46.7237 
  209000    108.97242   -7234.6412   -6673.3417   -687.98212     102002.7      46.7237      46.7237      46.7237 
  210000    112.75511   -7227.4254   -6646.6419   -715.40167     102002.7      46.7237      46.7237      46.7237 
  211000    113.21794   -7229.0404    -6645.873   -897.50785     102002.7      46.7237      46.7237      46.7237 
  212000    109.09098   -7232.7495   -6670.8393   -808.46001     102002.7      46.7237      46.7237      46.7237 
  213000    110.00064    -7224.877   -6658.2813   -713.39776     102002.7      46.7237      46.7237      46.7237 
  214000    110.09527   -7217.4231     -6650.34   -360.95826     102002.7      46.7237      46.7237      46.7237 
  215000    112.81893   -7237.0737   -6655.9614   -637.92907     102002.7      46.7237      46.7237      46.7237 
  216000     109.3592   -7212.2149   -6648.9232   -597.72675     102002.7      46.7237      46.7237      46.7237 
  217000    106.74982   -7212.7195   -6662.8682   -564.10784     102002.7      46.7237      46.7237      46.7237 
  218000    108.71519    -7233.107   -6673.1325   -663.67307     102002.7      46.7237      46.7237      46.7237 
  219000    107.92935   -7220.7601   -6664.8333   -316.33962     102002.7      46.7237      46.7237      46.7237 
  220000    113.73331   -7218.4014   -6632.5793   -676.50222     102002.7      46.7237      46.7237      46.7237 
  221000    110.84698   -7219.3375   -6648.3825   -498.54697     102002.7      46.7237      46.7237      46.7237 
  222000    109.07717   -7227.0603   -6665.2213   -598.49833     102002.7      46.7237      46.7237      46.7237 
  223000    109.00342   -7235.1267   -6673.6676   -803.98737     102002.7      46.7237      46.7237      46.7237 
  224000    112.35554   -7229.6036   -6650.8782   -534.83445     102002.7      46.7237      46.7237      46.7237 
  225000    108.85635   -7211.4658   -6650.7642   -560.18923     102002.7      46.7237      46.7237      46.7237 
  226000    110.25398   -7237.5002   -6669.5996   -737.39113     102002.7      46.7237      46.7237      46.7237 
  227000    109.78343    -7227.518   -6662.0411    -146.8846     102002.7      46.7237      46.7237      46.7237 
  228000    110.41275   -7226.7211   -6658.0027    -564.7726     102002.7      46.7237      46.7237      46.7237 
  229000    107.89971   -7228.9352   -6673.1611   -605.44264     102002.7      46.7237      46.7237      46.7237 
  230000    109.45314   -7216.7522   -6652.9766   -589.30915     102002.7      46.7237      46.7237      46.7237 
  231000     110.4802   -7229.9232   -6660.8574   -871.47035     102002.7      46.7237      46.7237      46.7237 
  232000      110.718   -7227.4232   -6657.1325   -572.86634     102002.7      46.7237      46.7237      46.7237 
  233000    114.43636   -7216.7002   -6627.2569   -592.72919     102002.7      46.7237      46.7237      46.7237 
  234000    110.09627   -7230.7991   -6663.7109   -694.39514     102002.7      46.7237      46.7237      46.7237 
  235000    104.11636   -7212.9647    -6676.678   -824.78676     102002.7      46.7237      46.7237      46.7237 
  236000    106.91576   -7207.1984   -6656.4925   -806.57885     102002.7      46.7237      46.7237      46.7237 
  237000    108.49165   -7228.6423   -6669.8192   -559.84969     102002.7      46.7237      46.7237      46.7237 
  238000    112.11378    -7216.924   -6639.4439   -521.24197     102002.7      46.7237      46.7237      46.7237 
  239000    110.13458   -7222.4509   -6655.1653   -555.56524     102002.7      46.7237      46.7237      46.7237 
  240000    108.79379   -7237.7781   -6677.3987   -852.89652     102002.7      46.7237      46.7237      46.7237 
  241000    109.89692   -7222.3832   -6656.3218   -851.80985     102002.7      46.7237      46.7237      46.7237 
  242000      108.503   -7235.0881   -6676.2066   -596.69878     102002.7      46.7237      46.7237      46.7237 
  243000    109.90183   -7227.9672   -6661.8805   -773.82864     102002.7      46.7237      46.7237      46.7237 
  244000    108.38007   -7227.7804    -6669.532   -293.18298     102002.7      46.7237      46.7237      46.7237 
  245000    110.74515   -7243.1484   -6672.7179    -582.4717     102002.7      46.7237      46.7237      46.7237 
  246000    116.37378   -7205.1458   -6605.7231    -228.6581     102002.7      46.7237      46.7237      46.7237 
  247000    110.12585   -7231.2774   -6664.0368   -356.14724     102002.7      46.7237      46.7237      46.7237 
  248000    107.48315   -7217.6376   -6664.0091   -481.42975     102002.7      46.7237      46.7237      46.7237 
  249000     108.9842   -7241.6302     -6680.27   -619.07961     102002.7      46.7237      46.7237      46.7237 
  250000    108.14698   -7203.3245   -6646.2767   -812.58055     102002.7      46.7237      46.7237      46.7237 
  251000    108.97795   -7222.9646   -6661.6367    -722.9365     102002.7      46.7237      46.7237      46.7237 
  252000    108.96782   -7215.6535   -6654.3777   -695.99766     102002.7      46.7237      46.7237      46.7237 
  253000     107.9977   -7217.8396   -6661.5607    -943.5979     102002.7      46.7237      46.7237      46.7237 
  254000    109.72208   -7226.6718   -6661.5109   -640.94816     102002.7      46.7237      46.7237      46.7237 
  255000    111.85297   -7239.7419   -6663.6052   -527.80826     102002.7      46.7237      46.7237      46.7237 
  256000    111.30046   -7224.7061   -6651.4153   -624.25223     102002.7      46.7237      46.7237      46.7237 
  257000    109.49071   -7226.2731    -6662.304   -433.07642     102002.7      46.7237      46.7237      46.7237 
  258000    110.51903   -7209.7624   -6640.4966   -682.07684     102002.7      46.7237      46.7237      46.7237 
  259000    106.30715   -7211.4061    -6663.835   -702.13779     102002.7      46.7237      46.7237      46.7237 
  260000    109.80758   -7234.7336   -6669.1323   -713.61422     102002.7      46.7237      46.7237      46.7237 
  261000    108.51758   -7227.2601   -6668.3034   -714.49146     102002.7      46.7237      46.7237      46.7237 
  262000    107.02503   -7225.1984   -6673.9296   -697.11302     102002.7      46.7237      46.7237      46.7237 
  263000    110.63379   -7209.9185   -6640.0616   -551.27647     102002.7      46.7237      46.7237      46.7237 
  264000     106.9448   -7248.9238   -6698.0683   -644.03044     102002.7      46.7237      46.7237      46.7237 
  265000    108.37771     -7215.07   -6656.8338   -485.08472     102002.7      46.7237      46.7237      46.7237 
  266000    109.27984   -7221.5613   -6658.6784   -758.86034     102002.7      46.7237      46.7237      46.7237 
  267000    107.87415   -7224.5928   -6668.9504   -685.96313     102002.7      46.7237      46.7237      46.7237 
  268000     109.4436   -7215.9242   -6652.1977   -714.11172     102002.7      46.7237      46.7237      46.7237 
  269000    111.64307   -7223.6092   -6648.5537   -714.03136     102002.7      46.7237      46.7237      46.7237 
  270000    113.19634   -7224.9023   -6641.8461   -649.00972     102002.7      46.7237      46.7237      46.7237 
  271000    114.03436   -7237.3015   -6649.9287   -872.90212     102002.7      46.7237      46.7237      46.7237 
  272000     108.0949   -7227.1828   -6670.4033   -589.60451     102002.7      46.7237      46.7237      46.7237 
  273000    112.43204   -7231.7958   -6652.6764   -649.25814     102002.7      46.7237      46.7237      46.7237 
  274000    115.32596   -7223.3037   -6629.2781   -309.05771     102002.7      46.7237      46.7237      46.7237 
  275000    110.25236   -7230.0589   -6662.1666   -676.56757     102002.7      46.7237      46.7237      46.7237 
  276000    111.81098   -7203.4367   -6627.5162   -674.50335     102002.7      46.7237      46.7237      46.7237 
  277000    110.56662   -7215.7081   -6646.1972   -688.13611     102002.7      46.7237      46.7237      46.7237 
  278000    108.57711    -7235.821   -6676.5576   -764.98369     102002.7      46.7237      46.7237      46.7237 
  279000    112.60259   -7221.0431   -6641.0452   -938.80266     102002.7      46.7237      46.7237      46.7237 
  280000    108.52706   -7227.2606   -6668.2551   -728.38243     102002.7      46.7237      46.7237      46.7237 
  281000    109.55392   -7230.3206   -6666.0259   -527.91523     102002.7      46.7237      46.7237      46.7237 
  282000    111.46802    -7224.957   -6650.8031   -763.55333     102002.7      46.7237      46.7237      46.7237 
  283000    110.72683   -7243.3117   -6672.9755   -643.94199     102002.7      46.7237      46.7237      46.7237 
  284000    111.06535    -7218.393   -6646.3132   -689.96062     102002.7      46.7237      46.7237      46.7237 
  285000    109.68403   -7215.7246   -6650.7598   -592.40798     102002.7      46.7237      46.7237      46.7237 
  286000    110.24772   -7239.1218   -6671.2535   -607.33692     102002.7      46.7237      46.7237      46.7237 
  287000    109.51925   -7221.6833   -6657.5672   -735.92183     102002.7      46.7237      46.7237      46.7237 
  288000      111.365   -7222.1749   -6648.5517     -441.505     102002.7      46.7237      46.7237      46.7237 
  289000     109.0359   -7240.2286   -6678.6022   -630.03835     102002.7      46.7237      46.7237      46.7237 
  290000    109.89636   -7233.7672   -6667.7086    -615.6554     102002.7      46.7237      46.7237      46.7237 
  291000    108.82571   -7218.9975   -6658.4538   -395.62576     102002.7      46.7237      46.7237      46.7237 
  292000    108.53152   -7228.1351   -6669.1066   -644.90487     102002.7      46.7237      46.7237      46.7237 
  293000    111.80733    -7220.365   -6644.4633   -548.12127     102002.7      46.7237      46.7237      46.7237 
  294000    107.10948   -7235.8746   -6684.1708   -542.69645     102002.7      46.7237      46.7237      46.7237 
  295000    112.86386   -7229.0838   -6647.7401   -529.33228     102002.7      46.7237      46.7237      46.7237 
  296000    108.78542   -7241.2793   -6680.9431   -706.46951     102002.7      46.7237      46.7237      46.7237 
  297000    109.21119    -7231.836   -6669.3066   -816.07481     102002.7      46.7237      46.7237      46.7237 
  298000    112.40625   -7215.7565   -6636.7699   -526.36645     102002.7      46.7237      46.7237      46.7237 
  299000    108.07848   -7227.4886   -6670.7937   -737.11448     102002.7      46.7237      46.7237      46.7237 
  300000    110.35056   -7218.9003   -6650.5022   -795.72135     102002.7      46.7237      46.7237      46.7237 
  301000    109.32825   -7238.3702   -6675.2378   -364.02823     102002.7      46.7237      46.7237      46.7237 
  302000    110.17195   -7226.1085   -6658.6305   -567.31251     102002.7      46.7237      46.7237      46.7237 
  303000    106.40396   -7220.4738   -6672.4041   -824.60238     102002.7      46.7237      46.7237      46.7237 
  304000    109.92312   -7225.3998   -6659.2034   -321.74748     102002.7      46.7237      46.7237      46.7237 
  305000    110.28029    -7215.663   -6647.6269   -733.07581     102002.7      46.7237      46.7237      46.7237 
  306000    110.76883   -7230.9296   -6660.3772   -716.45904     102002.7      46.7237      46.7237      46.7237 
  307000    110.10269    -7219.797   -6652.6757   -1077.5997     102002.7      46.7237      46.7237      46.7237 
  308000    108.56269   -7212.8281   -6653.6391   -704.95861     102002.7      46.7237      46.7237      46.7237 
  309000    112.40205   -7230.8454   -6651.8805   -825.30886     102002.7      46.7237      46.7237      46.7237 
  310000    111.91066   -7226.1613   -6649.7275   -1018.9491     102002.7      46.7237      46.7237      46.7237 
  311000    108.05551   -7223.5805   -6667.0039   -523.41491     102002.7      46.7237      46.7237      46.7237 
  312000    108.67611   -7195.3115   -6635.5383   -774.11221     102002.7      46.7237      46.7237      46.7237 
  313000    107.72816   -7215.0598   -6660.1693   -527.71975     102002.7      46.7237      46.7237      46.7237 
  314000    111.33305    -7215.752   -6642.2933   -771.50713     102002.7      46.7237      46.7237      46.7237 
  315000    109.33527   -7238.8496   -6675.6812   -573.21842     102002.7      46.7237      46.7237      46.7237 
  316000    111.18786   -7246.0251   -6673.3142    -475.1961     102002.7      46.7237      46.7237      46.7237 
  317000    111.51711   -7212.8419   -6638.4351    -835.4236     102002.7      46.7237      46.7237      46.7237 
  318000    107.47023   -7227.0665   -6673.5045   -670.75081     102002.7      46.7237      46.7237      46.7237 
  319000    110.37321   -7230.7055   -6662.1908   -493.29974     102002.7      46.7237      46.7237      46.7237 
  320000     109.7167   -7218.0575   -6652.9244   -672.23037     102002.7      46.7237      46.7237      46.7237 
  321000    108.49795   -7238.2656   -6679.4101   -705.54576     102002.7      46.7237      46.7237      46.7237 
  322000    110.52308   -7209.8837   -6640.5971   -482.67622     102002.7      46.7237      46.7237      46.7237 
  323000    113.21838   -7221.3325   -6638.1628   -604.41474     102002.7      46.7237      46.7237      46.7237 
  324000    110.98032   -7220.6541   -6649.0123   -793.98567     102002.7      46.7237      46.7237      46.7237 
  325000    105.26041   -7236.2365    -6694.057   -757.89176     102002.7      46.7237      46.7237      46.7237 
  326000    106.91804   -7215.8648   -6665.1471   -724.31116     102002.7      46.7237      46.7237      46.7237 
  327000    113.09132   -7203.2242    -6620.709   -530.70074     102002.7      46.7237      46.7237      46.7237 
  328000    110.87432    -7240.364   -6669.2681   -712.85866     102002.7      46.7237      46.7237      46.7237 
  329000    105.88734   -7224.5235   -6679.1148   -791.86255     102002.7      46.7237      46.7237      46.7237 
  330000    108.31105   -7205.9498   -6648.0569   -792.03292     102002.7      46.7237      46.7237      46.7237 
  331000    111.38734   -7230.8493    -6657.111   -568.29778     102002.7      46.7237      46.7237      46.7237 
  332000    109.48249   -7229.0051   -6665.0783   -716.04095     102002.7      46.7237      46.7237      46.7237 
  333000    110.39177   -7229.2227   -6660.6123   -752.03885     102002.7      46.7237      46.7237      46.7237 
  334000    109.26497   -7211.5949   -6648.7886   -497.27027     102002.7      46.7237      46.7237      46.7237 
  335000    109.16378   -7241.0037   -6678.7186   -470.71107     102002.7      46.7237      46.7237      46.7237 
  336000    108.39694   -7211.2761   -6652.9409   -485.84499     102002.7      46.7237      46.7237      46.7237 
  337000    113.78986   -7227.7483    -6641.635   -897.38117     102002.7      46.7237      46.7237      46.7237 
  338000    110.88781   -7229.2756   -6658.1102    -642.2893     102002.7      46.7237      46.7237      46.7237 
  339000    109.60716   -7236.4518   -6671.8829   -796.79042     102002.7      46.7237      46.7237      46.7237 
  340000    109.18742   -7199.2031   -6636.7963   -977.25853     102002.7      46.7237      46.7237      46.7237 
  341000    109.71248   -7227.6586   -6662.5472   -869.86789     102002.7      46.7237      46.7237      46.7237 
  342000    111.01235   -7215.0451   -6643.2382   -941.73402     102002.7      46.7237      46.7237      46.7237 
  343000    110.31689   -7215.8519   -6647.6273   -431.79932     102002.7      46.7237      46.7237      46.7237 
  344000    110.38568   -7252.7151   -6684.1361   -858.26661     102002.7      46.7237      46.7237      46.7237 
  345000    110.35303   -7233.5467   -6665.1359   -707.42816     102002.7      46.7237      46.7237      46.7237 
  346000    109.73709   -7239.3879   -6674.1497   -389.55334     102002.7      46.7237      46.7237      46.7237 
  347000    110.86885    -7232.225   -6661.1573   -702.35321     102002.7      46.7237      46.7237      46.7237 
  348000    111.99147   -7215.5645   -6638.7143   -317.76008     102002.7      46.7237      46.7237      46.7237 
  349000    111.09146   -7234.5808   -6662.3665   -413.22142     102002.7      46.7237      46.7237      46.7237 
  350000    110.33137    -7205.138   -6636.8388   -494.09606     102002.7      46.7237      46.7237      46.7237 
  351000    108.94361   -7211.9479   -6650.7968   -217.33371     102002.7      46.7237      46.7237      46.7237 
  352000    110.67459   -7220.9876   -6650.9205   -600.20012     102002.7      46.7237      46.7237      46.7237 
  353000    112.45411   -7247.6504   -6668.4173   -658.11682     102002.7      46.7237      46.7237      46.7237 
  354000    112.12619   -7230.8692   -6653.3251   -500.29356     102002.7      46.7237      46.7237      46.7237 
  355000    108.68911   -7216.2457   -6656.4055   -626.67609     102002.7      46.7237      46.7237      46.7237 
  356000    110.34899   -7235.9888   -6667.5989   -757.49836     102002.7      46.7237      46.7237      46.7237 
  357000    110.52053   -7217.6784   -6648.4049   -544.79099     102002.7      46.7237      46.7237      46.7237 
  358000    111.26322   -7243.4213   -6670.3223   -530.36876     102002.7      46.7237      46.7237      46.7237 
  359000    109.04155   -7206.3565    -6644.701   -598.51169     102002.7      46.7237      46.7237      46.7237 
  360000    111.62318   -7227.7443   -6652.7912    -566.4747     102002.7      46.7237      46.7237      46.7237 
  361000    109.43348   -7203.8558   -6640.1815   -702.70678     102002.7      46.7237      46.7237      46.7237 
  362000    111.74201   -7238.6068   -6663.0416   -494.15944     102002.7      46.7237      46.7237      46.7237 
  363000    108.04604   -7222.1518   -6665.6239   -915.15697     102002.7      46.7237      46.7237      46.7237 
  364000    111.96068   -7219.8407   -6643.1491   -956.12654     102002.7      46.7237      46.7237      46.7237 
  365000    109.34895   -7227.1246   -6663.8857   -608.29494     102002.7      46.7237      46.7237      46.7237 
  366000    109.04552   -7237.6198   -6675.9438   -581.62948     102002.7      46.7237      46.7237      46.7237 
  367000    109.04946   -7211.0787   -6649.3824   -771.47473     102002.7      46.7237      46.7237      46.7237 
  368000    107.97635   -7231.0073   -6674.8385    -837.1924     102002.7      46.7237      46.7237      46.7237 
  369000    109.36032    -7229.765   -6666.4675   -904.19934     102002.7      46.7237      46.7237      46.7237 
  370000    109.44784   -7209.8167   -6646.0684    -721.7778     102002.7      46.7237      46.7237      46.7237 
  371000    108.94293   -7220.2946   -6659.1471   -775.85083     102002.7      46.7237      46.7237      46.7237 
  372000    110.56182     -7213.91   -6644.4238   -794.51751     102002.7      46.7237      46.7237      46.7237 
  373000    107.88667   -7234.8817   -6679.1748   -736.45992     102002.7      46.7237      46.7237      46.7237 
  374000    110.12744     -7214.26   -6647.0112   -645.40625     102002.7      46.7237      46.7237      46.7237 
  375000    111.90773   -7212.9839   -6636.5651   -462.89155     102002.7      46.7237      46.7237      46.7237 
  376000    111.34376   -7197.8399    -6624.326   -623.51639     102002.7      46.7237      46.7237      46.7237 
  377000    108.16418   -7219.6017   -6662.4654   -650.46715     102002.7      46.7237      46.7237      46.7237 
  378000    110.92684   -7224.2155   -6652.8492   -523.76445     102002.7      46.7237      46.7237      46.7237 
  379000    111.86034   -7225.4856   -6649.3109   -864.40572     102002.7      46.7237      46.7237      46.7237 
  380000    110.57374   -7239.4176   -6669.8699   -501.03459     102002.7      46.7237      46.7237      46.7237 
  381000    111.96732   -7233.8767    -6657.151   -702.08612     102002.7      46.7237      46.7237      46.7237 
  382000      110.276   -7216.6662   -6648.6522   -437.16201     102002.7      46.7237      46.7237      46.7237 
  383000    111.09575   -7214.7016   -6642.4652   -566.17904     102002.7      46.7237      46.7237      46.7237 
  384000    109.40905   -7223.0199   -6659.4714   -572.14764     102002.7      46.7237      46.7237      46.7237 
  385000    110.67644   -7206.3209   -6636.2443   -744.91508     102002.7      46.7237      46.7237      46.7237 
  386000    111.83163   -7224.0385   -6648.0117   -596.59888     102002.7      46.7237      46.7237      46.7237 
  387000     110.0095   -7221.1052   -6654.4639   -510.87223     102002.7      46.7237      46.7237      46.7237 
  388000    107.05728   -7204.1626   -6652.7277   -573.60478     102002.7      46.7237      46.7237      46.7237 
  389000    110.05382   -7218.7802   -6651.9106   -481.49845     102002.7      46.7237      46.7237      46.7237 
  390000     108.4629   -7235.0082   -6676.3332   -742.10422     102002.7      46.7237      46.7237      46.7237 
  391000    110.38703   -7221.6487   -6653.0628   -773.21462     102002.7      46.7237      46.7237      46.7237 
  392000    105.38521   -7223.5675   -6680.7451   -899.68848     102002.7      46.7237      46.7237      46.7237 
  393000    108.22044   -7220.5896   -6663.1635   -901.42906     102002.7      46.7237      46.7237      46.7237 
  394000    110.02992    -7199.351   -6632.6045   -675.72436     102002.7      46.7237      46.7237      46.7237 
  395000    109.56116   -7230.9502   -6666.6182   -652.93272     102002.7      46.7237      46.7237      46.7237 
  396000    113.94645   -7212.5755   -6625.6556   -510.56221     102002.7      46.7237      46.7237      46.7237 
  397000    108.03728   -7211.7667    -6655.284   -594.73469     102002.7      46.7237      46.7237      46.7237 
  398000    107.17522   -7232.0897   -6680.0473   -711.84233     102002.7      46.7237      46.7237      46.7237 
  399000    111.92891   -7226.4344   -6649.9065   -475.08978     102002.7      46.7237      46.7237      46.7237 
  400000    112.42598   -7229.1771   -6650.0889   -495.63614     102002.7      46.7237      46.7237      46.7237 
  401000    108.91334   -7225.7445   -6664.7493   -522.25782     102002.7      46.7237      46.7237      46.7237 
  402000    111.58191   -7226.2167   -6651.4762   -951.19594     102002.7      46.7237      46.7237      46.7237 
  403000    110.04045   -7193.8772   -6627.0765    -712.4729     102002.7      46.7237      46.7237      46.7237 
  404000    109.44216   -7234.9058   -6671.1867   -762.51029     102002.7      46.7237      46.7237      46.7237 
  405000    111.57848   -7220.7078   -6645.9849   -604.15216     102002.7      46.7237      46.7237      46.7237 
  406000    110.34447   -7219.8236   -6651.4569   -548.68455     102002.7      46.7237      46.7237      46.7237 
  407000    110.69588   -7222.7503   -6652.5735     -765.563     102002.7      46.7237      46.7237      46.7237 
  408000    111.12546   -7210.4979   -6638.1084   -662.60759     102002.7      46.7237      46.7237      46.7237 
  409000    107.95643   -7227.1874   -6671.1212   -725.51575     102002.7      46.7237      46.7237      46.7237 
  410000    111.63394   -7223.6274   -6648.6188   -591.27206     102002.7      46.7237      46.7237      46.7237 
  411000    108.29893   -7215.2635   -6657.4331   -570.20671     102002.7      46.7237      46.7237      46.7237 
  412000    111.71498   -7226.3406   -6650.9146   -795.65491     102002.7      46.7237      46.7237      46.7237 
  413000    110.60551   -7211.8251   -6642.1138   -644.45914     102002.7      46.7237      46.7237      46.7237 
  414000    109.57127   -7231.3387   -6666.9547   -546.25698     102002.7      46.7237      46.7237      46.7237 
  415000    111.63653   -7216.2436   -6641.2218   -569.66886     102002.7      46.7237      46.7237      46.7237 
  416000    106.44821   -7218.5409   -6670.2432   -814.99334     102002.7      46.7237      46.7237      46.7237 
  417000    108.42755   -7218.7311   -6660.2382     -986.878     102002.7      46.7237      46.7237      46.7237 
  418000    109.60281   -7217.5183   -6652.9718   -835.89791     102002.7      46.7237      46.7237      46.7237 
  419000    109.52144   -7231.1255   -6666.9981   -859.19594     102002.7      46.7237      46.7237      46.7237 
  420000     113.4828   -7242.3528   -6657.8211   -1035.2214     102002.7      46.7237      46.7237      46.7237 
  421000    113.71646   -7207.1596   -6621.4243   -926.65965     102002.7      46.7237      46.7237      46.7237 
  422000    110.23182    -7222.874   -6655.0875    -720.5447     102002.7      46.7237      46.7237      46.7237 
  423000    109.40514   -7226.7895   -6663.2612   -833.63968     102002.7      46.7237      46.7237      46.7237 
  424000    109.12353   -7229.3824   -6667.3045   -641.05283     102002.7      46.7237      46.7237      46.7237 
  425000    113.08466   -7235.3101   -6652.8291   -718.47021     102002.7      46.7237      46.7237      46.7237 
  426000    108.20097    -7247.082   -6689.7561   -750.88337     102002.7      46.7237      46.7237      46.7237 
  427000    108.60382   -7225.8727   -6666.4718   -829.53438     102002.7      46.7237      46.7237      46.7237 
  428000    106.11622    -7231.566   -6684.9784   -720.53907     102002.7      46.7237      46.7237      46.7237 
  429000    109.34824   -7223.6699   -6660.4346   -738.26245     102002.7      46.7237      46.7237      46.7237 
  430000    110.79701   -7207.1718   -6636.4741   -880.89968     102002.7      46.7237      46.7237      46.7237 
  431000    109.19875   -7248.8141   -6686.3488   -563.23077     102002.7      46.7237      46.7237      46.7237 
  432000     112.8608   -7226.2708   -6644.9429   -884.70173     102002.7      46.7237      46.7237      46.7237 
  433000    112.75336   -7243.5126   -6662.7381   -800.97849     102002.7      46.7237      46.7237      46.7237 
  434000    105.20637   -7220.2873   -6678.3862   -755.31444     102002.7      46.7237      46.7237      46.7237 
  435000    114.67239   -7244.1369   -6653.4778   -865.05448     102002.7      46.7237      46.7237      46.7237 
  436000    109.11213   -7237.8694   -6675.8503   -748.97697     102002.7      46.7237      46.7237      46.7237 
  437000    106.72643   -7214.9542   -6665.2234   -856.30226     102002.7      46.7237      46.7237      46.7237 
  438000    111.07364   -7206.3331   -6634.2106   -648.74526     102002.7      46.7237      46.7237      46.7237 
  439000    108.78236   -7229.4421   -6669.1216   -714.40089     102002.7      46.7237      46.7237      46.7237 
  440000    110.29384   -7200.9804   -6632.8745   -602.17396     102002.7      46.7237      46.7237      46.7237 
  441000    108.33737   -7223.3446   -6665.3161   -622.01318     102002.7      46.7237      46.7237      46.7237 
  442000    111.32432   -7191.4255   -6618.0117    -1049.101     102002.7      46.7237      46.7237      46.7237 
  443000    111.40239   -7236.1693   -6662.3534    -588.7117     102002.7      46.7237      46.7237      46.7237 
  444000    108.84582   -7202.7113    -6642.064   -704.29213     102002.7      46.7237      46.7237      46.7237 
  445000    109.23397   -7228.8416   -6666.1949   -672.16569     102002.7      46.7237      46.7237      46.7237 
  446000    111.30239   -7223.0183   -6649.7176   -643.02025     102002.7      46.7237      46.7237      46.7237 
  447000    110.42475   -7242.8694   -6674.0892   -484.00972     102002.7      46.7237      46.7237      46.7237 
  448000    110.10815   -7228.8234    -6661.674   -799.03113     102002.7      46.7237      46.7237      46.7237 
  449000    113.04906    -7234.274   -6651.9764   -586.39564     102002.7      46.7237      46.7237      46.7237 
  450000    109.74819   -7243.7854   -6678.4901   -614.61327     102002.7      46.7237      46.7237      46.7237 
  451000    112.33935   -7227.4512   -6648.8092   -296.85047     102002.7      46.7237      46.7237      46.7237 
  452000    108.95225   -7227.8046    -6666.609   -727.62248     102002.7      46.7237      46.7237      46.7237 
  453000    108.35509   -7220.4809   -6662.3612   -688.51206     102002.7      46.7237      46.7237      46.7237 
  454000    112.90212   -7223.1058   -6641.5651   -401.97401     102002.7      46.7237      46.7237      46.7237 
  455000    110.07021   -7232.1239   -6665.1699   -590.28003     102002.7      46.7237      46.7237      46.7237 
  456000    109.05467   -7231.6101    -6669.887   -741.30641     102002.7      46.7237      46.7237      46.7237 
  457000    108.37738   -7221.8291   -6663.5946    -734.8593     102002.7      46.7237      46.7237      46.7237 
  458000    111.94486   -7216.0667   -6639.4567   -830.57628     102002.7      46.7237      46.7237      46.7237 
  459000    111.02513   -7238.2941   -6666.4214   -774.63574     102002.7      46.7237      46.7237      46.7237 
  460000    110.16362   -7215.9534   -6648.5182   -761.59908     102002.7      46.7237      46.7237      46.7237 
  461000    111.71204   -7234.8353   -6659.4245   -592.48106     102002.7      46.7237      46.7237      46.7237 
  462000    109.03094   -7234.7063   -6673.1054   -679.34117     102002.7      46.7237      46.7237      46.7237 
  463000    109.71543   -7225.5798   -6660.4532    -630.8751     102002.7      46.7237      46.7237      46.7237 
  464000    107.85419   -7228.5886    -6673.049   -777.88776     102002.7      46.7237      46.7237      46.7237 
  465000    109.64588   -7253.5695   -6688.8011   -691.77587     102002.7      46.7237      46.7237      46.7237 
  466000    110.10242   -7216.0021   -6648.8822   -456.30418     102002.7      46.7237      46.7237      46.7237 
  467000    109.23733   -7215.3416   -6652.6777   -688.89482     102002.7      46.7237      46.7237      46.7237 
  468000    109.41717   -7220.3255   -6656.7352   -674.80123     102002.7      46.7237      46.7237      46.7237 
  469000    117.18942   -7241.7455   -6638.1216   -769.04004     102002.7      46.7237      46.7237      46.7237 
  470000    111.99577   -7231.6253    -6654.753   -770.95508     102002.7      46.7237      46.7237      46.7237 
  471000    107.70628   -7213.4045   -6658.6267    -604.8178     102002.7      46.7237      46.7237      46.7237 
  472000    106.08709    -7210.128   -6663.6904   -912.80007     102002.7      46.7237      46.7237      46.7237 
  473000    107.63496    -7217.424   -6663.0136   -484.69911     102002.7      46.7237      46.7237      46.7237 
  474000    109.68552   -7214.5503   -6649.5777   -644.91385     102002.7      46.7237      46.7237      46.7237 
  475000    112.72546   -7235.0188    -6654.388    -781.2282     102002.7      46.7237      46.7237      46.7237 
  476000    108.80808   -7208.9651   -6648.5121   -961.76379     102002.7      46.7237      46.7237      46.7237 
  477000    110.95525   -7229.3344   -6657.8217   -896.51329     102002.7      46.7237      46.7237      46.7237 
  478000    114.20336    -7207.953   -6619.7098   -889.94831     102002.7      46.7237      46.7237      46.7237 
  479000    107.94058   -7230.7685   -6674.7838   -963.57788     102002.7      46.7237      46.7237      46.7237 
  480000    113.35873    -7227.187   -6643.2944   -686.03368     102002.7      46.7237      46.7237      46.7237 
  481000    109.64289   -7227.6649   -6662.9119    -713.5974     102002.7      46.7237      46.7237      46.7237 
  482000    113.90626   -7210.8585   -6624.1457   -495.01546     102002.7      46.7237      46.7237      46.7237 
  483000    110.28277   -7229.9325   -6661.8836   -867.71853     102002.7      46.7237      46.7237      46.7237 
  484000    109.93851   -7225.9271   -6659.6514   -802.73171     102002.7      46.7237      46.7237      46.7237 
  485000    111.39787   -7226.4354   -6652.6428   -641.48455     102002.7      46.7237      46.7237      46.7237 
  486000    109.52829   -7224.9376   -6660.7749   -847.86901     102002.7      46.7237      46.7237      46.7237 
  487000    109.64412   -7206.1949   -6641.4356   -476.05554     102002.7      46.7237      46.7237      46.7237 
  488000    110.10613    -7229.412   -6662.2729   -459.03661     102002.7      46.7237      46.7237      46.7237 
  489000     111.3927    -7224.706   -6650.9401   -542.27265     102002.7      46.7237      46.7237      46.7237 
  490000    106.00109   -7226.0269   -6680.0323   -371.49965     102002.7      46.7237      46.7237      46.7237 
  491000    109.45676   -7224.4213   -6660.6271   -786.54443     102002.7      46.7237      46.7237      46.7237 
  492000    111.02974   -7210.6195    -6638.723   -445.59658     102002.7      46.7237      46.7237      46.7237 
  493000    108.84936   -7224.8339   -6664.1682   -859.89357     102002.7      46.7237      46.7237      46.7237 
  494000    105.91938   -7209.3836   -6663.8098   -815.06052     102002.7      46.7237      46.7237      46.7237 
  495000    111.95982   -7211.8378   -6635.1506   -786.15372     102002.7      46.7237      46.7237      46.7237 
  496000    108.44452   -7251.1561   -6692.5758   -461.83352     102002.7      46.7237      46.7237      46.7237 
  497000    109.20303   -7208.2941   -6645.8068   -412.49511     102002.7      46.7237      46.7237      46.7237 
  498000     113.8241   -7228.7497     -6642.46   -789.49165     102002.7      46.7237      46.7237      46.7237 
  499000    112.83792   -7224.3141    -6643.104     -847.948     102002.7      46.7237      46.7237      46.7237 
  500000    108.86455   -7216.2506   -6655.5068   -891.78355     102002.7      46.7237      46.7237      46.7237 
  500501    107.71402   -7197.5429   -6642.7252   -743.65665     102002.7      46.7237      46.7237      46.7237 
Loop time of 561.059 on 24 procs for 500000 steps with 1729 atoms

Performance: 76.997 ns/day, 0.312 hours/ns, 891.172 timesteps/s
99.9% CPU use with 24 MPI tasks x no OpenMP threads

MPI task timing breakdown:
Section |  min time  |  avg time  |  max time  |%varavg| %total
---------------------------------------------------------------
Pair    | 192.63     | 272.37     | 354.25     | 297.2 | 48.55
Bond    | 75.554     | 78.271     | 82.817     |  19.0 | 13.95
Neigh   | 1.4173     | 1.4319     | 1.443      |   0.8 |  0.26
Comm    | 120.62     | 201.96     | 282.05     | 342.5 | 36.00
Output  | 0.30752    | 0.30782    | 0.31168    |   0.1 |  0.05
Modify  | 3.2616     | 3.7581     | 4.1394     |  12.1 |  0.67
Other   |            | 2.962      |            |       |  0.53

Nlocal:    72.0417 ave 94 max 52 min
Histogram: 1 2 4 3 2 5 4 1 0 2
Nghost:    1972.29 ave 2129 max 1886 min
Histogram: 11 5 0 0 0 0 0 1 3 4
Neighs:    7634.33 ave 12105 max 5130 min
Histogram: 6 2 3 3 5 1 0 1 2 1

Total # of neighbors = 183224
Ave neighs/atom = 105.971
Ave special neighs/atom = 6.66281
Neighbor list builds = 2743
Dangerous builds = 0
Neighbor list info ...
  update every 1 steps, delay 10 steps, check yes
  max neighbors/atom: 2000, page size: 100000
  master list distance cutoff = 16
  ghost atom cutoff = 16
  binsize = 8, bins = 6 6 6
  3 neighbor lists, perpetual/occasional/extra = 3 0 0
  (1) pair buck6d/coul/gauss/dsf, perpetual, skip from (3)
      attributes: half, newton on
      pair build: skip
      stencil: none
      bin: none
  (2) pair lj/cut, perpetual, skip from (3)
      attributes: half, newton on
      pair build: skip
      stencil: none
      bin: none
  (3) neighbor class addition, perpetual
      attributes: half, newton on
      pair build: half/bin/newton
      stencil: half/bin/3d/newton
      bin: standard
Setting up Verlet run ...
  Unit style    : real
  Current step  : 500501
  Time step     : 1
WARNING: Inconsistent image flags (../domain.cpp:786)
Per MPI rank memory allocation (min/avg/max) = 24.1 | 24.47 | 24.57 Mbytes
Step Time TotEng KinEng PotEng E_mol E_pair Temp Pxx Pyy Pzz Pxy Pxz Pyz Cella Cellb Cellc CellAlpha CellBeta CellGamma Volume Press 
  500501       500000   -6642.7252    554.81768   -7197.5429     4341.861   -11539.404    107.71402   -544.85366   -868.43278   -817.68353    141.67884    271.99847    104.25502      46.7237      46.7237      46.7237           90           90           90     102002.7   -743.65665 
  501000       500499   -6654.0134    561.97527   -7215.9886     4323.302   -11539.291    109.10362   -685.52929   -741.65199    -869.1902   -83.235494    -87.35464    162.03936      46.7237      46.7237      46.7237           90           90           90     102002.7   -765.45716 
  502000       501499   -6644.6487     579.9238   -7224.5725    4319.6377    -11544.21     112.5882   -760.67097   -623.63862   -968.78929    297.19335    112.61377   -115.75825      46.7237      46.7237      46.7237           90           90           90     102002.7   -784.36629 
  503000       502499   -6625.9429    583.85199   -7209.7949    4338.2684   -11548.063    113.35084   -746.23912   -314.41826   -561.73972   -47.544429   -58.372862    99.902772      46.7237      46.7237      46.7237           90           90           90     102002.7   -540.79903 
  504000       503499   -6657.8788     574.7709   -7232.6497    4296.2922   -11528.942     111.5878   -506.78339   -629.90448   -687.01208    195.49449    74.640855    239.95917      46.7237      46.7237      46.7237           90           90           90     102002.7   -607.89998 
  505000       504499   -6649.7065    577.57953    -7227.286    4326.1074   -11553.393    112.13308   -576.62738   -406.87466   -936.57684    12.782074    52.303748    383.75482      46.7237      46.7237      46.7237           90           90           90     102002.7   -640.02629 
  506000       505499   -6637.4606     576.0334    -7213.494    4296.9311   -11510.425    111.83291   -408.51157   -614.01449   -863.16571   -150.15338   -128.76546    86.936088      46.7237      46.7237      46.7237           90           90           90     102002.7   -628.56392 
  507000       506499   -6651.0285    571.53786   -7222.5664    4327.1081   -11549.674    110.96013   -693.55323   -390.03005   -896.81405     2.627658     200.6555   0.45805888      46.7237      46.7237      46.7237           90           90           90     102002.7   -660.13244 
  508000       507499   -6662.8582    557.69399   -7220.5522     4302.496   -11523.048    108.27244    -532.7062   -426.50165   -279.65121    26.923151    173.62291    48.717247      46.7237      46.7237      46.7237           90           90           90     102002.7   -412.95302 
  509000       508499   -6676.0522    557.42209   -7233.4743    4300.0114   -11533.486    108.21965   -660.19932   -565.81641   -1033.9754   -7.8859599   -65.559433    114.78351      46.7237      46.7237      46.7237           90           90           90     102002.7   -753.33037 
  510000       509499   -6653.6944    570.07215   -7223.7665    4321.5661   -11545.333    110.67557   -813.69011   -473.73284   -676.41689    106.26992   -95.237858    43.975289      46.7237      46.7237      46.7237           90           90           90     102002.7   -654.61328 
  511000       510499    -6664.309    561.04746   -7225.3565    4302.1454   -11527.502    108.92349   -549.44234   -760.94459   -514.34784   -109.01987    288.00843   -162.18576      46.7237      46.7237      46.7237           90           90           90     102002.7   -608.24493 
  512000       511499    -6666.732    573.61563   -7240.3476    4286.0681   -11526.416    111.36352   -35.163173     -1076.24   -355.67519    245.12357    102.58122    52.410966      46.7237      46.7237      46.7237           90           90           90     102002.7   -489.02611 
  513000       512499    -6647.513    570.21366   -7217.7267    4310.3857   -11528.112    110.70305   -172.05036   -694.72179   -734.50304    83.807775   -102.26677   -303.31765      46.7237      46.7237      46.7237           90           90           90     102002.7    -533.7584 
  514000       513499   -6637.5528    590.07595   -7227.6288    4302.1616    -11529.79    114.55917   -715.80479   -817.89012   -713.46757    61.980065   -9.9917733    78.684291      46.7237      46.7237      46.7237           90           90           90     102002.7   -749.05416 
  515000       514499   -6664.7144    544.97978   -7209.6941    4325.5741   -11535.268    105.80406   -466.12015   -869.71899   -322.02723   -187.98485    154.03057    74.560332      46.7237      46.7237      46.7237           90           90           90     102002.7   -552.62212 
  516000       515499   -6672.0351    564.06478   -7236.0999    4300.3161   -11536.416    109.50928   -663.05939   -844.40563   -967.28561   -63.897636   -221.88995   -61.478112      46.7237      46.7237      46.7237           90           90           90     102002.7   -824.91688 
  517000       516499   -6650.6571    562.53678   -7213.1939    4336.4254   -11549.619    109.21263   -335.33199    -594.6027   -601.74402   -255.49268   -177.54201    69.560485      46.7237      46.7237      46.7237           90           90           90     102002.7   -510.55957 
  518000       517499   -6671.2166    563.11132    -7234.328     4304.152    -11538.48    109.32418   -790.41726   -463.65634   -860.21387    57.125988   -121.12622    124.18202      46.7237      46.7237      46.7237           90           90           90     102002.7   -704.76249 
  519000       518499   -6660.6662    570.66302   -7231.3292    4295.2398   -11526.569    110.79029   -264.89057   -377.62385   -505.50532   -38.790034   -227.20581    177.20332      46.7237      46.7237      46.7237           90           90           90     102002.7   -382.67325 
  520000       519499   -6638.5634    581.96386   -7220.5273    4314.8742   -11535.402    112.98427   -308.81949    -774.0402   -782.37264    170.72745   -191.56014   -193.48896      46.7237      46.7237      46.7237           90           90           90     102002.7   -621.74411 
  521000       520499    -6651.078    572.02395    -7223.102    4305.1287   -11528.231     111.0545    -475.5864    -662.0148   -568.40534    163.40841    148.72782    119.94614      46.7237      46.7237      46.7237           90           90           90     102002.7   -568.66884 
  522000       521499    -6693.389    550.73487   -7244.1239    4306.3243   -11550.448    106.92138    -1061.135   -414.61989   -261.36106   -98.259292   -49.591826   -128.84365      46.7237      46.7237      46.7237           90           90           90     102002.7   -579.03865 
  523000       522499    -6664.312    547.18567   -7211.4977    4321.1636   -11532.661    106.23232    -591.0936   -207.39313   -542.38945    107.93526   -10.311327   -116.87057      46.7237      46.7237      46.7237           90           90           90     102002.7   -446.95873 
  524000       523499   -6637.1209    572.28822   -7209.4091    4322.6077   -11532.017    111.10581   -693.18209   -775.00429   -786.13648    14.177488   -3.8001425   -48.796859      46.7237      46.7237      46.7237           90           90           90     102002.7   -751.44095 
  525000       524499   -6651.5935    582.68276   -7234.2762    4316.5783   -11550.855    113.12384   -982.20935   -1043.9036   -502.53546    58.388642    140.54835   -73.903854      46.7237      46.7237      46.7237           90           90           90     102002.7    -842.8828 
  526000       525499   -6660.1335    572.07856   -7232.2121    4309.7494   -11541.961    111.06511   -617.26707   -1345.0679   -535.61852     11.24935    2.8806523   -73.816593      46.7237      46.7237      46.7237           90           90           90     102002.7   -832.65115 
  527000       526499   -6650.6344    587.27133   -7237.9057    4307.1493   -11545.055    114.01468   -793.72841    -631.8894   -1273.7432    1.0187703    56.501815    237.41129      46.7237      46.7237      46.7237           90           90           90     102002.7   -899.78699 
  528000       527499   -6665.8646    572.21419   -7238.0788    4304.8792   -11542.958    111.09144   -774.48863   -478.16458   -300.61318    93.809438    32.652668    194.35585      46.7237      46.7237      46.7237           90           90           90     102002.7   -517.75546 
  529000       528499   -6638.6633    575.60738   -7214.2707    4326.7467   -11541.017     111.7502    -897.1649     -1012.82   -1193.5197   -7.6229175     144.9314    -121.8951      46.7237      46.7237      46.7237           90           90           90     102002.7   -1034.5015 
  530000       529499    -6667.435    546.54153   -7213.9766    4321.1935    -11535.17    106.10727   -1061.5434   -1118.3297   -749.27845    229.59097   -266.16191    23.026632      46.7237      46.7237      46.7237           90           90           90     102002.7   -976.38385 
  531000       530499   -6655.2945    572.26848    -7227.563    4306.6348   -11534.198    111.10198   -805.35316   -509.50695   -596.48457    38.882233   -98.733253    156.89342      46.7237      46.7237      46.7237           90           90           90     102002.7    -637.1149 
  532000       531499   -6686.0744    546.26097   -7232.3354    4290.6173   -11522.953     106.0528   -621.08762   -1028.3871   -1003.4377    -3.043028    28.824925    22.185271      46.7237      46.7237      46.7237           90           90           90     102002.7   -884.30414 
  533000       532499   -6673.2475    559.38234   -7232.6298    4317.4765   -11550.106    108.60022   -1025.6029   -804.60187   -847.63581   -102.46552    190.35077   -111.15722      46.7237      46.7237      46.7237           90           90           90     102002.7   -892.61354 
  534000       533499   -6639.7156    561.64781   -7201.3634    4337.7132   -11539.077    109.04005   -733.31891   -1071.5778   -624.56286    244.81693    313.50449     -92.6083      46.7237      46.7237      46.7237           90           90           90     102002.7   -809.81987 
  535000       534499   -6643.9137    579.94079   -7223.8545    4304.8779   -11528.732     112.5915   -230.50694   -570.89081   -683.41931    21.851221   -25.390674    41.894874      46.7237      46.7237      46.7237           90           90           90     102002.7   -494.93902 
  536000       535499   -6665.6925    561.93657   -7227.6291    4302.9341   -11530.563    109.09611   -788.23042   -901.07645   -620.75871   -178.24406    287.16491      121.358      46.7237      46.7237      46.7237           90           90           90     102002.7   -770.02186 
  537000       536499   -6643.4717    574.53467   -7218.0063    4323.9115   -11541.918    111.54194   -1060.6908   -486.88573   -561.46712   -82.362997    175.33723     125.3584      46.7237      46.7237      46.7237           90           90           90     102002.7   -703.01454 
  538000       537499   -6654.5757    572.04207   -7226.6178    4273.6807   -11500.298    111.05802   -695.30651   -740.54779   -480.63403   -24.055158   -99.601409   -20.675264      46.7237      46.7237      46.7237           90           90           90     102002.7   -638.82944 
  539000       538499   -6678.5425    553.42194   -7231.9644    4313.4135   -11545.378    107.44305   -664.91655   -508.98124   -678.84315    -281.5682    140.12466    37.557211      46.7237      46.7237      46.7237           90           90           90     102002.7   -617.58031 
  540000       539499   -6656.6037    567.04561   -7223.6494    4288.3334   -11511.983    110.08799   -522.99806   -683.31647    -399.3239    82.018971   -97.676731    29.650156      46.7237      46.7237      46.7237           90           90           90     102002.7   -535.21281 
  541000       540499   -6664.6139    567.32872   -7231.9426    4318.2721   -11550.215    110.14296   -941.08617   -647.50538   -736.57728    73.162893   -55.857202    86.265793      46.7237      46.7237      46.7237           90           90           90     102002.7   -775.05628 
  542000       541499    -6643.088    573.05226   -7216.1402    4295.0581   -11511.198    111.25414   -822.47717   -437.30445   -528.38555   -276.93248   -145.30664   -294.59363      46.7237      46.7237      46.7237           90           90           90     102002.7   -596.05572 
  543000       542499   -6691.2269    542.56902   -7233.7959    4310.1337    -11543.93    105.33603   -462.74854    -798.4588   -923.56983   -71.102848    208.16463   -49.351116      46.7237      46.7237      46.7237           90           90           90     102002.7   -728.25905 
  544000       543499   -6668.3494    562.89261    -7231.242     4299.227   -11530.469    109.28172   -861.07778   -404.43015    -293.9589   -8.9647263    45.401726   -208.44478      46.7237      46.7237      46.7237           90           90           90     102002.7   -519.82227 
  545000       544499   -6640.3669     580.5299   -7220.8968    4301.1441   -11522.041    112.70587   -684.04901   -611.35044      -658.84    24.665344   -105.38436   -76.800582      46.7237      46.7237      46.7237           90           90           90     102002.7   -651.41315 
  546000       545499   -6644.8793    585.54909   -7230.4284    4294.3989   -11524.827    113.68032    -424.5578   -677.76669   -579.12474    159.74531    34.485651    49.312014      46.7237      46.7237      46.7237           90           90           90     102002.7   -560.48308 
  547000       546499   -6645.5487    553.65735    -7199.206    4341.5883   -11540.794    107.48876   -525.81941   -547.14658   -555.08069    99.480507   -207.83314    173.89991      46.7237      46.7237      46.7237           90           90           90     102002.7   -542.68223 
  548000       547499   -6641.8645    578.68972   -7220.5542    4307.4476   -11528.002    112.34862   -659.23794   -942.68571   -706.67292    -135.8039   -95.629215    125.83159      46.7237      46.7237      46.7237           90           90           90     102002.7   -769.53219 
  549000       548499   -6664.6398    551.33359   -7215.9734     4322.014   -11537.987    107.03761   -624.07544    -494.8942   -305.14407    233.64614    313.48187    3.6622358      46.7237      46.7237      46.7237           90           90           90     102002.7   -474.70457 
  550000       549499   -6653.9777    561.52839   -7215.5061    4328.9949   -11544.501    109.01686   -621.16073   -668.95338   -369.79261    291.97749   -260.61723   -47.851219      46.7237      46.7237      46.7237           90           90           90     102002.7   -553.30224 
  551000       550499   -6667.7617    563.38653   -7231.1482    4300.8474   -11531.996    109.37761   -307.29416   -644.92993   -735.62721   -174.13135    13.317546   -89.132208      46.7237      46.7237      46.7237           90           90           90     102002.7    -562.6171 
  552000       551499   -6631.4367    582.90776   -7214.3444     4316.107   -11530.451    113.16752   -1070.0827   -918.64482   -1081.2046    68.169896    99.862664   -221.56838      46.7237      46.7237      46.7237           90           90           90     102002.7   -1023.3107 
  553000       552499   -6640.7469    577.73361   -7218.4805    4320.6317   -11539.112    112.16299   -696.78353   -389.43497   -342.02216    226.11982    133.91037    163.82682      46.7237      46.7237      46.7237           90           90           90     102002.7   -476.08022 
  554000       553499   -6671.5018    558.26595   -7229.7678    4301.0413   -11530.809    108.38348   -1039.9334   -425.87495    -719.9578   -121.42155      214.732   -14.430749      46.7237      46.7237      46.7237           90           90           90     102002.7   -728.58871 
  555000       554499   -6678.2463    557.34137   -7235.5876    4287.0946   -11522.682    108.20398   -656.26967   -542.47502    -635.6525    93.122739    -35.82587    89.525739      46.7237      46.7237      46.7237           90           90           90     102002.7   -611.46573 
[...]
  936000       935499   -6640.5619    575.41494   -7215.9769    4319.0024   -11534.979    111.71284   -816.79178    -833.1707   -874.92883    34.326245     107.1363   -92.162547      46.7237      46.7237      46.7237           90           90           90     102002.7   -841.63044 
  937000       936499   -6673.3646    567.91599   -7241.2806    4283.2177   -11524.498    110.25697    -330.3819   -845.17635   -540.25834     3.052459    17.474456    35.988546      46.7237      46.7237      46.7237           90           90           90     102002.7   -571.93887 
  938000       937499   -6656.6729    564.76887   -7221.4418    4320.9282    -11542.37    109.64598   -670.39805   -507.26815   -657.07442    46.046167    203.64045    129.54975      46.7237      46.7237      46.7237           90           90           90     102002.7   -611.58021 
  939000       938499   -6669.5948    565.45525   -7235.0501    4308.8932   -11543.943    109.77924   -327.21587   -628.03116   -778.67765    120.04253   -160.84141   -126.26343      46.7237      46.7237      46.7237           90           90           90     102002.7   -577.97489 
  940000       939499    -6669.585      560.505     -7230.09    4304.2259   -11534.316    108.81818   -740.59941   -559.19913   -510.27291    270.46036    101.98877   -85.955313      46.7237      46.7237      46.7237           90           90           90     102002.7   -603.35715 
  941000       940499   -6640.8762    582.53823   -7223.4144    4312.1897   -11535.604    113.09578   -792.89752    -686.2863   -451.94294   -30.022702    117.51673   -86.068394      46.7237      46.7237      46.7237           90           90           90     102002.7   -643.70892 
  942000       941499   -6639.3489    568.40899   -7207.7579    4337.5402   -11545.298    110.35268   -684.80358   -734.73182   -1042.7973   -48.830046    54.629251    32.593357      46.7237      46.7237      46.7237           90           90           90     102002.7   -820.77755 
  943000       942499    -6667.751    566.98459   -7234.7356    4294.6014   -11529.337    110.07615    -834.2626   -690.10697   -647.04277    251.59527   -134.98611    21.395178      46.7237      46.7237      46.7237           90           90           90     102002.7   -723.80412 
  944000       943499   -6655.9109    555.32531   -7211.2362    4312.4421   -11523.678    107.81258   -790.61508   -774.28293   -706.28441   -12.432044    1.1968665    77.221988      46.7237      46.7237      46.7237           90           90           90     102002.7   -757.06081 
  945000       944499   -6678.9751    551.67674   -7230.6518    4309.1743   -11539.826    107.10423   -867.24663   -986.41207    -854.2594   -57.224985   -201.08388   -69.546663      46.7237      46.7237      46.7237           90           90           90     102002.7   -902.63937 
  946000       945499   -6637.5598    563.84892   -7201.4088    4334.2211    -11535.63    109.46738   -566.78599   -633.13181    -462.7324   -25.179792     42.14636   -66.066035      46.7237      46.7237      46.7237           90           90           90     102002.7   -554.21674 
  947000       946499    -6660.397    579.60306   -7240.0001    4313.1981   -11553.198    112.52594   -752.08249    -361.6068   -255.45888   -30.990017     37.26918   -83.320412      46.7237      46.7237      46.7237           90           90           90     102002.7   -456.38272 
  948000       947499   -6656.6451    566.73343   -7223.3785    4309.7849   -11533.163    110.02739   -843.97025   -628.82651   -51.216856   -27.889518    5.9409943   -218.80167      46.7237      46.7237      46.7237           90           90           90     102002.7   -508.00454 
  949000       948499   -6644.9668    564.07964   -7209.0465    4317.7697   -11526.816    109.51217    -533.6129   -451.56767    87.544641   -170.59841    55.955301   -121.14344      46.7237      46.7237      46.7237           90           90           90     102002.7   -299.21198 
  950000       949499   -6680.9494    571.57697   -7252.5263    4290.5766   -11543.103    110.96772   -388.79985   -443.50745   -549.21648    107.70704   -42.838584   -61.435476      46.7237      46.7237      46.7237           90           90           90     102002.7   -460.50793 
  951000       950499   -6641.2739     573.3029   -7214.5768    4313.3103   -11527.887     111.3028   -874.79041   -264.16897   -114.88288    -43.36083    50.618592   -65.300951      46.7237      46.7237      46.7237           90           90           90     102002.7   -417.94742 
  952000       951499    -6655.819    581.90583   -7237.7248    4295.9424   -11533.667      112.973    -472.5602   -428.87504   -291.99659    212.10228  -0.99928857   -272.96313      46.7237      46.7237      46.7237           90           90           90     102002.7   -397.81061 
  953000       952499   -6677.6715    552.05399   -7229.7255    4314.3889   -11544.114    107.17747   -289.93204   -529.46915   -565.37003    27.715071   -169.35268    226.33981      46.7237      46.7237      46.7237           90           90           90     102002.7   -461.59041 
  954000       953499   -6638.5034     571.2185   -7209.7219    4315.0008   -11524.723    110.89813   -492.95159   -428.57531   -440.49682   -27.702513   -108.82896    241.55499      46.7237      46.7237      46.7237           90           90           90     102002.7   -454.00791 
  955000       954499   -6651.0557    561.03364   -7212.0894    4327.3997   -11539.489    108.92081   -601.89424   -268.55778   -485.24795   -127.88066    118.07407    105.46947      46.7237      46.7237      46.7237           90           90           90     102002.7   -451.89999 
  956000       955499   -6647.6581     576.9596   -7224.6177    4320.1066   -11544.724    112.01272   -82.374421   -424.65866   -222.97013    267.22881  -0.13758936    48.478587      46.7237      46.7237      46.7237           90           90           90     102002.7    -243.3344 
  957000       956499   -6651.6025    560.30079   -7211.9033     4327.292   -11539.195    108.77853   -320.68692   -484.09449   -466.77404   -83.246571    57.895092   -18.402934      46.7237      46.7237      46.7237           90           90           90     102002.7   -423.85182 
  958000       957499   -6660.8837    562.86852   -7223.7522    4315.4832   -11539.235    109.27704   -539.18117   -35.737421   -139.61146   -412.25966    76.339312   -237.36157      46.7237      46.7237      46.7237           90           90           90     102002.7   -238.17668 
  959000       958499   -6688.6534    549.56988   -7238.2233    4289.6445   -11527.868     106.6952   -470.24153   -632.04768   -742.51207    -345.0589    105.06654   -45.392475      46.7237      46.7237      46.7237           90           90           90     102002.7   -614.93376 
  960000       959499   -6647.4229    563.64004   -7211.0629    4311.1195   -11522.182    109.42682   -1029.6212   -151.83852   -337.66101   -57.670474    203.98674     -61.5114      46.7237      46.7237      46.7237           90           90           90     102002.7   -506.37356 
  961000       960499   -6683.6112    550.26311   -7233.8743    4293.7954    -11527.67    106.82979   -373.29855   -718.40331    -586.7957    -4.034226    -113.3531   -266.82957      46.7237      46.7237      46.7237           90           90           90     102002.7   -559.49919 
  962000       961499   -6654.6023    576.14293   -7230.7453    4303.2492   -11533.994    111.85417   -1048.9271   -640.46819      -544.35    38.099005    128.81406    205.24909      46.7237      46.7237      46.7237           90           90           90     102002.7   -744.58175 
  963000       962499   -6660.0235    565.20398   -7225.2275    4310.7843   -11536.012    109.73045   -1030.7288   -737.51887   -227.60151    -111.0308   -104.39668    88.761827      46.7237      46.7237      46.7237           90           90           90     102002.7   -665.28307 
  964000       963499   -6646.9121    569.53523   -7216.4473    4317.1485   -11533.596    110.57134   -533.66644   -1041.8636   -941.30896    74.339903   -341.55722   -65.646043      46.7237      46.7237      46.7237           90           90           90     102002.7   -838.94632 
  965000       964499   -6671.9642    558.50166   -7230.4659    4306.7919   -11537.258    108.42924   -430.88638   -908.01219   -816.96317   -43.753741   -82.839297    164.90449      46.7237      46.7237      46.7237           90           90           90     102002.7   -718.62058 
  966000       965499   -6651.9154    574.97481   -7226.8902    4306.0253   -11532.915    111.62739   -693.53866   -655.87969   -780.41285    89.100538   -171.08079   -128.11114      46.7237      46.7237      46.7237           90           90           90     102002.7   -709.94373 
  967000       966499   -6683.7559    539.82545   -7223.5813    4311.8678   -11535.449    104.80339   -514.60877   -621.42075   -649.64004    251.70911    152.21886   -75.496643      46.7237      46.7237      46.7237           90           90           90     102002.7   -595.22319 
  968000       967499   -6662.8094    565.91483   -7228.7242    4303.5778   -11532.302    109.86846   -250.01296   -570.06764   -713.77937    -234.6268    17.330981    -74.52959      46.7237      46.7237      46.7237           90           90           90     102002.7   -511.28666 
  969000       968499   -6640.6023    568.95969    -7209.562    4316.6999   -11526.262     110.4596   -468.75658   -649.34395   -826.92168    -62.01579   -29.310028   -44.359704      46.7237      46.7237      46.7237           90           90           90     102002.7   -648.34073 
  970000       969499   -6670.4432    545.22536   -7215.6686    4309.4135   -11525.082    105.85174   -673.13937   -736.02581   -362.01336   -18.516056      30.6481   -120.49308      46.7237      46.7237      46.7237           90           90           90     102002.7   -590.39284 
  971000       970499   -6638.4322      578.809   -7217.2412    4325.7174   -11542.959    112.37177   -454.20099   -763.39195   -1049.3849   -99.448554   -13.305089   -69.880163      46.7237      46.7237      46.7237           90           90           90     102002.7   -755.65928 
  972000       971499   -6667.0256    561.60649   -7228.6321    4310.2296   -11538.862    109.03203   -826.70574   -646.13485   -632.86877   -264.71179     27.41145    121.01357      46.7237      46.7237      46.7237           90           90           90     102002.7   -701.90312 
  973000       972499   -6646.0605    589.21713   -7235.2776    4302.8431   -11538.121    114.39244    -334.3874   -408.79383    -594.5236   -44.496376    94.263909   -140.77327      46.7237      46.7237      46.7237           90           90           90     102002.7   -445.90161 
  974000       973499   -6654.8222    568.00282    -7222.825    4311.6115   -11534.437    110.27383   -823.54567   -677.28381   -673.00363    -151.3323    62.584297    113.47915      46.7237      46.7237      46.7237           90           90           90     102002.7   -724.61104 
  975000       974499   -6650.0809    592.38998   -7242.4709    4301.5717   -11544.043    115.00843   -471.86561    -437.4707   -693.65902    67.474915    32.953648    241.97841      46.7237      46.7237      46.7237           90           90           90     102002.7   -534.33178 
  976000       975499   -6639.0911     577.5215   -7216.6126    4300.5519   -11517.165    112.12181    -293.3267   -575.73897   -1080.2391     267.7155    54.177283   -28.798831      46.7237      46.7237      46.7237           90           90           90     102002.7   -649.76825 
  977000       976499   -6654.1081    566.28279   -7220.3909    4301.4435   -11521.834     109.9399   -655.73979     -364.404   -485.08253    4.4883804    64.301529   -30.555992      46.7237      46.7237      46.7237           90           90           90     102002.7   -501.74211 
  978000       977499   -6657.7067    560.43033    -7218.137    4329.0777   -11547.215    108.80368   -791.77622   -425.41209   -724.32105     326.6895   -105.48513    167.51644      46.7237      46.7237      46.7237           90           90           90     102002.7   -647.16979 
  979000       978499   -6658.9309    555.73373   -7214.6646    4302.4944   -11517.159    107.89187    -259.7021   -653.61748   -319.19656    180.21019     42.71537    100.75898      46.7237      46.7237      46.7237           90           90           90     102002.7   -410.83871 
  980000       979499   -6643.1556     560.9955   -7204.1511    4334.5264   -11538.677    108.91341   -810.42245   -579.81978   -318.04411    95.108198    72.856052   -186.49657      46.7237      46.7237      46.7237           90           90           90     102002.7   -569.42878 
  981000       980499   -6646.0315    573.03919   -7219.0707    4323.0789    -11542.15     111.2516   -925.36959   -800.05542   -541.64643     90.14973    -65.05817   -21.876388      46.7237      46.7237      46.7237           90           90           90     102002.7   -755.69048 
  982000       981499   -6671.3177    558.24666   -7229.5644    4306.6398   -11536.204    108.37974   -653.36621   -530.73791   -555.84878   -94.165851   -56.172441   -34.406162      46.7237      46.7237      46.7237           90           90           90     102002.7    -579.9843 
  983000       982499   -6652.4732     566.9936   -7219.4668    4296.7451   -11516.212     110.0779   -489.09757   -419.29528   -429.59348   -60.773742    88.424332    81.481809      46.7237      46.7237      46.7237           90           90           90     102002.7   -445.99544 
  984000       983499    -6678.343    556.90061   -7235.2436    4321.4793   -11556.723    108.11841   -537.05986   -497.91868   -638.83301    9.4213463   -250.30805     -55.9308      46.7237      46.7237      46.7237           90           90           90     102002.7   -557.93719 
  985000       984499   -6648.2018    575.97465   -7224.1765    4300.9617   -11525.138     111.8215   -293.06283   -348.84608   -458.58977    118.17912   -89.894462     -249.958      46.7237      46.7237      46.7237           90           90           90     102002.7   -366.83289 
  986000       985499   -6658.8563    568.14045   -7226.9967    4320.4457   -11547.442    110.30055   -613.02872   -524.94323   -663.30276   -45.133412    165.05981    111.53302      46.7237      46.7237      46.7237           90           90           90     102002.7    -600.4249 
  987000       986499   -6646.7749    563.17174   -7209.9466    4313.8334    -11523.78    109.33591   -367.31748   -909.30405   -279.05848    92.184884   -119.92164    230.16332      46.7237      46.7237      46.7237           90           90           90     102002.7      -518.56 
  988000       987499   -6680.6886    552.02879   -7232.7174    4312.4344   -11545.152    107.17258   -234.27349   -778.68956    -491.6016     147.0104   -29.471244    21.483453      46.7237      46.7237      46.7237           90           90           90     102002.7   -501.52155 
  989000       988499   -6650.5902    565.08186    -7215.672    4316.8267   -11532.499    109.70674   -534.31235   -694.20684   -718.72229    35.874774   -58.505607    87.836494      46.7237      46.7237      46.7237           90           90           90     102002.7   -649.08049 
  990000       989499   -6653.6779    570.44013    -7224.118    4329.3808   -11553.499    110.74701   -508.31097   -845.72145   -335.63243     251.5586   -101.12326   -22.986687      46.7237      46.7237      46.7237           90           90           90     102002.7   -563.22162 
  991000       990499    -6640.115    563.93401    -7204.049    4332.6685   -11536.718     109.4839   -255.60472   -396.84563   -976.89196    18.673073   -203.37491    19.663393      46.7237      46.7237      46.7237           90           90           90     102002.7    -543.1141 
  992000       991499   -6672.0188    561.08613   -7233.1049    4302.0013   -11535.106      108.931   -275.59029   -524.35743   -811.54834    53.587659   -183.76909    193.31088      46.7237      46.7237      46.7237           90           90           90     102002.7   -537.16535 
  993000       992499   -6648.1175     565.4148   -7213.5323    4307.9387   -11521.471    109.77138   -562.24629   -785.69791   -459.86571  -0.58507047   -361.47514    126.02995      46.7237      46.7237      46.7237           90           90           90     102002.7    -602.6033 
  994000       993499   -6666.9024    558.04687   -7224.9493    4317.9065   -11542.856    108.34095   -584.09779   -706.67239   -732.58094    26.651484    74.268545    -1.578836      46.7237      46.7237      46.7237           90           90           90     102002.7   -674.45037 
  995000       994499   -6640.3338    576.86481   -7217.1986    4305.0403   -11522.239    111.99432   -232.15341   -919.11973   -404.40204     89.84686   -48.166616    254.94954      46.7237      46.7237      46.7237           90           90           90     102002.7   -518.55839 
  996000       995499   -6653.2285    575.70368   -7228.9322     4305.594   -11534.526     111.7689   -1026.6472   -600.83905    -999.4056   -114.22484    81.078407    147.05967      46.7237      46.7237      46.7237           90           90           90     102002.7   -875.63063 
  997000       996499   -6672.1005    567.12108   -7239.2216    4294.1817   -11533.403    110.10264   -774.49399   -628.34542   -638.11236    29.461161      240.111     50.98441      46.7237      46.7237      46.7237           90           90           90     102002.7   -680.31726 
  998000       997499   -6648.1973      556.099   -7204.2963    4328.9265   -11533.223    107.96278   -749.79848   -1308.1957   -656.47483    362.88479    114.08539    91.703331      46.7237      46.7237      46.7237           90           90           90     102002.7   -904.82301 
  999000       998499   -6661.0761    544.24421   -7205.3203    4303.7003   -11509.021    105.66126   -592.13014    -536.8288    -735.3838    117.53637    213.38985   -83.364437      46.7237      46.7237      46.7237           90           90           90     102002.7   -621.44758 
 1000000       999499   -6659.7402    571.48518   -7231.2254    4308.0935   -11539.319     110.9499   -920.03524   -660.13145   -793.05232   -28.628017   -265.00683   -9.1962332      46.7237      46.7237      46.7237           90           90           90     102002.7   -791.07301 
 1000501      1000000   -6637.3016    581.64132   -7218.9429    4298.5016   -11517.445    112.92165   -609.45668    -327.3151   -1085.0018   -182.44913   -199.33464   -98.107854      46.7237      46.7237      46.7237           90           90           90     102002.7   -673.92453 
Loop time of 601.785 on 24 procs for 500000 steps with 1729 atoms

Performance: 71.786 ns/day, 0.334 hours/ns, 830.862 timesteps/s
99.9% CPU use with 24 MPI tasks x no OpenMP threads

MPI task timing breakdown:
Section |  min time  |  avg time  |  max time  |%varavg| %total
---------------------------------------------------------------
Pair    | 219.65     | 300.17     | 383.37     | 280.2 | 49.88
Bond    | 78.013     | 82.309     | 88.054     |  29.2 | 13.68
Neigh   | 1.3501     | 1.3674     | 1.3772     |   0.9 |  0.23
Comm    | 121.92     | 202.71     | 278.29     | 332.2 | 33.68
Output  | 0.34702    | 0.38481    | 0.38657    |   1.3 |  0.06
Modify  | 11.387     | 11.84      | 12.368     |   7.1 |  1.97
Other   |            | 3.006      |            |       |  0.50

Nlocal:    72.0417 ave 99 max 51 min
Histogram: 3 3 1 4 3 5 1 1 1 2
Nghost:    1972.12 ave 2140 max 1866 min
Histogram: 8 8 0 0 0 0 0 0 1 7
Neighs:    7637.33 ave 11332 max 4017 min
Histogram: 2 1 5 1 3 3 2 3 2 2

Total # of neighbors = 183296
Ave neighs/atom = 106.013
Ave special neighs/atom = 6.66281
Neighbor list builds = 2670
Dangerous builds = 0
Total wall time: 0:19:24
