LAMMPS (30 Mar 2018)
Reading data file ...
  orthogonal box = (0 0 0) to (46.7237 46.7237 46.7237)
  2 by 2 by 4 MPI processor grid
  reading atoms ...
  1734 atoms
  scanning bonds ...
  5 = max bonds/atom
  scanning angles ...
  10 = max angles/atom
  scanning dihedrals ...
  32 = max dihedrals/atom
  scanning impropers ...
  3 = max impropers/atom
  reading bonds ...
  2064 bonds
  reading angles ...
  3696 angles
  reading dihedrals ...
  6240 dihedrals
  reading impropers ...
  1008 impropers
Finding 1-2 1-3 1-4 neighbors ...
  special bond factors lj:   0          0          0         
  special bond factors coul: 0          0          0         
  5 = max # of 1-2 neighbors
  8 = max # of 1-3 neighbors
  20 = max # of 1-4 neighbors
  19 = max # of special neighbors
Finding 1-2 1-3 1-4 neighbors ...
  special bond factors lj:   0          0          1         
  special bond factors coul: 1          1          1         
  5 = max # of 1-2 neighbors
  8 = max # of 1-3 neighbors
  19 = max # of special neighbors
WARNING: Using 'neigh_modify every 1 delay 0 check yes' setting during minimization (../min.cpp:168)
Neighbor list info ...
  update every 1 steps, delay 0 steps, check yes
  max neighbors/atom: 2000, page size: 100000
  master list distance cutoff = 16
  ghost atom cutoff = 16
  binsize = 8, bins = 6 6 6
  3 neighbor lists, perpetual/occasional/extra = 3 0 0
  (1) pair buck6d/coul/gauss/dsf, perpetual, skip from (3)
      attributes: half, newton on
      pair build: skip
      stencil: none
      bin: none
  (2) pair lj/cut, perpetual, skip from (3)
      attributes: half, newton on
      pair build: skip
      stencil: none
      bin: none
  (3) neighbor class addition, perpetual
      attributes: half, newton on
      pair build: half/bin/newton
      stencil: half/bin/3d/newton
      bin: standard
Setting up cg style minimization ...
  Unit style    : real
  Current step  : 0
WARNING: Inconsistent image flags (../domain.cpp:786)
Per MPI rank memory allocation (min/avg/max) = 22.89 | 23.35 | 23.79 Mbytes
Step Temp E_pair E_mol TotEng Press 
       0            0   -11531.199    6482.8914   -5048.3079    6286.6769 
     504            0   -11562.938    3744.8492   -7818.0885   -536.02555 
Loop time of 2.69404 on 16 procs for 504 steps with 1734 atoms

99.8% CPU use with 16 MPI tasks x no OpenMP threads

Minimization stats:
  Stopping criterion = max force evaluations
  Energy initial, next-to-last, final = 
        -5048.30787442     -7818.06692651     -7818.08845448
  Force two-norm initial, final = 2576.94 6.50912
  Force max component initial, final = 151.97 0.63543
  Final line search alpha, max atom move = 0.0106535 0.00676957
  Iterations, force evaluations = 504 1001

MPI task timing breakdown:
Section |  min time  |  avg time  |  max time  |%varavg| %total
---------------------------------------------------------------
Pair    | 1.2811     | 1.5673     | 1.9376     |  16.6 | 58.18
Bond    | 0.30771    | 0.3605     | 0.40167    |   4.3 | 13.38
Neigh   | 0.014464   | 0.014613   | 0.014838   |   0.1 |  0.54
Comm    | 0.35016    | 0.71209    | 0.98162    |  23.9 | 26.43
Output  | 0          | 0          | 0          |   0.0 |  0.00
Modify  | 0          | 0          | 0          |   0.0 |  0.00
Other   |            | 0.03949    |            |       |  1.47

Nlocal:    108.375 ave 125 max 95 min
Histogram: 2 1 2 2 1 4 1 1 0 2
Nghost:    2188.88 ave 2202 max 2173 min
Histogram: 2 0 1 1 3 1 3 2 1 2
Neighs:    11452 ave 15884 max 7081 min
Histogram: 1 2 2 2 2 0 2 0 4 1

Total # of neighbors = 183232
Ave neighs/atom = 105.67
Ave special neighs/atom = 6.6436
Neighbor list builds = 13
Dangerous builds = 0
Neighbor list info ...
  update every 1 steps, delay 10 steps, check yes
  max neighbors/atom: 2000, page size: 100000
  master list distance cutoff = 16
  ghost atom cutoff = 16
  binsize = 8, bins = 6 6 6
  3 neighbor lists, perpetual/occasional/extra = 3 0 0
  (1) pair buck6d/coul/gauss/dsf, perpetual, skip from (3)
      attributes: half, newton on
      pair build: skip
      stencil: none
      bin: none
  (2) pair lj/cut, perpetual, skip from (3)
      attributes: half, newton on
      pair build: skip
      stencil: none
      bin: none
  (3) neighbor class addition, perpetual
      attributes: half, newton on
      pair build: half/bin/newton
      stencil: half/bin/3d/newton
      bin: standard
Setting up Verlet run ...
  Unit style    : real
  Current step  : 504
  Time step     : 1
WARNING: Inconsistent image flags (../domain.cpp:786)
Per MPI rank memory allocation (min/avg/max) = 22.54 | 22.61 | 22.69 Mbytes
Step Temp PotEng TotEng Press Volume Lx Ly Lz 
     504           91   -7818.0885   -7348.0058   -325.35908     102002.7      46.7237      46.7237      46.7237 
    1000    83.770384   -7419.3093    -6986.573   -837.34124     102002.7      46.7237      46.7237      46.7237 
    2000    91.864726   -7333.4549   -6858.9053   -588.99119     102002.7      46.7237      46.7237      46.7237 
    3000    86.431606   -7323.0935     -6876.61   -896.97203     102002.7      46.7237      46.7237      46.7237 
    4000    92.258536    -7352.632    -6876.048   -628.01059     102002.7      46.7237      46.7237      46.7237 
    5000    91.667711   -7333.9544   -6860.4225   -759.71556     102002.7      46.7237      46.7237      46.7237 
    6000    90.826102   -7344.1115   -6874.9271   -879.44442     102002.7      46.7237      46.7237      46.7237 
    7000    91.886742    -7337.747   -6863.0837   -462.66708     102002.7      46.7237      46.7237      46.7237 
    8000    93.387999   -7340.2523   -6857.8338   -619.37821     102002.7      46.7237      46.7237      46.7237 
    9000    92.061141   -7346.8929   -6871.3286   -180.73658     102002.7      46.7237      46.7237      46.7237 
   10000    89.488307   -7359.5814   -6897.3077   -718.07752     102002.7      46.7237      46.7237      46.7237 
   11000    90.692903   -7330.8902   -6862.3939    -501.2538     102002.7      46.7237      46.7237      46.7237 
   12000      89.4037   -7340.4562   -6878.6196   -746.70402     102002.7      46.7237      46.7237      46.7237 
   13000    91.407988   -7326.2689   -6854.0786   -823.47136     102002.7      46.7237      46.7237      46.7237 
   14000    90.730035   -7347.6057   -6878.9176   -674.95617     102002.7      46.7237      46.7237      46.7237 
   15000    92.789539   -7344.9621   -6865.6351   -732.39175     102002.7      46.7237      46.7237      46.7237 
   16000    89.345333   -7349.6718   -6888.1367    -644.2094     102002.7      46.7237      46.7237      46.7237 
   17000    90.456155   -7341.1764    -6873.903   -679.18154     102002.7      46.7237      46.7237      46.7237 
   18000    91.733038   -7348.3476   -6874.4782   -546.43246     102002.7      46.7237      46.7237      46.7237 
   19000    85.191466   -7336.7424   -6896.6651   -968.24744     102002.7      46.7237      46.7237      46.7237 
   20000    90.552316   -7336.1038   -6868.3337   -639.40836     102002.7      46.7237      46.7237      46.7237 
   21000     93.92414   -7332.2655   -6847.0774   -920.54762     102002.7      46.7237      46.7237      46.7237 
   22000    90.421362   -7345.4754   -6878.3818   -770.57173     102002.7      46.7237      46.7237      46.7237 
   23000    89.855661   -7339.0343    -6874.863   -741.01626     102002.7      46.7237      46.7237      46.7237 
   24000    89.551497   -7341.9837   -6879.3836   -703.96459     102002.7      46.7237      46.7237      46.7237 
   25000    92.315377   -7341.4436    -6864.566   -612.26523     102002.7      46.7237      46.7237      46.7237 
   26000    88.266389   -7335.7288   -6879.7673   -603.88385     102002.7      46.7237      46.7237      46.7237 
   27000    92.591086   -7333.7555   -6855.4537   -686.52914     102002.7      46.7237      46.7237      46.7237 
   28000    90.951837   -7351.7975   -6881.9636    -655.7959     102002.7      46.7237      46.7237      46.7237 
   29000    92.344187   -7343.2094   -6866.1829   -756.42203     102002.7      46.7237      46.7237      46.7237 
   30000    91.418714    -7337.765   -6865.5193   -590.10603     102002.7      46.7237      46.7237      46.7237 
   31000    91.451107   -7337.4776   -6865.0646   -882.64755     102002.7      46.7237      46.7237      46.7237 
   32000    87.952391    -7353.712   -6899.3724   -637.25669     102002.7      46.7237      46.7237      46.7237 
   33000     92.34139   -7341.7032   -6864.6912    -845.1374     102002.7      46.7237      46.7237      46.7237 
   34000    86.814744   -7330.9179   -6882.4552   -615.44878     102002.7      46.7237      46.7237      46.7237 
   35000    92.419654    -7347.362   -6869.9458   -823.28457     102002.7      46.7237      46.7237      46.7237 
   36000    91.111168    -7350.182    -6879.525   -602.01214     102002.7      46.7237      46.7237      46.7237 
   37000    93.620682   -7336.2705     -6852.65   -768.54092     102002.7      46.7237      46.7237      46.7237 
   38000    88.886483   -7323.0183   -6863.8535    -417.8047     102002.7      46.7237      46.7237      46.7237 
   39000    88.490448   -7335.3072   -6878.1882   -564.18443     102002.7      46.7237      46.7237      46.7237 
   40000    91.366191   -7329.2025   -6857.2282    -803.8073     102002.7      46.7237      46.7237      46.7237 
   41000    89.545229   -7350.8648   -6888.2971   -610.24973     102002.7      46.7237      46.7237      46.7237 
   42000    89.480699   -7341.6761   -6879.4417   -836.09416     102002.7      46.7237      46.7237      46.7237 
   43000    92.266701     -7344.32   -6867.6939   -666.86395     102002.7      46.7237      46.7237      46.7237 
   44000    89.603548   -7338.3629   -6875.4939   -662.59409     102002.7      46.7237      46.7237      46.7237 
   45000    92.021326   -7338.2674   -6862.9088   -432.81905     102002.7      46.7237      46.7237      46.7237 
   46000    88.153856   -7342.2202   -6886.8399   -370.66847     102002.7      46.7237      46.7237      46.7237 
   47000    90.268144   -7342.4424   -6876.1403    -552.8134     102002.7      46.7237      46.7237      46.7237 
   48000    91.531155   -7332.6096   -6859.7831   -641.65871     102002.7      46.7237      46.7237      46.7237 
   49000    91.907398   -7346.4104   -6871.6403   -697.08157     102002.7      46.7237      46.7237      46.7237 
   50000    91.443958   -7355.9982   -6883.6222   -591.34192     102002.7      46.7237      46.7237      46.7237 
   51000    89.917379    -7341.125   -6876.6348   -867.39675     102002.7      46.7237      46.7237      46.7237 
   52000     90.37729   -7353.1526   -6886.2867   -759.14762     102002.7      46.7237      46.7237      46.7237 
   53000    89.197762   -7331.8296   -6871.0568   -564.66183     102002.7      46.7237      46.7237      46.7237 
   54000    89.773875   -7317.2485   -6853.4997   -858.28886     102002.7      46.7237      46.7237      46.7237 
   55000    89.422741   -7349.7662   -6887.8313   -606.39962     102002.7      46.7237      46.7237      46.7237 
   56000    91.514229   -7340.8844   -6868.1453   -860.42788     102002.7      46.7237      46.7237      46.7237 
   57000    90.060686   -7352.8541   -6887.6237    -806.1039     102002.7      46.7237      46.7237      46.7237 
   58000    90.723116   -7332.0167   -6863.3643   -905.82971     102002.7      46.7237      46.7237      46.7237 
   59000    92.385598   -7346.9009   -6869.6606   -415.53757     102002.7      46.7237      46.7237      46.7237 
   60000    91.556246   -7346.4006   -6873.4445   -692.94907     102002.7      46.7237      46.7237      46.7237 
   61000    91.783467   -7341.6589    -6867.529   -653.83247     102002.7      46.7237      46.7237      46.7237 
   62000    90.073031   -7349.3171   -6884.0229   -438.06904     102002.7      46.7237      46.7237      46.7237 
   63000    91.508897   -7342.6306   -6869.9191    -399.9843     102002.7      46.7237      46.7237      46.7237 
   64000    92.409363   -7347.0855   -6869.7224   -463.80761     102002.7      46.7237      46.7237      46.7237 
   65000    90.336722   -7350.1662   -6883.5099   -849.48242     102002.7      46.7237      46.7237      46.7237 
   66000    89.692786   -7333.1368   -6869.8069   -714.67038     102002.7      46.7237      46.7237      46.7237 
   67000    95.481366   -7328.2439   -6835.0116   -767.61898     102002.7      46.7237      46.7237      46.7237 
   68000    90.199376   -7334.1502   -6868.2033   -693.31328     102002.7      46.7237      46.7237      46.7237 
   69000     89.37681   -7356.0681   -6894.3704   -639.38345     102002.7      46.7237      46.7237      46.7237 
   70000    89.377647   -7325.0609   -6863.3588    -873.6336     102002.7      46.7237      46.7237      46.7237 
   71000    88.881276    -7352.422   -6893.2841    -508.7081     102002.7      46.7237      46.7237      46.7237 
   72000    89.526409   -7333.6837   -6871.2132   -1002.4793     102002.7      46.7237      46.7237      46.7237 
   73000    92.979104   -7344.4159   -6864.1097   -639.85802     102002.7      46.7237      46.7237      46.7237 
   74000    89.972761    -7332.297   -6867.5207   -859.09463     102002.7      46.7237      46.7237      46.7237 
   75000    92.165737   -7343.5653   -6867.4607   -899.67824     102002.7      46.7237      46.7237      46.7237 
   76000    91.070508   -7340.6854   -6870.2385   -708.30258     102002.7      46.7237      46.7237      46.7237 
   77000    90.077762   -7353.8641   -6888.5455   -618.86334     102002.7      46.7237      46.7237      46.7237 
   78000    91.968908   -7346.4628    -6871.375   -800.13838     102002.7      46.7237      46.7237      46.7237 
   79000    89.695117    -7342.319    -6878.977   -905.70485     102002.7      46.7237      46.7237      46.7237 
   80000    91.714159   -7344.3957   -6870.6238   -729.15442     102002.7      46.7237      46.7237      46.7237 
   81000    87.389316   -7354.6955   -6903.2647   -671.05848     102002.7      46.7237      46.7237      46.7237 
   82000    93.867597    -7337.456     -6852.56   -919.68567     102002.7      46.7237      46.7237      46.7237 
   83000    90.400711   -7350.9375   -6883.9505   -786.96961     102002.7      46.7237      46.7237      46.7237 
   84000    92.218529   -7344.3914   -6868.0141    -633.8867     102002.7      46.7237      46.7237      46.7237 
   85000    90.267718   -7345.6208   -6879.3209   -924.33457     102002.7      46.7237      46.7237      46.7237 
   86000    90.714185   -7308.0285   -6839.4223   -847.67333     102002.7      46.7237      46.7237      46.7237 
   87000    91.683077   -7339.6304   -6866.0191   -1165.3119     102002.7      46.7237      46.7237      46.7237 
   88000    92.124017   -7347.1944   -6871.3053   -985.76865     102002.7      46.7237      46.7237      46.7237 
   89000    90.906759   -7343.0668   -6873.4658    -879.8966     102002.7      46.7237      46.7237      46.7237 
   90000    95.975765   -7345.8582   -6850.0719   -634.31937     102002.7      46.7237      46.7237      46.7237 
   91000    90.274351   -7350.2425   -6883.9083   -767.20371     102002.7      46.7237      46.7237      46.7237 
   92000     93.77163   -7347.1246   -6862.7244   -531.02453     102002.7      46.7237      46.7237      46.7237 
   93000    90.346733   -7338.5583   -6871.8502   -758.62212     102002.7      46.7237      46.7237      46.7237 
   94000     91.78899   -7355.3974    -6881.239   -1055.8304     102002.7      46.7237      46.7237      46.7237 
   95000    89.038393   -7332.8614   -6872.9119   -828.89012     102002.7      46.7237      46.7237      46.7237 
   96000    87.246642   -7328.1833   -6877.4895   -976.65695     102002.7      46.7237      46.7237      46.7237 
   97000    91.447488   -7355.7592   -6883.3649   -686.90806     102002.7      46.7237      46.7237      46.7237 
   98000      91.4263   -7329.2361   -6856.9512   -660.96804     102002.7      46.7237      46.7237      46.7237 
   99000    90.210789   -7330.9671   -6864.9613   -596.59454     102002.7      46.7237      46.7237      46.7237 
  100000     91.54813   -7351.9255   -6879.0113    -576.6914     102002.7      46.7237      46.7237      46.7237 
  101000    90.990077   -7332.7778   -6862.7464   -1014.8435     102002.7      46.7237      46.7237      46.7237 
  102000    91.343607   -7336.7604   -6864.9027   -1001.8119     102002.7      46.7237      46.7237      46.7237 
  103000    91.731622   -7342.5078   -6868.6457   -752.61145     102002.7      46.7237      46.7237      46.7237 
  104000    92.472556   -7348.8423   -6871.1528   -757.08171     102002.7      46.7237      46.7237      46.7237 
  105000    91.967496    -7352.144   -6877.0635   -624.56561     102002.7      46.7237      46.7237      46.7237 
  106000    92.741046   -7332.5764   -6853.4999   -469.52794     102002.7      46.7237      46.7237      46.7237 
  107000    89.538666   -7345.5283   -6882.9945   -768.35517     102002.7      46.7237      46.7237      46.7237 
  108000    92.709832   -7338.8841   -6859.9688   -583.13653     102002.7      46.7237      46.7237      46.7237 
  109000    88.751436   -7347.5058   -6889.0386    -543.7031     102002.7      46.7237      46.7237      46.7237 
  110000    91.899606   -7336.1865   -6861.4567   -745.03575     102002.7      46.7237      46.7237      46.7237 
  111000    93.902485   -7333.2342    -6848.158   -600.89192     102002.7      46.7237      46.7237      46.7237 
  112000    94.398109   -7342.8595   -6855.2231   -549.03028     102002.7      46.7237      46.7237      46.7237 
  113000     87.99887   -7328.5276    -6873.948   -731.75015     102002.7      46.7237      46.7237      46.7237 
  114000    91.222427   -7350.0676   -6878.8359    -526.7006     102002.7      46.7237      46.7237      46.7237 
  115000    91.755585   -7312.9708   -6838.9849   -616.91787     102002.7      46.7237      46.7237      46.7237 
  116000     89.31353   -7336.3197   -6874.9489   -654.27316     102002.7      46.7237      46.7237      46.7237 
  117000    90.682254   -7341.2745   -6872.8332   -580.10626     102002.7      46.7237      46.7237      46.7237 
  118000    92.023679   -7328.2556   -6852.8849   -786.98967     102002.7      46.7237      46.7237      46.7237 
  119000    92.223811   -7349.4531   -6873.0486   -467.71952     102002.7      46.7237      46.7237      46.7237 
  120000    87.757409   -7327.5765   -6874.2443   -752.71948     102002.7      46.7237      46.7237      46.7237 
  121000    93.907002   -7337.4279   -6852.3284   -709.39211     102002.7      46.7237      46.7237      46.7237 
  122000    90.901845   -7341.5366    -6871.961   -613.44719     102002.7      46.7237      46.7237      46.7237 
  123000    90.486062   -7338.0424   -6870.6146   -857.73197     102002.7      46.7237      46.7237      46.7237 
  124000    88.760948   -7341.7669   -6883.2506   -617.95925     102002.7      46.7237      46.7237      46.7237 
  125000    91.498968   -7327.8529   -6855.1927   -517.46496     102002.7      46.7237      46.7237      46.7237 
  126000    91.334058   -7357.7579   -6885.9495   -705.78344     102002.7      46.7237      46.7237      46.7237 
  127000    94.215322   -7348.4227   -6861.7305   -627.97725     102002.7      46.7237      46.7237      46.7237 
  128000     91.17074   -7344.9702   -6874.0055   -598.80419     102002.7      46.7237      46.7237      46.7237 
  129000    90.417158   -7336.5579    -6869.486   -625.56857     102002.7      46.7237      46.7237      46.7237 
  130000    93.778396   -7336.0599   -6851.6247   -433.44812     102002.7      46.7237      46.7237      46.7237 
  131000    92.433201   -7335.7334   -6858.2472   -658.70229     102002.7      46.7237      46.7237      46.7237 
  132000    92.801563   -7344.4077   -6865.0186   -625.60959     102002.7      46.7237      46.7237      46.7237 
  133000     91.66001    -7346.489   -6872.9968   -563.79482     102002.7      46.7237      46.7237      46.7237 
  134000    93.040323   -7337.2862   -6856.6638   -623.81049     102002.7      46.7237      46.7237      46.7237 
  135000    92.386752   -7349.9172   -6872.6709   -703.62371     102002.7      46.7237      46.7237      46.7237 
  136000    88.052991   -7332.3283   -6877.4691   -521.88854     102002.7      46.7237      46.7237      46.7237 
  137000    89.079927   -7322.8169   -6862.6528   -531.59812     102002.7      46.7237      46.7237      46.7237 
  138000    90.391443    -7348.986    -6882.047   -585.65234     102002.7      46.7237      46.7237      46.7237 
  139000     88.92655   -7341.6503   -6882.2785   -600.14139     102002.7      46.7237      46.7237      46.7237 
  140000    91.451451   -7337.6571   -6865.2423   -568.16795     102002.7      46.7237      46.7237      46.7237 
  141000    94.213707   -7336.7603   -6850.0764   -593.61306     102002.7      46.7237      46.7237      46.7237 
  142000    90.528606   -7338.8187   -6871.1711    -529.6604     102002.7      46.7237      46.7237      46.7237 
  143000    91.667431   -7333.2286   -6859.6981   -679.96606     102002.7      46.7237      46.7237      46.7237 
  144000    91.231484   -7333.7848   -6862.5063   -517.74591     102002.7      46.7237      46.7237      46.7237 
  145000     88.78735   -7341.2017    -6882.549   -675.38086     102002.7      46.7237      46.7237      46.7237 
  146000    93.436046   -7335.8576    -6853.191   -918.88951     102002.7      46.7237      46.7237      46.7237 
  147000    89.927501   -7345.0914    -6880.549   -574.00139     102002.7      46.7237      46.7237      46.7237 
  148000    90.968165   -7329.4874   -6859.5692    -777.0627     102002.7      46.7237      46.7237      46.7237 
  149000    91.277582   -7338.0115   -6866.4949   -754.14821     102002.7      46.7237      46.7237      46.7237 
  150000    89.178378   -7337.8085   -6877.1358   -494.98453     102002.7      46.7237      46.7237      46.7237 
  151000     92.43053    -7316.764   -6839.2916   -730.87245     102002.7      46.7237      46.7237      46.7237 
  152000    91.566409   -7335.7112   -6862.7026   -475.01686     102002.7      46.7237      46.7237      46.7237 
  153000    87.936204   -7340.7831   -6886.5272   -950.49128     102002.7      46.7237      46.7237      46.7237 
  154000    88.702703    -7333.663   -6875.4475   -795.25256     102002.7      46.7237      46.7237      46.7237 
  155000    92.822728   -7336.2313   -6856.7329   -576.95332     102002.7      46.7237      46.7237      46.7237 
  156000     90.97682   -7345.4978   -6875.5348   -918.60399     102002.7      46.7237      46.7237      46.7237 
  157000    90.810951    -7339.452   -6870.3459   -531.71477     102002.7      46.7237      46.7237      46.7237 
  158000    91.750214   -7337.3935   -6863.4354    -927.2844     102002.7      46.7237      46.7237      46.7237 
  159000    92.423519   -7358.2531   -6880.8169   -815.33338     102002.7      46.7237      46.7237      46.7237 
  160000    89.505416   -7334.7889   -6872.4269   -673.03691     102002.7      46.7237      46.7237      46.7237 
  161000     91.47105   -7337.3187   -6864.8026   -831.93359     102002.7      46.7237      46.7237      46.7237 
  162000    92.190091   -7349.3184    -6873.088   -697.24769     102002.7      46.7237      46.7237      46.7237 
  163000    87.416851   -7335.4761    -6883.903   -911.56342     102002.7      46.7237      46.7237      46.7237 
  164000    90.226176   -7337.8373    -6871.752    -800.6532     102002.7      46.7237      46.7237      46.7237 
  165000    91.702157   -7349.7093   -6875.9994   -931.43109     102002.7      46.7237      46.7237      46.7237 
  166000    95.968296   -7347.0138   -6851.2661   -758.38652     102002.7      46.7237      46.7237      46.7237 
  167000    89.328412   -7340.6919   -6879.2442   -904.61135     102002.7      46.7237      46.7237      46.7237 
  168000    89.426468   -7354.9025   -6892.9483   -649.47929     102002.7      46.7237      46.7237      46.7237 
  169000    91.391109    -7337.457    -6865.354   -619.60265     102002.7      46.7237      46.7237      46.7237 
  170000    87.949942   -7348.1627   -6893.8358   -929.60942     102002.7      46.7237      46.7237      46.7237 
  171000    92.867019   -7333.8502    -6854.123   -665.78886     102002.7      46.7237      46.7237      46.7237 
  172000     89.96097   -7345.5448   -6880.8295   -872.17933     102002.7      46.7237      46.7237      46.7237 
  173000     88.17701   -7345.9866   -6890.4868   -796.75471     102002.7      46.7237      46.7237      46.7237 
  174000    92.460255   -7334.1966   -6856.5706    -641.3143     102002.7      46.7237      46.7237      46.7237 
  175000    91.202687   -7345.6326   -6874.5029   -869.62626     102002.7      46.7237      46.7237      46.7237 
  176000    91.192662   -7347.9809    -6876.903   -533.88252     102002.7      46.7237      46.7237      46.7237 
  177000    91.698734   -7334.6551   -6860.9629     -852.663     102002.7      46.7237      46.7237      46.7237 
  178000     87.60348   -7343.2557   -6890.7185   -838.30746     102002.7      46.7237      46.7237      46.7237 
  179000    93.039125   -7347.5923    -6866.976   -431.55268     102002.7      46.7237      46.7237      46.7237 
  180000     90.53018   -7348.0524   -6880.3967   -699.04399     102002.7      46.7237      46.7237      46.7237 
  181000    91.120711    -7337.916   -6867.2098   -698.80106     102002.7      46.7237      46.7237      46.7237 
  182000    92.404991   -7343.2566   -6865.9161   -653.96477     102002.7      46.7237      46.7237      46.7237 
  183000    91.140948   -7349.9187   -6879.1079   -777.61512     102002.7      46.7237      46.7237      46.7237 
  184000    93.294222   -7332.7638   -6850.8298   -677.82452     102002.7      46.7237      46.7237      46.7237 
  185000     88.21851   -7326.1964   -6870.4822   -835.16695     102002.7      46.7237      46.7237      46.7237 
  186000    92.009229    -7344.774   -6869.4779   -580.15709     102002.7      46.7237      46.7237      46.7237 
  187000    89.484198   -7330.4128   -6868.1603    -599.5037     102002.7      46.7237      46.7237      46.7237 
  188000    91.513588    -7330.492   -6857.7562   -703.91441     102002.7      46.7237      46.7237      46.7237 
  189000    90.116547   -7338.3463   -6872.8273   -714.61666     102002.7      46.7237      46.7237      46.7237 
  190000    92.324785   -7336.7413   -6859.8151    -677.6103     102002.7      46.7237      46.7237      46.7237 
  191000    90.776886    -7335.995   -6867.0648   -825.21604     102002.7      46.7237      46.7237      46.7237 
  192000    93.227388   -7341.0957   -6859.5069   -853.18308     102002.7      46.7237      46.7237      46.7237 
  193000    91.461861   -7326.2557   -6853.7872   -719.62488     102002.7      46.7237      46.7237      46.7237 
  194000    87.897885   -7338.5012   -6884.4432   -761.68055     102002.7      46.7237      46.7237      46.7237 
  195000    93.394947   -7333.8074    -6851.353   -786.58627     102002.7      46.7237      46.7237      46.7237 
  196000     88.24493   -7358.8048   -6902.9541   -660.13091     102002.7      46.7237      46.7237      46.7237 
  197000    91.661552   -7336.4648   -6862.9647   -748.34042     102002.7      46.7237      46.7237      46.7237 
  198000    88.681736   -7332.4339   -6874.3268   -789.28447     102002.7      46.7237      46.7237      46.7237 
  199000      91.2824   -7322.4721   -6850.9306   -806.36426     102002.7      46.7237      46.7237      46.7237 
  200000     92.64639   -7351.1716   -6872.5841   -589.17662     102002.7      46.7237      46.7237      46.7237 
  201000    88.223148   -7326.2981   -6870.5599   -466.71581     102002.7      46.7237      46.7237      46.7237 
  202000     88.29612   -7347.0552     -6890.94     -768.816     102002.7      46.7237      46.7237      46.7237 
  203000    91.734714   -7329.8174   -6855.9393   -537.17648     102002.7      46.7237      46.7237      46.7237 
  204000    88.397126   -7341.4996   -6884.8627   -713.53219     102002.7      46.7237      46.7237      46.7237 
  205000    92.244822    -7329.159   -6852.6458   -635.16061     102002.7      46.7237      46.7237      46.7237 
  206000    91.096083   -7343.9449   -6873.3659   -651.60212     102002.7      46.7237      46.7237      46.7237 
  207000    91.865687   -7327.9414   -6853.3868   -651.45634     102002.7      46.7237      46.7237      46.7237 
  208000    90.531133   -7348.3067   -6880.6461   -718.21487     102002.7      46.7237      46.7237      46.7237 
  209000    89.081741   -7355.6835   -6895.5101   -700.05553     102002.7      46.7237      46.7237      46.7237 
  210000    90.190154   -7334.5442   -6868.6449   -655.93229     102002.7      46.7237      46.7237      46.7237 
  211000    91.311894   -7354.1221   -6882.4282   -842.26008     102002.7      46.7237      46.7237      46.7237 
  212000    90.657529   -7324.3314   -6856.0178   -522.03571     102002.7      46.7237      46.7237      46.7237 
  213000    89.293619   -7333.5626   -6872.2947   -799.37123     102002.7      46.7237      46.7237      46.7237 
  214000    92.647878     -7338.25   -6859.6548   -691.41831     102002.7      46.7237      46.7237      46.7237 
  215000    90.231487   -7336.3607   -6870.2479   -544.86979     102002.7      46.7237      46.7237      46.7237 
  216000    91.596999   -7331.4463   -6858.2797   -778.54667     102002.7      46.7237      46.7237      46.7237 
  217000    93.296192    -7350.392   -6868.4478    -471.9201     102002.7      46.7237      46.7237      46.7237 
  218000    88.822117   -7332.2739   -6873.4416   -819.40896     102002.7      46.7237      46.7237      46.7237 
  219000    91.800219   -7342.1235    -6867.907   -614.92576     102002.7      46.7237      46.7237      46.7237 
  220000    89.739991   -7341.1527   -6877.5789   -768.11014     102002.7      46.7237      46.7237      46.7237 
  221000    92.483492   -7346.3034   -6868.5574   -602.39236     102002.7      46.7237      46.7237      46.7237 
  222000    89.938707   -7339.5941   -6874.9937   -583.15018     102002.7      46.7237      46.7237      46.7237 
  223000    90.201181   -7348.1879   -6882.2318   -522.26141     102002.7      46.7237      46.7237      46.7237 
  224000    88.623462   -7318.5674   -6860.7613   -672.09842     102002.7      46.7237      46.7237      46.7237 
  225000    92.112588   -7346.3304   -6870.5004   -635.31071     102002.7      46.7237      46.7237      46.7237 
  226000    91.034203   -7339.6773   -6869.4179   -531.29766     102002.7      46.7237      46.7237      46.7237 
  227000    92.436142   -7323.9619   -6846.4604    -716.2301     102002.7      46.7237      46.7237      46.7237 
  228000    90.255158   -7336.6242   -6870.3891   -620.43541     102002.7      46.7237      46.7237      46.7237 
  229000    89.425175   -7340.9438   -6878.9963   -743.75409     102002.7      46.7237      46.7237      46.7237 
  230000    89.719256   -7329.0834   -6865.6167   -761.84489     102002.7      46.7237      46.7237      46.7237 
  231000    89.017613    -7337.152   -6877.3098   -739.09621     102002.7      46.7237      46.7237      46.7237 
  232000    92.974565   -7355.6843   -6875.4015   -693.06843     102002.7      46.7237      46.7237      46.7237 
  233000    92.236833   -7338.9453   -6862.4734    -771.0028     102002.7      46.7237      46.7237      46.7237 
  234000    92.089908   -7331.0718   -6855.3589   -563.64783     102002.7      46.7237      46.7237      46.7237 
  235000    89.546135   -7333.6749   -6871.1026   -524.36197     102002.7      46.7237      46.7237      46.7237 
  236000    92.685256   -7329.3068   -6850.5186    -457.0468     102002.7      46.7237      46.7237      46.7237 
  237000    88.566146   -7342.3683   -6884.8583   -556.76232     102002.7      46.7237      46.7237      46.7237 
  238000    92.271883   -7335.0704   -6858.4175   -729.71738     102002.7      46.7237      46.7237      46.7237 
  239000    94.097747   -7335.2435   -6849.1587   -457.47778     102002.7      46.7237      46.7237      46.7237 
  240000    90.182641   -7351.5629   -6885.7024   -831.30638     102002.7      46.7237      46.7237      46.7237 
  241000    89.860279   -7336.1855   -6871.9903   -672.88328     102002.7      46.7237      46.7237      46.7237 
  242000     89.99622    -7338.803   -6873.9056    -603.1835     102002.7      46.7237      46.7237      46.7237 
  243000     92.99329   -7334.3727   -6853.9932   -867.16507     102002.7      46.7237      46.7237      46.7237 
  244000    93.638787   -7359.6504   -6875.9364   -833.68642     102002.7      46.7237      46.7237      46.7237 
  245000    86.347526   -7330.3436   -6884.2944   -867.40776     102002.7      46.7237      46.7237      46.7237 
  246000    93.237395   -7357.5509   -6875.9104   -782.36147     102002.7      46.7237      46.7237      46.7237 
  247000    92.187187   -7338.3578   -6862.1424   -602.92138     102002.7      46.7237      46.7237      46.7237 
  248000    88.449025   -7359.2756   -6902.3706   -804.88637     102002.7      46.7237      46.7237      46.7237 
  249000    90.286766   -7328.4284   -6862.0301   -705.91796     102002.7      46.7237      46.7237      46.7237 
  250000    87.574083   -7322.9827   -6870.5974   -799.24071     102002.7      46.7237      46.7237      46.7237 
  251000    89.619785   -7330.5348   -6867.5819   -721.48945     102002.7      46.7237      46.7237      46.7237 
  252000    89.559036   -7351.1371   -6888.4981   -755.87418     102002.7      46.7237      46.7237      46.7237 
  253000    91.974327   -7337.0454   -6861.9296    -1080.553     102002.7      46.7237      46.7237      46.7237 
  254000    90.959539   -7353.6701   -6883.7964   -808.08471     102002.7      46.7237      46.7237      46.7237 
  255000    90.021057   -7338.2607    -6873.235   -966.24373     102002.7      46.7237      46.7237      46.7237 
  256000    92.165256   -7343.8383   -6867.7362   -868.53236     102002.7      46.7237      46.7237      46.7237 
  257000    90.329904   -7335.2554   -6868.6343    -702.5565     102002.7      46.7237      46.7237      46.7237 
  258000    91.724262   -7331.1222   -6857.2982   -981.86791     102002.7      46.7237      46.7237      46.7237 
  259000    90.145345   -7336.7629   -6871.0951   -774.72778     102002.7      46.7237      46.7237      46.7237 
  260000    90.305646   -7346.3362   -6879.8403    -684.7118     102002.7      46.7237      46.7237      46.7237 
  261000    94.174288   -7338.6665   -6852.1863   -1053.6466     102002.7      46.7237      46.7237      46.7237 
  262000    90.104134   -7353.8318   -6888.3769   -551.64311     102002.7      46.7237      46.7237      46.7237 
  263000    84.542964   -7325.2269   -6888.4996   -748.13614     102002.7      46.7237      46.7237      46.7237 
  264000    91.209518   -7321.0078   -6849.8428   -554.79247     102002.7      46.7237      46.7237      46.7237 
  265000    88.312343   -7337.6878   -6881.4889   -803.27643     102002.7      46.7237      46.7237      46.7237 
  266000     88.85885   -7333.3984   -6874.3763   -774.71415     102002.7      46.7237      46.7237      46.7237 
  267000    89.471628   -7339.6097   -6877.4222   -738.22769     102002.7      46.7237      46.7237      46.7237 
  268000    89.287868   -7318.7005   -6857.4623   -668.08895     102002.7      46.7237      46.7237      46.7237 
  269000    90.301579   -7339.6182   -6873.1434   -732.23607     102002.7      46.7237      46.7237      46.7237 
  270000    88.926711   -7323.4876    -6864.115   -577.34706     102002.7      46.7237      46.7237      46.7237 
  271000    92.079593   -7319.8673   -6844.2078   -521.74388     102002.7      46.7237      46.7237      46.7237 
  272000    90.691648   -7342.0602   -6873.5703   -1057.6687     102002.7      46.7237      46.7237      46.7237 
  273000    87.954554   -7346.9265   -6892.5758   -811.81412     102002.7      46.7237      46.7237      46.7237 
  274000      90.8662   -7337.1982   -6867.8067   -608.47933     102002.7      46.7237      46.7237      46.7237 
  275000    88.905679   -7337.6495   -6878.3855   -846.45933     102002.7      46.7237      46.7237      46.7237 
  276000    93.024479   -7321.6265   -6841.0859   -706.72009     102002.7      46.7237      46.7237      46.7237 
  277000    90.119287   -7339.4436   -6873.9105   -741.04098     102002.7      46.7237      46.7237      46.7237 
  278000    93.635901   -7326.4998   -6842.8007   -622.18362     102002.7      46.7237      46.7237      46.7237 
  279000    90.040632   -7340.7179    -6875.591   -591.53926     102002.7      46.7237      46.7237      46.7237 
  280000    87.695386   -7343.8702   -6890.8583   -611.63846     102002.7      46.7237      46.7237      46.7237 
  281000    93.779646   -7339.9667   -6855.5251    -615.3845     102002.7      46.7237      46.7237      46.7237 
  282000    89.943209   -7342.6182   -6877.9946   -489.10988     102002.7      46.7237      46.7237      46.7237 
  283000    93.436414   -7332.3219   -6849.6534   -622.78509     102002.7      46.7237      46.7237      46.7237 
  284000    89.024191   -7337.4163   -6877.5401   -588.03547     102002.7      46.7237      46.7237      46.7237 
  285000    94.154431   -7348.4748   -6862.0971   -358.67968     102002.7      46.7237      46.7237      46.7237 
  286000    86.971512   -7326.7802   -6877.5076   -727.93944     102002.7      46.7237      46.7237      46.7237 
  287000    91.713269   -7345.4286   -6871.6613   -344.02679     102002.7      46.7237      46.7237      46.7237 
  288000    91.020621   -7348.5592     -6878.37   -753.08961     102002.7      46.7237      46.7237      46.7237 
  289000    88.697389   -7335.1902   -6877.0022    -574.4678     102002.7      46.7237      46.7237      46.7237 
  290000    89.924414   -7336.2837   -6871.7572    -608.9099     102002.7      46.7237      46.7237      46.7237 
  291000    91.163784   -7346.5012   -6875.5724   -883.76379     102002.7      46.7237      46.7237      46.7237 
  292000    93.752613   -7324.0634   -6839.7614   -554.85167     102002.7      46.7237      46.7237      46.7237 
  293000    92.171838   -7352.3201    -6876.184   -794.29979     102002.7      46.7237      46.7237      46.7237 
  294000    92.563808   -7330.8887   -6852.7277   -530.49606     102002.7      46.7237      46.7237      46.7237 
  295000     89.59788   -7345.4987    -6882.659   -685.13133     102002.7      46.7237      46.7237      46.7237 
  296000    92.519492   -7332.9157   -6854.9837   -507.34475     102002.7      46.7237      46.7237      46.7237 
  297000    90.052968   -7340.9948   -6875.8042   -639.75341     102002.7      46.7237      46.7237      46.7237 
  298000    88.993174   -7336.7228   -6877.0069   -595.72765     102002.7      46.7237      46.7237      46.7237 
  299000    91.578358   -7337.8059   -6864.7356    -542.1413     102002.7      46.7237      46.7237      46.7237 
  300000    87.527046   -7331.9837   -6879.8414   -754.81711     102002.7      46.7237      46.7237      46.7237 
  301000    90.665338    -7344.115   -6875.7611   -439.72799     102002.7      46.7237      46.7237      46.7237 
  302000    92.850886   -7331.1014   -6851.4575    -969.8995     102002.7      46.7237      46.7237      46.7237 
  303000    90.833449   -7330.8623     -6861.64   -557.00091     102002.7      46.7237      46.7237      46.7237 
  304000    90.288395    -7349.633   -6883.2263   -889.93584     102002.7      46.7237      46.7237      46.7237 
  305000    92.340909   -7331.5438   -6854.5343   -797.81049     102002.7      46.7237      46.7237      46.7237 
  306000    91.401451   -7326.6096   -6854.4531   -738.18202     102002.7      46.7237      46.7237      46.7237 
  307000    90.598869    -7343.906   -6875.8955   -728.20741     102002.7      46.7237      46.7237      46.7237 
  308000    91.076153   -7333.1953   -6862.7193    -406.5893     102002.7      46.7237      46.7237      46.7237 
  309000    91.681048   -7347.5541   -6873.9533   -661.98639     102002.7      46.7237      46.7237      46.7237 
  310000    91.748174   -7332.8931   -6858.9456   -554.28115     102002.7      46.7237      46.7237      46.7237 
  311000     91.02065   -7340.5179   -6870.3286   -793.06632     102002.7      46.7237      46.7237      46.7237 
  312000    89.117036   -7350.4881   -6890.1323   -725.39396     102002.7      46.7237      46.7237      46.7237 
  313000    92.093728   -7338.9488   -6863.2162   -410.38049     102002.7      46.7237      46.7237      46.7237 
  314000    91.382153    -7349.632   -6877.5752   -767.60542     102002.7      46.7237      46.7237      46.7237 
  315000    89.325791   -7354.2464   -6892.8122   -213.27681     102002.7      46.7237      46.7237      46.7237 
  316000    92.293444   -7338.6988   -6861.9345    -392.5935     102002.7      46.7237      46.7237      46.7237 
  317000    94.126736   -7339.7901   -6853.5555   -391.78159     102002.7      46.7237      46.7237      46.7237 
  318000     91.20497   -7346.5297   -6875.3882   -604.98502     102002.7      46.7237      46.7237      46.7237 
  319000    89.068997   -7349.5245   -6889.4169   -753.45047     102002.7      46.7237      46.7237      46.7237 
  320000    91.338045   -7339.5407   -6867.7117   -552.31079     102002.7      46.7237      46.7237      46.7237 
  321000    89.570451     -7342.46    -6879.762   -865.13293     102002.7      46.7237      46.7237      46.7237 
  322000    93.350855   -7338.0117   -6855.7851   -613.96397     102002.7      46.7237      46.7237      46.7237 
  323000    91.819991   -7340.6084   -6866.2898   -675.49572     102002.7      46.7237      46.7237      46.7237 
  324000    89.221179     -7345.58   -6884.6862   -567.28838     102002.7      46.7237      46.7237      46.7237 
  325000    92.604427   -7342.9642   -6864.5935   -556.36702     102002.7      46.7237      46.7237      46.7237 
  326000    91.824215   -7357.2766   -6882.9362   -568.58024     102002.7      46.7237      46.7237      46.7237 
  327000    90.566865     -7336.83   -6868.9848   -460.72787     102002.7      46.7237      46.7237      46.7237 
  328000    92.193719   -7341.2251    -6864.976   -1006.9402     102002.7      46.7237      46.7237      46.7237 
  329000    89.447574   -7349.2515   -6887.1882   -877.71672     102002.7      46.7237      46.7237      46.7237 
  330000    90.652205   -7342.1701    -6873.884   -694.27445     102002.7      46.7237      46.7237      46.7237 
  331000    92.624524     -7345.37   -6866.8954   -660.90762     102002.7      46.7237      46.7237      46.7237 
  332000    87.554473   -7351.8722   -6899.5882   -507.59492     102002.7      46.7237      46.7237      46.7237 
  333000    92.560857   -7342.1533   -6864.0076   -724.26722     102002.7      46.7237      46.7237      46.7237 
  334000    91.742411   -7322.3627   -6848.4449   -673.31969     102002.7      46.7237      46.7237      46.7237 
  335000    92.553504   -7342.6481   -6864.5404   -672.08735     102002.7      46.7237      46.7237      46.7237 
  336000    92.977153   -7359.8856   -6879.5895   -641.21566     102002.7      46.7237      46.7237      46.7237 
  337000    92.226751   -7349.9251   -6873.5053   -607.84019     102002.7      46.7237      46.7237      46.7237 
  338000    92.917643   -7335.3077    -6855.319   -319.18874     102002.7      46.7237      46.7237      46.7237 
  339000     91.55689   -7344.0118   -6871.0523   -506.29824     102002.7      46.7237      46.7237      46.7237 
  340000    89.786937    -7346.399   -6882.5827   -546.86552     102002.7      46.7237      46.7237      46.7237 
  341000    94.401236   -7363.1269   -6875.4743   -590.84353     102002.7      46.7237      46.7237      46.7237 
  342000    93.386763   -7346.1819   -6863.7698   -402.06176     102002.7      46.7237      46.7237      46.7237 
  343000    89.704522   -7340.7792   -6877.3886   -677.71791     102002.7      46.7237      46.7237      46.7237 
  344000     91.63917   -7332.1574   -6858.7729   -544.83482     102002.7      46.7237      46.7237      46.7237 
  345000    91.728193   -7347.8315   -6873.9872   -731.58147     102002.7      46.7237      46.7237      46.7237 
  346000    88.901667   -7347.6566   -6888.4134   -891.71449     102002.7      46.7237      46.7237      46.7237 
  347000    92.217007   -7334.8838   -6858.5143   -608.99557     102002.7      46.7237      46.7237      46.7237 
  348000    90.565594   -7347.7524   -6879.9137   -625.33143     102002.7      46.7237      46.7237      46.7237 
  349000    91.193385   -7329.7938   -6858.7122   -439.78571     102002.7      46.7237      46.7237      46.7237 
  350000    93.117617   -7328.2813   -6847.2596   -508.16496     102002.7      46.7237      46.7237      46.7237 
  351000    91.097739   -7347.8753   -6877.2877    -714.9472     102002.7      46.7237      46.7237      46.7237 
  352000    92.957441   -7324.6447   -6844.4504    -248.7435     102002.7      46.7237      46.7237      46.7237 
  353000    90.615193   -7334.4794   -6866.3846   -639.71214     102002.7      46.7237      46.7237      46.7237 
  354000    92.565856   -7340.6815     -6862.51   -484.39265     102002.7      46.7237      46.7237      46.7237 
  355000    90.259659   -7329.2568   -6862.9985   -859.54261     102002.7      46.7237      46.7237      46.7237 
  356000    94.133871   -7345.0419   -6858.7705   -683.88232     102002.7      46.7237      46.7237      46.7237 
  357000    89.153493   -7324.5678   -6864.0237   -815.93774     102002.7      46.7237      46.7237      46.7237 
  358000    87.941008   -7350.6265   -6896.3457   -619.20396     102002.7      46.7237      46.7237      46.7237 
  359000     90.90593   -7329.0552   -6859.4584   -560.75427     102002.7      46.7237      46.7237      46.7237 
  360000    89.118503   -7336.4092   -6876.0458   -607.54147     102002.7      46.7237      46.7237      46.7237 
  361000    93.927179   -7333.0993   -6847.8956   -634.07222     102002.7      46.7237      46.7237      46.7237 
  362000    92.385442   -7345.3994   -6868.1599   -867.71477     102002.7      46.7237      46.7237      46.7237 
  363000    89.658699   -7364.3532   -6901.1994     -709.643     102002.7      46.7237      46.7237      46.7237 
  364000    91.063157   -7338.6244   -6868.2154   -925.33303     102002.7      46.7237      46.7237      46.7237 
  365000    89.978964   -7366.3197   -6901.5115   -691.86289     102002.7      46.7237      46.7237      46.7237 
  366000    91.095566   -7333.2667   -6862.6903   -750.91774     102002.7      46.7237      46.7237      46.7237 
  367000     92.06336   -7330.3294   -6854.7537   -862.73142     102002.7      46.7237      46.7237      46.7237 
  368000    91.279487   -7347.5201   -6875.9937   -637.06799     102002.7      46.7237      46.7237      46.7237 
  369000    92.367984   -7329.5824   -6852.4331   -761.85496     102002.7      46.7237      46.7237      46.7237 
  370000    88.556788   -7343.6278   -6886.1661    -923.5415     102002.7      46.7237      46.7237      46.7237 
  371000    96.225174   -7346.5095   -6849.4349   -603.45517     102002.7      46.7237      46.7237      46.7237 
  372000    90.633646   -7332.0505   -6863.8603   -834.68428     102002.7      46.7237      46.7237      46.7237 
  373000    90.198391   -7343.3751   -6877.4333   -686.58934     102002.7      46.7237      46.7237      46.7237 
  374000    92.266146   -7339.7337   -6863.1104   -768.91901     102002.7      46.7237      46.7237      46.7237 
  375000    93.044017   -7319.6287   -6838.9871   -620.02445     102002.7      46.7237      46.7237      46.7237 
  376000    92.443254   -7351.8946   -6874.3565    -574.0812     102002.7      46.7237      46.7237      46.7237 
  377000    94.665838   -7343.9229   -6854.9034   -515.57959     102002.7      46.7237      46.7237      46.7237 
  378000    87.357456   -7329.6373    -6878.371   -763.78486     102002.7      46.7237      46.7237      46.7237 
  379000    94.876632   -7335.1344    -6845.026   -894.59962     102002.7      46.7237      46.7237      46.7237 
  380000    91.783922   -7354.8658   -6880.7335   -781.83807     102002.7      46.7237      46.7237      46.7237 
  381000    93.644463   -7336.8771   -6853.1338   -459.38967     102002.7      46.7237      46.7237      46.7237 
  382000    87.848458   -7331.0407    -6877.238    -584.5205     102002.7      46.7237      46.7237      46.7237 
  383000    90.374331   -7327.5481   -6860.6975   -582.89395     102002.7      46.7237      46.7237      46.7237 
  384000    90.650793   -7345.1443   -6876.8655   -735.28733     102002.7      46.7237      46.7237      46.7237 
  385000    91.861548   -7333.5449   -6859.0117   -867.72357     102002.7      46.7237      46.7237      46.7237 
  386000     91.35809   -7336.2459   -6864.3134   -909.69965     102002.7      46.7237      46.7237      46.7237 
  387000    91.405167   -7347.0788   -6874.9031   -937.85201     102002.7      46.7237      46.7237      46.7237 
  388000    92.472773   -7345.0257    -6867.335   -878.01396     102002.7      46.7237      46.7237      46.7237 
  389000    92.177666   -7326.5467   -6850.3805   -1047.7741     102002.7      46.7237      46.7237      46.7237 
  390000    94.385114   -7344.1876   -6856.6183   -622.60983     102002.7      46.7237      46.7237      46.7237 
  391000    90.647487   -7351.1327   -6882.8711   -692.64057     102002.7      46.7237      46.7237      46.7237 
  392000    90.378254   -7341.0053   -6874.1344   -801.28131     102002.7      46.7237      46.7237      46.7237 
  393000    89.118203   -7343.1077   -6882.7458   -460.47571     102002.7      46.7237      46.7237      46.7237 
  394000    90.019104   -7340.6523   -6875.6367    -708.8979     102002.7      46.7237      46.7237      46.7237 
  395000    92.063741   -7325.6454   -6850.0677   -808.91984     102002.7      46.7237      46.7237      46.7237 
  396000    90.047847   -7343.9861    -6878.822   -846.72299     102002.7      46.7237      46.7237      46.7237 
  397000    90.907496   -7350.6527   -6881.0478   -710.46948     102002.7      46.7237      46.7237      46.7237 
  398000    90.908088   -7319.7039    -6850.096   -774.34654     102002.7      46.7237      46.7237      46.7237 
  399000    93.225974   -7340.4433   -6858.8618   -639.19537     102002.7      46.7237      46.7237      46.7237 
  400000    88.872936   -7348.9813   -6889.8865   -901.96769     102002.7      46.7237      46.7237      46.7237 
  401000    91.827053   -7348.6714   -6874.3164   -752.42624     102002.7      46.7237      46.7237      46.7237 
  402000    90.861857   -7356.8619   -6887.4928   -832.90964     102002.7      46.7237      46.7237      46.7237 
  403000    88.721632   -7323.9081   -6865.5949   -919.08678     102002.7      46.7237      46.7237      46.7237 
  404000    90.101569   -7335.0721   -6869.6305   -760.49773     102002.7      46.7237      46.7237      46.7237 
  405000    88.944402   -7332.6438   -6873.1798   -771.97322     102002.7      46.7237      46.7237      46.7237 
  406000    91.438317   -7322.8801   -6850.5332   -724.53725     102002.7      46.7237      46.7237      46.7237 
  407000     89.77221   -7343.7025   -6879.9623   -682.33486     102002.7      46.7237      46.7237      46.7237 
  408000    91.871976   -7340.0195   -6865.4324   -751.22287     102002.7      46.7237      46.7237      46.7237 
  409000    92.060937   -7334.3521   -6858.7889   -566.53699     102002.7      46.7237      46.7237      46.7237 
  410000    88.240221   -7330.8795   -6875.0532   -691.22249     102002.7      46.7237      46.7237      46.7237 
  411000    89.933468   -7337.8134   -6873.2401   -734.50855     102002.7      46.7237      46.7237      46.7237 
  412000    89.547891   -7346.5715     -6883.99   -657.71269     102002.7      46.7237      46.7237      46.7237 
  413000    93.282314   -7361.8167   -6879.9442   -693.77242     102002.7      46.7237      46.7237      46.7237 
  414000    91.648954   -7337.9068   -6864.4718   -495.17199     102002.7      46.7237      46.7237      46.7237 
  415000    89.831394   -7342.8585   -6878.8126     -691.604     102002.7      46.7237      46.7237      46.7237 
  416000    91.218225   -7331.3886   -6860.1786   -772.26293     102002.7      46.7237      46.7237      46.7237 
  417000    90.382004   -7344.2166   -6877.3263   -906.89968     102002.7      46.7237      46.7237      46.7237 
  418000    92.010952   -7350.3793   -6875.0743   -696.95526     102002.7      46.7237      46.7237      46.7237 
  419000    91.352685   -7337.9382   -6866.0337   -729.99216     102002.7      46.7237      46.7237      46.7237 
  420000    92.677163   -7336.8781   -6858.1316   -441.90259     102002.7      46.7237      46.7237      46.7237 
  421000    90.849346   -7344.5977   -6875.2933   -606.34169     102002.7      46.7237      46.7237      46.7237 
  422000     90.23102   -7329.6825   -6863.5722   -535.24381     102002.7      46.7237      46.7237      46.7237 
  423000    93.823534   -7348.8815   -6864.2132   -937.88246     102002.7      46.7237      46.7237      46.7237 
  424000    90.499985   -7352.4147   -6884.9149   -552.99554     102002.7      46.7237      46.7237      46.7237 
  425000    95.172921   -7344.2966   -6852.6577    -750.6684     102002.7      46.7237      46.7237      46.7237 
  426000    90.329222   -7345.9038   -6879.2862   -747.59662     102002.7      46.7237      46.7237      46.7237 
  427000    89.173784   -7347.7277   -6887.0788   -506.14339     102002.7      46.7237      46.7237      46.7237 
  428000    90.591865   -7343.1582   -6875.1839   -470.11743     102002.7      46.7237      46.7237      46.7237 
  429000    93.552685   -7339.2755   -6856.0063   -372.44552     102002.7      46.7237      46.7237      46.7237 
  430000    94.403167    -7354.562   -6866.8994   -863.95033     102002.7      46.7237      46.7237      46.7237 
  431000     91.78842   -7343.4537   -6869.2982   -677.73577     102002.7      46.7237      46.7237      46.7237 
  432000    92.048191   -7328.8942   -6853.3969   -489.20181     102002.7      46.7237      46.7237      46.7237 
  433000    91.505616   -7355.6072   -6882.9126   -850.46365     102002.7      46.7237      46.7237      46.7237 
  434000    89.404734   -7351.7762   -6889.9343   -588.88679     102002.7      46.7237      46.7237      46.7237 
  435000    93.090262   -7344.7795    -6863.899   -661.74344     102002.7      46.7237      46.7237      46.7237 
  436000    89.687752   -7339.3546   -6876.0506   -770.77256     102002.7      46.7237      46.7237      46.7237 
  437000    88.648369   -7323.3802   -6865.4454   -687.90463     102002.7      46.7237      46.7237      46.7237 
  438000    90.104573   -7343.5669   -6878.1098   -479.51667     102002.7      46.7237      46.7237      46.7237 
  439000    92.344818   -7331.3087   -6854.2791   -490.14909     102002.7      46.7237      46.7237      46.7237 
  440000    91.949433   -7350.7151   -6875.7279   -809.78127     102002.7      46.7237      46.7237      46.7237 
  441000    90.628125   -7344.4168   -6876.2551   -642.45857     102002.7      46.7237      46.7237      46.7237 
  442000    91.556141   -7350.6443   -6877.6887   -839.78923     102002.7      46.7237      46.7237      46.7237 
  443000    90.238726   -7330.2403   -6864.0901   -758.91988     102002.7      46.7237      46.7237      46.7237 
  444000    87.224989   -7330.2946   -6879.7127   -582.59556     102002.7      46.7237      46.7237      46.7237 
  445000    91.473044   -7329.1094   -6856.5831   -806.15281     102002.7      46.7237      46.7237      46.7237 
  446000    90.236351   -7341.0953   -6874.9574   -708.64544     102002.7      46.7237      46.7237      46.7237 
  447000    91.751136   -7335.7088   -6861.7459   -605.65124     102002.7      46.7237      46.7237      46.7237 
  448000    90.267626   -7331.7176   -6865.4182   -880.19803     102002.7      46.7237      46.7237      46.7237 
  449000    86.922707   -7333.0401   -6884.0197   -553.70796     102002.7      46.7237      46.7237      46.7237 
  450000    94.687155   -7333.8451   -6844.7155    -857.5209     102002.7      46.7237      46.7237      46.7237 
  451000     93.61873   -7347.1547   -6863.5443   -767.72286     102002.7      46.7237      46.7237      46.7237 
  452000    92.351093   -7340.2064   -6863.1443   -509.19503     102002.7      46.7237      46.7237      46.7237 
  453000    91.720923   -7344.8707   -6871.0639    -534.8291     102002.7      46.7237      46.7237      46.7237 
  454000    92.268996   -7327.7845   -6851.1465   -504.47317     102002.7      46.7237      46.7237      46.7237 
  455000    89.919154   -7335.6921   -6871.1928   -491.93874     102002.7      46.7237      46.7237      46.7237 
  456000    91.565256   -7358.6785   -6885.6759   -539.73902     102002.7      46.7237      46.7237      46.7237 
  457000     89.82353   -7332.0596   -6868.0543   -625.62753     102002.7      46.7237      46.7237      46.7237 
  458000    89.448548   -7345.6167   -6883.5484   -556.92319     102002.7      46.7237      46.7237      46.7237 
  459000    91.505171   -7353.3313    -6880.639    -355.7681     102002.7      46.7237      46.7237      46.7237 
  460000    92.918746   -7331.5082   -6851.5138   -650.28747     102002.7      46.7237      46.7237      46.7237 
  461000    92.029659   -7337.1209   -6861.7192   -575.17696     102002.7      46.7237      46.7237      46.7237 
  462000     89.74645   -7356.5729   -6892.9658   -820.62154     102002.7      46.7237      46.7237      46.7237 
  463000    93.606216   -7363.1075   -6879.5618   -669.95358     102002.7      46.7237      46.7237      46.7237 
  464000    91.865337   -7334.2653   -6859.7125   -584.19933     102002.7      46.7237      46.7237      46.7237 
  465000    91.796667   -7331.3276   -6857.1295   -573.49602     102002.7      46.7237      46.7237      46.7237 
  466000    91.841891   -7340.2784   -6865.8467    -685.2118     102002.7      46.7237      46.7237      46.7237 
  467000    87.962674   -7335.8367   -6881.4441   -581.22284     102002.7      46.7237      46.7237      46.7237 
  468000    93.803218   -7337.2565   -6852.6931   -683.58228     102002.7      46.7237      46.7237      46.7237 
  469000    90.799568   -7331.2511   -6862.2038   -1018.5989     102002.7      46.7237      46.7237      46.7237 
  470000    90.223958   -7330.5491   -6864.4752   -707.94509     102002.7      46.7237      46.7237      46.7237 
  471000    91.024671   -7342.0322   -6871.8221   -816.01447     102002.7      46.7237      46.7237      46.7237 
  472000    92.495157    -7341.063   -6863.2567    -629.3879     102002.7      46.7237      46.7237      46.7237 
  473000    88.886041   -7343.0547   -6883.8922   -386.15567     102002.7      46.7237      46.7237      46.7237 
  474000    92.508724    -7343.284   -6865.4077   -681.85958     102002.7      46.7237      46.7237      46.7237 
  475000    94.945111    -7327.559   -6837.0969   -538.53164     102002.7      46.7237      46.7237      46.7237 
  476000    88.901697   -7345.4083   -6886.1649   -670.45326     102002.7      46.7237      46.7237      46.7237 
  477000    92.495425    -7341.345   -6863.5374   -890.08119     102002.7      46.7237      46.7237      46.7237 
  478000    87.191171   -7351.2011   -6900.7938    -538.5918     102002.7      46.7237      46.7237      46.7237 
  479000    90.193653   -7332.5335   -6866.6162    -661.4808     102002.7      46.7237      46.7237      46.7237 
  480000    89.025218   -7328.7526   -6868.8712   -709.70025     102002.7      46.7237      46.7237      46.7237 
  481000    91.264126   -7353.4985   -6882.0514   -620.54478     102002.7      46.7237      46.7237      46.7237 
  482000    88.167099   -7338.1603   -6882.7116   -1026.1285     102002.7      46.7237      46.7237      46.7237 
  483000    91.547482    -7334.284   -6861.3732   -531.92322     102002.7      46.7237      46.7237      46.7237 
  484000    91.385135   -7334.5553   -6862.4831   -696.88537     102002.7      46.7237      46.7237      46.7237 
  485000    89.993215    -7337.196   -6872.3141   -809.06744     102002.7      46.7237      46.7237      46.7237 
  486000    88.415116   -7332.5975   -6875.8676   -834.68354     102002.7      46.7237      46.7237      46.7237 
  487000    92.488448   -7340.7087   -6862.9371   -671.57339     102002.7      46.7237      46.7237      46.7237 
  488000    89.299994   -7335.7412   -6874.4403    -744.3546     102002.7      46.7237      46.7237      46.7237 
  489000    89.061931   -7345.6542   -6885.5831   -899.26953     102002.7      46.7237      46.7237      46.7237 
  490000    92.865721   -7349.9221   -6870.2016    -811.4045     102002.7      46.7237      46.7237      46.7237 
  491000    90.462398   -7351.0545   -6883.7489   -698.12737     102002.7      46.7237      46.7237      46.7237 
  492000    92.538984   -7337.6168   -6859.5841   -854.50446     102002.7      46.7237      46.7237      46.7237 
  493000    90.156243   -7346.7325   -6881.0084   -815.05793     102002.7      46.7237      46.7237      46.7237 
  494000    93.018858    -7350.752   -6870.2404   -857.53869     102002.7      46.7237      46.7237      46.7237 
  495000    90.567957   -7343.5776   -6875.7268   -645.98597     102002.7      46.7237      46.7237      46.7237 
  496000    93.237425   -7321.7347    -6840.094   -772.77489     102002.7      46.7237      46.7237      46.7237 
  497000    89.885635    -7332.664   -6868.3378   -726.63427     102002.7      46.7237      46.7237      46.7237 
  498000    88.096223   -7327.6554   -6872.5729   -712.19915     102002.7      46.7237      46.7237      46.7237 
  499000    90.270426   -7351.7806   -6885.4667   -941.50594     102002.7      46.7237      46.7237      46.7237 
  500000     92.84713   -7346.6469   -6867.0224    -893.8952     102002.7      46.7237      46.7237      46.7237 
  500504    93.022842   -7353.9588   -6873.4267   -523.16571     102002.7      46.7237      46.7237      46.7237 
Loop time of 1272.24 on 16 procs for 500000 steps with 1734 atoms

Performance: 33.956 ns/day, 0.707 hours/ns, 393.009 timesteps/s
99.8% CPU use with 16 MPI tasks x no OpenMP threads

MPI task timing breakdown:
Section |  min time  |  avg time  |  max time  |%varavg| %total
---------------------------------------------------------------
Pair    | 492.87     | 682.79     | 860.56     | 482.3 | 53.67
Bond    | 166.62     | 173.88     | 180.65     |  32.7 | 13.67
Neigh   | 3.0006     | 3.0324     | 3.088      |   1.8 |  0.24
Comm    | 217.91     | 399.41     | 590.08     | 642.2 | 31.39
Output  | 0.020259   | 0.020716   | 0.023411   |   0.5 |  0.00
Modify  | 7.1382     | 7.7911     | 8.8576     |  23.3 |  0.61
Other   |            | 5.313      |            |       |  0.42

Nlocal:    108.375 ave 138 max 77 min
Histogram: 1 1 1 2 2 3 1 4 0 1
Nghost:    2198.88 ave 2229 max 2171 min
Histogram: 1 1 2 4 0 3 2 1 0 2
Neighs:    11461.7 ave 16761 max 7424 min
Histogram: 3 2 1 2 2 0 2 0 3 1

Total # of neighbors = 183387
Ave neighs/atom = 105.76
Ave special neighs/atom = 6.6436
Neighbor list builds = 2642
Dangerous builds = 0
Neighbor list info ...
  update every 1 steps, delay 10 steps, check yes
  max neighbors/atom: 2000, page size: 100000
  master list distance cutoff = 16
  ghost atom cutoff = 16
  binsize = 8, bins = 6 6 6
  3 neighbor lists, perpetual/occasional/extra = 3 0 0
  (1) pair buck6d/coul/gauss/dsf, perpetual, skip from (3)
      attributes: half, newton on
      pair build: skip
      stencil: none
      bin: none
  (2) pair lj/cut, perpetual, skip from (3)
      attributes: half, newton on
      pair build: skip
      stencil: none
      bin: none
  (3) neighbor class addition, perpetual
      attributes: half, newton on
      pair build: half/bin/newton
      stencil: half/bin/3d/newton
      bin: standard
Setting up Verlet run ...
  Unit style    : real
  Current step  : 500504
  Time step     : 1
WARNING: Inconsistent image flags (../domain.cpp:786)
Per MPI rank memory allocation (min/avg/max) = 23.07 | 23.31 | 23.33 Mbytes
Step Time TotEng KinEng PotEng E_mol E_pair Temp Pxx Pyy Pzz Pxy Pxz Pyz Cella Cellb Cellc CellAlpha CellBeta CellGamma Volume Press 
  500504       500000   -6873.4267    480.53217   -7353.9588    4197.1326   -11551.091    93.022842   -632.84129   -406.42925    -530.2266   -6.2235895    34.207091   -6.0024813      46.7237      46.7237      46.7237           90           90           90     102002.7   -523.16571 
  501000       500496   -6894.1495    463.06971   -7357.2192    4210.4382   -11567.657    89.642407   -815.27012   -1056.6063   -775.08458   -30.448131   -95.641607    44.539655      46.7237      46.7237      46.7237           90           90           90     102002.7   -882.32035 
  502000       501496   -6866.7043    491.93154   -7358.6358    4203.8935   -11562.529    95.229565   -1029.3911   -1149.5321   -903.79621    45.423014    72.643318    186.20245      46.7237      46.7237      46.7237           90           90           90     102002.7   -1027.5731 
  503000       502496   -6850.1456    483.95858   -7334.1042    4224.4692   -11558.573    93.686136   -542.95019   -650.50478   -505.91542     79.25656    44.166311   -36.091215      46.7237      46.7237      46.7237           90           90           90     102002.7   -566.45679 
  504000       503496   -6872.4995    474.07826   -7346.5777    4207.7553   -11554.333    91.773475   -820.83881   -682.09877   -767.16537   -105.46583     10.67355   -67.559221      46.7237      46.7237      46.7237           90           90           90     102002.7   -756.70098 
  505000       504496   -6859.3441    478.60556   -7337.9497    4208.9191   -11546.869    92.649883   -466.55662   -291.29727     -509.476    7.8228548   -3.2003348    -191.0904      46.7237      46.7237      46.7237           90           90           90     102002.7    -422.4433 
  506000       505496   -6882.5255    465.18627   -7347.7118    4210.4944   -11558.206    90.052138   -726.84482   -965.60514   -603.30119    103.12257    186.70115   -180.57505      46.7237      46.7237      46.7237           90           90           90     102002.7   -765.25038 
  507000       506496    -6856.474    480.29737   -7336.7714    4233.9564   -11570.728    92.977388   -655.95937   -682.44749   -641.20853   -32.255944    97.556962    46.579467      46.7237      46.7237      46.7237           90           90           90     102002.7   -659.87179 
  508000       507496   -6872.7665    473.27812   -7346.0446    4196.8677   -11542.912    91.618582   -605.21019    -842.1127   -638.89754   -76.949609    148.59125    240.19009      46.7237      46.7237      46.7237           90           90           90     102002.7   -695.40681 
  509000       508496   -6885.7413    456.91437   -7342.6557    4227.5431   -11570.199    88.450838   -635.90732   -942.12148   -693.87251    306.63561   -147.92718    81.180404      46.7237      46.7237      46.7237           90           90           90     102002.7   -757.30043 
  510000       509496    -6876.932     464.5026   -7341.4346    4213.1937   -11554.628     89.91979   -896.68685   -330.92517   -980.95706    6.1881212   -134.02248    18.110017      46.7237      46.7237      46.7237           90           90           90     102002.7    -736.1897 
  511000       510496   -6867.6127    474.27068   -7341.8834    4227.8532   -11569.737    91.810725   -252.49831   -661.73062   -1128.7824    89.481934    73.138768    62.683137      46.7237      46.7237      46.7237           90           90           90     102002.7   -681.00376 
  512000       511496   -6876.5375    464.48464   -7341.0221    4206.4513   -11547.473    89.916313   -776.94413   -573.28871   -508.94255    272.78722    22.305065    66.332471      46.7237      46.7237      46.7237           90           90           90     102002.7   -619.72513 
  513000       512496   -6853.4154    481.63613   -7335.0515    4229.2493   -11564.301     93.23655   -593.01445   -497.29849   -950.02161    53.278549    105.71048   -53.520344      46.7237      46.7237      46.7237           90           90           90     102002.7   -680.11152 
  514000       513496   -6869.4051      460.865   -7330.2701    4222.2081   -11552.478    89.215613    -692.0844   -581.46319   -662.50846    42.376163   -78.517082   -112.22812      46.7237      46.7237      46.7237           90           90           90     102002.7   -645.35202 
  515000       514496   -6870.1132    466.17258   -7336.2858     4231.048   -11567.334     90.24307   -674.45929   -899.92762   -736.91983   -156.36201    141.96775   -60.031802      46.7237      46.7237      46.7237           90           90           90     102002.7   -770.43558 
  516000       515496   -6852.6868    472.36947   -7325.0563    4233.1716   -11558.228    91.442683   -638.01934   -1086.1778   -900.99009   -55.542002   -129.09412   -52.186319      46.7237      46.7237      46.7237           90           90           90     102002.7   -875.06242 
  517000       516496   -6873.0222    462.83547   -7335.8577    4216.5805   -11552.438    89.597062   -1022.2954   -817.48165    -1113.612    153.90119   -160.64262    34.167838      46.7237      46.7237      46.7237           90           90           90     102002.7   -984.46303 
  518000       517496   -6852.1419    474.66876   -7326.8107    4235.6615   -11562.472    91.887786   -870.97244   -864.20953   -846.25397   -186.05047   -240.25104    3.8523032      46.7237      46.7237      46.7237           90           90           90     102002.7   -860.47865 
  519000       518496   -6872.2505    459.49163   -7331.7421    4216.8671   -11548.609    88.949752   -855.78875   -448.15479   -552.29152   -282.12167   -70.514755   -212.25645      46.7237      46.7237      46.7237           90           90           90     102002.7   -618.74502 
  520000       519496   -6905.9726    457.13036   -7363.1029     4198.557    -11561.66     88.49265   -782.59866   -937.92807   -668.44241   -155.39071   -50.445967    158.25572      46.7237      46.7237      46.7237           90           90           90     102002.7   -796.32305 
  521000       520496   -6866.5194    475.28708   -7341.8065    4208.4849   -11550.291    92.007481   -477.97341   -635.67612   -726.07448   -49.065267   -81.127266   -139.09491      46.7237      46.7237      46.7237           90           90           90     102002.7   -613.24134 
  522000       521496   -6877.6772    476.53371   -7354.2109    4224.2244   -11578.435    92.248808   -721.49562    -597.4829   -1006.8199    90.021351   -227.46264     57.40625      46.7237      46.7237      46.7237           90           90           90     102002.7   -775.26615 
  523000       522496   -6868.7968    468.78942   -7337.5863    4235.1081   -11572.694    90.749645   -624.49102   -412.84846   -705.28931   -35.759993   -20.435427    156.37134      46.7237      46.7237      46.7237           90           90           90     102002.7   -580.87626 
  524000       523496    -6865.124    483.30336   -7348.4274    4215.7111   -11564.138    93.559297   -1321.9137     -758.534   -710.58446    98.146085   -98.976025    196.86576      46.7237      46.7237      46.7237           90           90           90     102002.7   -930.34406 
  525000       524496   -6873.8115    468.08159   -7341.8931    4222.2494   -11564.143    90.612622   -529.26657   -707.51952   -579.24226   -121.33375   -126.57454    124.20445      46.7237      46.7237      46.7237           90           90           90     102002.7   -605.34279 
  526000       525496   -6864.5798    462.34932   -7326.9291    4225.6823   -11552.611    89.502952   -885.75415    -598.8924   -475.00933    220.46802   -85.984793   -194.67887      46.7237      46.7237      46.7237           90           90           90     102002.7   -653.21862 
  527000       526496    -6879.523    465.38376   -7344.9068    4185.4673   -11530.374    90.090368   -223.58614    -208.6749   -981.90893    57.170797   -198.82858    47.541064      46.7237      46.7237      46.7237           90           90           90     102002.7   -471.38999 
  528000       527496   -6865.9416    474.99306   -7340.9347    4222.6769   -11563.612    91.950564   -692.82482   -761.70328   -768.67472    200.78738    -34.39309    25.740458      46.7237      46.7237      46.7237           90           90           90     102002.7   -741.06761 
  529000       528496    -6873.486     468.9067   -7342.3927    4226.0787   -11568.471    90.772348   -640.29518   -453.55887   -771.05685    93.891353   -7.3160558    -77.39398      46.7237      46.7237      46.7237           90           90           90     102002.7   -621.63697 
  530000       529496    -6827.256    492.82593   -7320.0819    4220.4217   -11540.504    95.402704   -473.00217   -499.21086   -506.61791   -213.92494   -74.079425    216.34193      46.7237      46.7237      46.7237           90           90           90     102002.7   -492.94365 
  531000       530496   -6868.1335    479.24639   -7347.3799    4208.4983   -11555.878    92.773936   -747.60687   -613.06047   -331.27693   -198.70845    36.778127    52.028043      46.7237      46.7237      46.7237           90           90           90     102002.7   -563.98143 
  532000       531496   -6865.0387    469.97265   -7335.0113     4230.081   -11565.092    90.978699   -914.55091   -409.29444   -355.52744   -138.21707    40.281376    171.42959      46.7237      46.7237      46.7237           90           90           90     102002.7   -559.79093 
  533000       532496   -6877.7013    462.07259   -7339.7739    4198.2984   -11538.072    89.449382    -519.9297   -927.86322   -625.65886   -79.535478   -46.183119   -126.18617      46.7237      46.7237      46.7237           90           90           90     102002.7   -691.15059 
  534000       533496    -6866.415    464.70763   -7331.1226     4236.067    -11567.19    89.959481   -164.83194     -646.234   -535.05565    38.785688    68.059087    2.7059188      46.7237      46.7237      46.7237           90           90           90     102002.7    -448.7072 
  535000       534496   -6856.8857    483.54281   -7340.4285    4203.7688   -11544.197    93.605651   -496.63444   -532.34705   -344.15779   -256.69131    30.553328    41.097129      46.7237      46.7237      46.7237           90           90           90     102002.7   -457.71309 
  536000       535496   -6876.2134    465.67057   -7341.8839    4211.7549   -11553.639    90.145889   -808.41139   -787.39839   -819.98964    80.362366    60.835067   -53.206619      46.7237      46.7237      46.7237           90           90           90     102002.7   -805.26647 
  537000       536496   -6878.0717    457.94918   -7336.0209    4224.1507   -11560.172     88.65116   -586.32136   -674.45194    -997.9814    106.43913    104.64113     18.93433      46.7237      46.7237      46.7237           90           90           90     102002.7   -752.91823 
  538000       537496   -6855.1487    478.20121   -7333.3499     4223.094   -11556.444    92.571608    -684.3251   -1405.0811   -710.97505    -103.3907    6.8199812    103.71679      46.7237      46.7237      46.7237           90           90           90     102002.7   -933.46041 
  539000       538496   -6867.9242     474.7506   -7342.6748    4218.7305   -11561.405    91.903629   -903.63503   -597.55184    -989.6232   -124.47156    195.25082   -95.503949      46.7237      46.7237      46.7237           90           90           90     102002.7   -830.27002 
  540000       539496   -6884.0197    462.78582   -7346.8055    4224.4108   -11571.216    89.587452   -683.49841   -772.52053   -585.55518    52.392769    10.103057    73.588964      46.7237      46.7237      46.7237           90           90           90     102002.7   -680.52471 
  541000       540496   -6842.2686    493.61451   -7335.8831    4212.4837   -11548.367     95.55536   -500.20794   -339.80302   -670.53453    79.929056   -54.618525    192.11602      46.7237      46.7237      46.7237           90           90           90     102002.7   -503.51517 
  542000       541496   -6872.9928    459.96295   -7332.9557     4213.398   -11546.354    89.040991   -886.56514    -498.4967   -405.51086   -295.40523    149.72091   -172.31488      46.7237      46.7237      46.7237           90           90           90     102002.7   -596.85757 
  543000       542496   -6887.8052    471.72955   -7359.5348    4186.2945   -11545.829    91.318805    -629.8897   -403.25648   -388.16432    338.66603    146.67465   -153.20851      46.7237      46.7237      46.7237           90           90           90     102002.7   -473.77017 
  544000       543496   -6852.6347    478.99673   -7331.6314    4238.2692   -11569.901    92.725608   -751.60133   -731.02001   -753.24222    11.420557    151.50025   -186.65415      46.7237      46.7237      46.7237           90           90           90     102002.7   -745.28785 
  545000       544496   -6867.3009    478.72317   -7346.0241    4197.7558    -11543.78     92.67265   -400.78292   -629.32855   -518.23141     144.3373    28.573809   -259.66811      46.7237      46.7237      46.7237           90           90           90     102002.7   -516.11429 
  546000       545496   -6877.7381    467.09194   -7344.8301     4215.571   -11560.401    90.421041   -341.86624   -271.84587   -522.94328   -40.111697   -151.99615    75.131477      46.7237      46.7237      46.7237           90           90           90     102002.7   -378.88513 
  547000       546496   -6894.3287    471.84324    -7366.172    4182.7433   -11548.915    91.340814   -660.04533   -364.25703   -517.03263     24.39911    -16.00042    32.342954      46.7237      46.7237      46.7237           90           90           90     102002.7   -513.77833 
  548000       547496   -6862.3652    465.89515   -7328.2603    4236.8584   -11565.119    90.189363   -724.87226   -125.10502   -568.24184    92.823505   -74.609613   -147.03203      46.7237      46.7237      46.7237           90           90           90     102002.7   -472.73971 
  549000       548496   -6881.3123    478.35739   -7359.6697    4177.6826   -11537.352    92.601842   -783.18155   -435.07692   -747.06536   -83.621088   -266.45658     13.07064      46.7237      46.7237      46.7237           90           90           90     102002.7   -655.10794 
  550000       549496   -6883.3823    464.88255   -7348.2649    4224.5064   -11572.771    89.993342   -697.33271   -653.71083    -315.8153    102.12404   -108.11431    195.08229      46.7237      46.7237      46.7237           90           90           90     102002.7   -555.61961 
  551000       550496   -6869.2269    481.03456   -7350.2615    4188.8497   -11539.111    93.120095   -478.49662    -85.67761   -325.93496    46.824175    12.211716   -76.586977      46.7237      46.7237      46.7237           90           90           90     102002.7   -296.70306 
  552000       551496   -6875.9377    468.00784   -7343.9455     4216.167   -11560.113    90.598345   -1041.3164   -556.53812   -554.53338    25.846864    7.0324002    129.93129      46.7237      46.7237      46.7237           90           90           90     102002.7   -717.46264 
  553000       552496   -6881.0174    460.15129   -7341.1687    4199.1402   -11540.309    89.077451    17.791253   -580.02452   -368.20803    12.248662    91.012498    10.736945      46.7237      46.7237      46.7237           90           90           90     102002.7    -310.1471 
  554000       553496   -6872.9087    459.41038   -7332.3191    4239.1156   -11571.435    88.934023   -987.15039   -783.22515   -983.65059     249.6723    211.68207    70.989856      46.7237      46.7237      46.7237           90           90           90     102002.7   -918.00871 
  555000       554496   -6885.6337    459.26104   -7344.8947    4208.7823   -11553.677    88.905113   -582.17336   -392.74676   -834.17836   -66.389984   -108.94755    197.03883      46.7237      46.7237      46.7237           90           90           90     102002.7   -603.03283 
[...]
  936000       935496   -6879.7401    466.06311   -7345.8032    4223.6282   -11569.431    90.221878   -932.98211   -92.477333   -666.36723    36.606933    19.577067    243.75186      46.7237      46.7237      46.7237           90           90           90     102002.7   -563.94222 
  937000       936496   -6873.1472    470.88941   -7344.0366    4210.5813   -11554.618    91.156169   -694.89484   -500.04299   -796.59254    -13.73838    42.002294   -31.667692      46.7237      46.7237      46.7237           90           90           90     102002.7   -663.84346 
  938000       937496   -6865.7775    476.67073   -7342.4482    4220.7381   -11563.186    92.275333   -686.67681   -334.13979   -352.66834   -24.286987   -65.433548   -122.21823      46.7237      46.7237      46.7237           90           90           90     102002.7   -457.82831 
  939000       938496   -6888.0773    468.34142   -7356.4187    4201.1301   -11557.549    90.662919   -725.63391   -616.22523   -622.94715   -303.90454    25.232705   -42.870372      46.7237      46.7237      46.7237           90           90           90     102002.7   -654.93543 
  940000       939496   -6869.4619     475.6363   -7345.0982    4220.3458   -11565.444    92.075085    -360.1399   -566.79831   -624.40901     112.3613    41.402917   -88.685064      46.7237      46.7237      46.7237           90           90           90     102002.7   -517.11574 
  941000       940496   -6867.0794      475.874   -7342.9534    4202.3901   -11545.343    92.121099   -490.89551   -234.60087   -649.15336     14.70761   -155.69802   -1.2820291      46.7237      46.7237      46.7237           90           90           90     102002.7   -458.21658 
  942000       941496   -6849.6638    472.45999   -7322.1238    4237.4409   -11559.565    91.460205   -743.91172   -740.73191   -751.78069    223.38469    114.69988    39.647899      46.7237      46.7237      46.7237           90           90           90     102002.7   -745.47477 
  943000       942496    -6874.499    466.66204   -7341.1611    4213.6486    -11554.81    90.337821   -692.61903   -664.67753   -639.79188    -146.6098   -123.08225   -50.336122      46.7237      46.7237      46.7237           90           90           90     102002.7   -665.69615 
  944000       943496   -6863.2119    469.03964   -7332.2515    4237.3057   -11569.557    90.798083   -775.46202   -778.07396   -1001.3172   -60.402113   -67.515618    -149.7628      46.7237      46.7237      46.7237           90           90           90     102002.7   -851.61773 
  945000       944496    -6865.453    474.53168   -7339.9847    4215.0901   -11555.075    91.861249   -574.45177   -589.93856   -727.81121    21.520284    148.72595    -129.2142      46.7237      46.7237      46.7237           90           90           90     102002.7   -630.73385 
  946000       945496   -6854.1897    476.87033     -7331.06    4230.9851   -11562.045    92.313972   -741.05936   -975.74476   -1079.5108    157.45253    26.870218     -168.753      46.7237      46.7237      46.7237           90           90           90     102002.7   -932.10496 
  947000       946496   -6867.9419    466.89398   -7334.8359    4218.1719   -11553.008    90.382721   -698.86378   -660.93446   -430.77128    29.530713   -185.91127   -50.589783      46.7237      46.7237      46.7237           90           90           90     102002.7    -596.8565 
  948000       947496   -6886.4415    459.59531   -7346.0368    4208.8783   -11554.915    88.969823   -409.96459   -642.67652   -252.34578   -110.58165    16.565876   -41.854911      46.7237      46.7237      46.7237           90           90           90     102002.7   -434.99563 
  949000       948496   -6868.3203    485.43429   -7353.7546    4208.4974   -11562.252    93.971808   -628.13488   -652.74809   -1086.3309   -118.44713    14.251812   -127.94194      46.7237      46.7237      46.7237           90           90           90     102002.7    -789.0713 
  950000       949496    -6886.092    472.62426   -7358.7162    4202.2473   -11560.963    91.492005   -625.57103   -920.81763   -652.11497      52.6775    -42.07359    -45.42241      46.7237      46.7237      46.7237           90           90           90     102002.7   -732.83454 
  951000       950496   -6886.3433    471.57117   -7357.9145    4210.8939   -11568.808    91.288146   -912.76409   -620.82116   -615.61631   -66.420717   -88.657683    212.61688      46.7237      46.7237      46.7237           90           90           90     102002.7   -716.40052 
  952000       951496   -6859.4071    472.11457   -7331.5217    4199.3451   -11530.867    91.393339   -517.59458   -481.65293    -710.7411    166.75916    28.693174    16.166406      46.7237      46.7237      46.7237           90           90           90     102002.7    -569.9962 
  953000       952496   -6881.8805    473.49195   -7355.3725     4201.819   -11557.192    91.659974   -613.69369   -907.92317    -376.7497   -6.4691366    203.30528   -112.87283      46.7237      46.7237      46.7237           90           90           90     102002.7   -632.78885 
  954000       953496   -6835.1408    490.01526   -7325.1561    4229.6932   -11554.849    94.858607   -894.70938   -901.37164   -667.79427    6.9224874   -255.08932    340.35244      46.7237      46.7237      46.7237           90           90           90     102002.7   -821.29176 
  955000       954496   -6869.9262    457.22722   -7327.1534    4226.3964    -11553.55    88.511401    -763.0663   -766.62872   -561.24341    69.023753   -165.85366    67.610603      46.7237      46.7237      46.7237           90           90           90     102002.7   -696.97948 
  956000       955496   -6886.9563    461.49687   -7348.4532     4208.975   -11557.428    89.337932   -687.21684   -901.46054   -658.02444    72.584113    83.193967   -306.01788      46.7237      46.7237      46.7237           90           90           90     102002.7    -748.9006 
  957000       956496   -6863.5088    481.09963   -7344.6085    4201.0652   -11545.674    93.132692   -366.73392     -728.689   -438.34532   -58.407817   -35.935911   -114.56376      46.7237      46.7237      46.7237           90           90           90     102002.7   -511.25608 
  958000       957496   -6890.1359    455.20619   -7345.3421     4215.784   -11561.126    88.120164   -650.18367    -698.5334   -605.39597   -34.769282   -23.264587    142.85575      46.7237      46.7237      46.7237           90           90           90     102002.7   -651.37102 
  959000       958496    -6858.461    475.19963   -7333.6606    4235.6725   -11569.333    91.990552   -661.12911   -310.35695   -471.99894   -39.305529    15.037065   -77.950115      46.7237      46.7237      46.7237           90           90           90     102002.7   -481.16167 
  960000       959496   -6875.5446    466.54692   -7342.0916    4205.2448   -11547.336    90.315536   -682.85961   -749.48869    -211.9041    109.52083   -58.507693   -38.130938      46.7237      46.7237      46.7237           90           90           90     102002.7   -548.08413 
  961000       960496   -6873.1065    470.59014   -7343.6966    4199.1201   -11542.817    91.098234   -671.14937   -819.42822   -399.02229    31.131301    26.303856    147.27166      46.7237      46.7237      46.7237           90           90           90     102002.7   -629.86663 
  962000       961496   -6846.9625    481.21733   -7328.1798    4240.7261   -11568.906    93.155477   -873.66314   -406.11942   -845.60521    -208.8608     113.9359    53.759986      46.7237      46.7237      46.7237           90           90           90     102002.7   -708.46259 
  963000       962496   -6863.4072    474.05167   -7337.4589    4209.5221   -11546.981    91.768327   -890.58481   -693.66835   -693.94067    300.67283    90.440917   -127.68719      46.7237      46.7237      46.7237           90           90           90     102002.7   -759.39795 
  964000       963496   -6877.7224    469.25744   -7346.9799    4212.6116   -11559.591    90.840246   -592.08208   -522.29521   -300.03754    57.264496    156.13166    101.55862      46.7237      46.7237      46.7237           90           90           90     102002.7   -471.47161 
  965000       964496   -6859.4332    466.28432   -7325.7175    4211.0994   -11536.817    90.264701   -403.90243   -433.80156   -877.01935   -244.96083    43.164993   -211.12743      46.7237      46.7237      46.7237           90           90           90     102002.7   -571.57444 
  966000       965496   -6857.5213     473.5407    -7331.062    4223.6135   -11554.676    91.669413   -831.30314   -237.10129   -483.82917    22.753295    53.684089     20.56849      46.7237      46.7237      46.7237           90           90           90     102002.7    -517.4112 
  967000       966496   -6891.8837    462.27749   -7354.1612    4206.2705   -11560.432    89.489047   -345.24942   -876.75027   -250.60097     63.11324    21.767848    -68.52658      46.7237      46.7237      46.7237           90           90           90     102002.7   -490.86689 
  968000       967496   -6864.1333    478.14429   -7342.2776    4224.2125    -11566.49    92.560588   -557.83723   -923.05097   -972.86811   -108.78815    224.09424    28.570892      46.7237      46.7237      46.7237           90           90           90     102002.7   -817.91877 
  969000       968496   -6853.0421    478.73268   -7331.7747    4227.1438   -11558.919    92.674491   -880.71674   -168.84919   -247.90595    34.992953   -128.26237    113.90572      46.7237      46.7237      46.7237           90           90           90     102002.7   -432.49063 
  970000       969496   -6877.3963     466.1276   -7343.5239    4215.2245   -11558.748    90.234362   -500.06193   -543.28089   -657.03784   -84.763586   -70.931578   -250.04059      46.7237      46.7237      46.7237           90           90           90     102002.7   -566.79355 
  971000       970496   -6867.0437    466.39162   -7333.4354    4227.4465   -11560.882    90.285472   -249.28851   -678.68701   -982.74453    53.988597    -185.3655   -86.414873      46.7237      46.7237      46.7237           90           90           90     102002.7   -636.90668 
  972000       971496   -6900.0497    455.85934    -7355.909    4196.0276   -11551.937    88.246602   -540.09146   -698.15358   -734.84086    104.80595   -136.66881   -75.042156      46.7237      46.7237      46.7237           90           90           90     102002.7    -657.6953 
  973000       972496   -6866.3834    473.70598   -7340.0894    4220.3157   -11560.405    91.701409   -778.88448    -713.9927   -615.29992    66.278598    143.14642   -51.789115      46.7237      46.7237      46.7237           90           90           90     102002.7    -702.7257 
  974000       973496   -6836.9444    496.44964   -7333.3941    4208.8079   -11542.202    96.104194   -1135.6697   -353.51637   -886.03212    -157.2636   -164.19967   -120.03171      46.7237      46.7237      46.7237           90           90           90     102002.7    -791.7394 
  975000       974496   -6873.1083    470.53394   -7343.6422    4207.8881    -11551.53    91.087354   -668.65622     -946.372   -638.65907   -70.243709   -127.19477    12.646232      46.7237      46.7237      46.7237           90           90           90     102002.7    -751.2291 
  976000       975496   -6858.7466    467.65712   -7326.4037    4230.5547   -11556.958    90.530452   -1111.1324   -829.54956   -722.10922   -344.02381   -166.74301    71.114683      46.7237      46.7237      46.7237           90           90           90     102002.7   -887.59706 
  977000       976496   -6866.0849     472.7042   -7338.7891    4207.6467   -11546.436    91.507481   -774.34206    -585.6854   -520.22327   -64.946103   -147.62598   -92.777677      46.7237      46.7237      46.7237           90           90           90     102002.7   -626.75024 
  978000       977496    -6880.855    460.31813   -7341.1732     4215.437    -11556.61    89.109748   -831.47627   -627.67146    -427.4452   -124.66595    246.37507    58.317246      46.7237      46.7237      46.7237           90           90           90     102002.7   -628.86431 
  979000       978496   -6887.8308    457.45959   -7345.2904    4219.8604   -11565.151    88.556383   -803.17299   -716.34828    -951.3253   -146.25144    61.600123    149.70116      46.7237      46.7237      46.7237           90           90           90     102002.7   -823.61552 
  980000       979496   -6889.3272     446.2666   -7335.5938    4213.3891   -11548.983    86.389612   -698.30954   -611.86797   -403.28009   -21.255022    10.842645    -60.77192      46.7237      46.7237      46.7237           90           90           90     102002.7   -571.15253 
  981000       980496   -6872.0601    469.31542   -7341.3756    4210.9204   -11552.296    90.851469   -478.19754     5.514487    -678.2143   -19.064247   -4.8125641    138.76377      46.7237      46.7237      46.7237           90           90           90     102002.7   -383.63245 
  982000       981496   -6861.4281    474.21915   -7335.6473      4203.69   -11539.337    91.800749   -652.91021   -383.42918   -801.83982   -90.416478    -120.6371    54.619577      46.7237      46.7237      46.7237           90           90           90     102002.7   -612.72641 
  983000       982496   -6901.9912    451.75302   -7353.7442    4204.5526   -11558.297    87.451688   -269.03991    -839.0717   -567.45608   -151.20473   -76.573791    -83.87548      46.7237      46.7237      46.7237           90           90           90     102002.7   -558.52256 
  984000       983496   -6864.3042    486.72984    -7351.034    4204.8492   -11555.883    94.222605   -939.74842   -686.60476   -349.92278    69.219424   -159.83003    93.727026      46.7237      46.7237      46.7237           90           90           90     102002.7   -658.75866 
  985000       984496   -6848.8048     470.1291   -7318.9339    4217.5818   -11536.516    91.008984   -717.11292   -618.41801   -940.61844   -36.003227    41.723865    10.905615      46.7237      46.7237      46.7237           90           90           90     102002.7   -758.71646 
  986000       985496   -6881.4022    460.53491   -7341.9371    4214.0263   -11555.963    89.151713   -1091.2033   -402.95542   -560.77391   -167.16304   -9.8070134    -97.06079      46.7237      46.7237      46.7237           90           90           90     102002.7   -684.97754 
  987000       986496   -6858.9712    472.08474   -7331.0559    4217.3503   -11548.406    91.387563   -1125.2264   -788.70918   -776.72063   -174.65067   -82.140006    86.332528      46.7237      46.7237      46.7237           90           90           90     102002.7   -896.88539 
  988000       987496   -6857.8499    477.39376   -7335.2437    4213.1817   -11548.425    92.415299   -1146.1047   -776.93787   -507.48113    168.22241    5.5516067   -314.33398      46.7237      46.7237      46.7237           90           90           90     102002.7   -810.17456 
  989000       988496    -6852.915    475.22868   -7328.1437    4229.6927   -11557.836    91.996177   -767.55069   -1066.8453    -645.8685    23.817084   -74.620146   -110.30236      46.7237      46.7237      46.7237           90           90           90     102002.7   -826.75483 
  990000       989496   -6889.0349    461.37624   -7350.4111    4192.9573   -11543.368     89.31458   -1050.7133   -663.47535   -912.99812    76.061204   -79.643838    56.902774      46.7237      46.7237      46.7237           90           90           90     102002.7   -875.72891 
  991000       990496   -6856.2754    479.46603   -7335.7414    4236.8882    -11572.63    92.816456   -723.95639   -848.95241   -546.00562    16.444271   -155.15213   -92.583242      46.7237      46.7237      46.7237           90           90           90     102002.7    -706.3048 
  992000       991496   -6889.5637    448.01156   -7337.5752     4220.473   -11558.048    86.727405   -1070.1957   -704.59294   -516.11289   -253.23807   -281.26074   -169.54066      46.7237      46.7237      46.7237           90           90           90     102002.7   -763.63383 
  993000       992496   -6887.4712     470.8017   -7358.2729    4199.7527   -11558.026    91.139189   -598.50751   -1037.5158   -633.92531    258.54313   -30.040016    58.193974      46.7237      46.7237      46.7237           90           90           90     102002.7   -756.64953 
  994000       993496   -6870.8002    475.81149   -7346.6117    4207.1429   -11553.755    92.108998   -319.17521   -571.49707   -373.01734   -57.009651   -117.75073   -30.859573      46.7237      46.7237      46.7237           90           90           90     102002.7   -421.22987 
  995000       994496   -6865.4103    471.59048   -7337.0007    4217.8206   -11554.821    91.291883   -649.87242   -848.07689   -780.57435    198.73721      125.546   -70.483388      46.7237      46.7237      46.7237           90           90           90     102002.7   -759.50789 
  996000       995496   -6874.5035    471.17777   -7345.6813    4228.6724   -11574.354    91.211989   -386.98264   -1269.2351   -716.54556   -163.00965    170.77802     161.0614      46.7237      46.7237      46.7237           90           90           90     102002.7   -790.92111 
  997000       996496   -6852.8853    464.68236   -7317.5677    4235.1202   -11552.688    89.954589   -801.18283   -670.64257   -1050.4381    150.25646   -140.44303    265.09301      46.7237      46.7237      46.7237           90           90           90     102002.7   -840.75451 
  998000       997496   -6856.3209    477.32132   -7333.6422    4222.9499   -11556.592    92.401277    -1001.277   -1200.4842   -584.39139    166.46439    228.54512    48.712319      46.7237      46.7237      46.7237           90           90           90     102002.7   -928.71754 
  999000       998496   -6881.2572    470.08129   -7351.3385    4202.2009   -11553.539     90.99973   -705.12947    -1093.209   -276.51996     -116.365    21.032997     79.05815      46.7237      46.7237      46.7237           90           90           90     102002.7   -691.61948 
 1000000       999496   -6852.3054    484.65111   -7336.9565    4222.4112   -11559.368    93.820198   -893.83447   -789.25857   -700.83328   -142.28089    53.584418   -103.34618      46.7237      46.7237      46.7237           90           90           90     102002.7   -794.64211 
 1000504      1000000   -6845.3811    485.97436   -7331.3555    4233.0791   -11564.435    94.076358   -451.36207   -810.18084   -744.94995       2.3111   -20.624476   -53.369904      46.7237      46.7237      46.7237           90           90           90     102002.7   -668.83095 
Loop time of 1414.48 on 16 procs for 500000 steps with 1734 atoms

Performance: 30.541 ns/day, 0.786 hours/ns, 353.487 timesteps/s
99.8% CPU use with 16 MPI tasks x no OpenMP threads

MPI task timing breakdown:
Section |  min time  |  avg time  |  max time  |%varavg| %total
---------------------------------------------------------------
Pair    | 560.28     | 766.47     | 955.83     | 494.7 | 54.19
Bond    | 174.6      | 183.04     | 188.29     |  34.3 | 12.94
Neigh   | 2.9608     | 2.9922     | 3.0475     |   1.9 |  0.21
Comm    | 240.82     | 434.75     | 641.18     | 663.0 | 30.74
Output  | 0.096165   | 0.10101    | 0.10144    |   0.4 |  0.01
Modify  | 21.085     | 21.856     | 22.974     |  15.6 |  1.55
Other   |            | 5.271      |            |       |  0.37

Nlocal:    108.375 ave 136 max 84 min
Histogram: 2 2 1 2 3 1 0 1 2 2
Nghost:    2200.88 ave 2225 max 2175 min
Histogram: 2 2 1 0 2 1 2 4 1 1
Neighs:    11468.4 ave 17471 max 7464 min
Histogram: 4 2 0 1 4 0 2 1 0 2

Total # of neighbors = 183495
Ave neighs/atom = 105.822
Ave special neighs/atom = 6.6436
Neighbor list builds = 2640
Dangerous builds = 0
Total wall time: 0:44:49
