LAMMPS (30 Mar 2018)
Reading data file ...
  orthogonal box = (0 0 0) to (46.7237 46.7237 46.7237)
  2 by 3 by 4 MPI processor grid
  reading atoms ...
  2335 atoms
  scanning bonds ...
  5 = max bonds/atom
  scanning angles ...
  10 = max angles/atom
  scanning dihedrals ...
  32 = max dihedrals/atom
  scanning impropers ...
  3 = max impropers/atom
  reading bonds ...
  2064 bonds
  reading angles ...
  3696 angles
  reading dihedrals ...
  6240 dihedrals
  reading impropers ...
  1008 impropers
Finding 1-2 1-3 1-4 neighbors ...
  special bond factors lj:   0          0          0         
  special bond factors coul: 0          0          0         
  5 = max # of 1-2 neighbors
  8 = max # of 1-3 neighbors
  20 = max # of 1-4 neighbors
  19 = max # of special neighbors
Finding 1-2 1-3 1-4 neighbors ...
  special bond factors lj:   0          0          1         
  special bond factors coul: 1          1          1         
  5 = max # of 1-2 neighbors
  8 = max # of 1-3 neighbors
  19 = max # of special neighbors
WARNING: Using 'neigh_modify every 1 delay 0 check yes' setting during minimization (../min.cpp:168)
Neighbor list info ...
  update every 1 steps, delay 0 steps, check yes
  max neighbors/atom: 2000, page size: 100000
  master list distance cutoff = 16
  ghost atom cutoff = 16
  binsize = 8, bins = 6 6 6
  3 neighbor lists, perpetual/occasional/extra = 3 0 0
  (1) pair buck6d/coul/gauss/dsf, perpetual, skip from (3)
      attributes: half, newton on
      pair build: skip
      stencil: none
      bin: none
  (2) pair lj/cut, perpetual, skip from (3)
      attributes: half, newton on
      pair build: skip
      stencil: none
      bin: none
  (3) neighbor class addition, perpetual
      attributes: half, newton on
      pair build: half/bin/newton
      stencil: half/bin/3d/newton
      bin: standard
Setting up cg style minimization ...
  Unit style    : real
  Current step  : 0
WARNING: Inconsistent image flags (../domain.cpp:786)
Per MPI rank memory allocation (min/avg/max) = 22.91 | 23.32 | 24.46 Mbytes
Step Temp E_pair E_mol TotEng Press 
       0            0   -13174.621    6482.8914   -6691.7296    5979.6715 
     501            0    -13426.09    3737.9675   -9688.1224    -890.8755 
Loop time of 1.46581 on 24 procs for 501 steps with 2335 atoms

98.4% CPU use with 24 MPI tasks x no OpenMP threads

Minimization stats:
  Stopping criterion = max force evaluations
  Energy initial, next-to-last, final = 
        -6691.72955274     -9688.04805355     -9688.12242677
  Force two-norm initial, final = 2574.18 13.0405
  Force max component initial, final = 152.008 2.40158
  Final line search alpha, max atom move = 0.0039892 0.00958037
  Iterations, force evaluations = 501 1001

MPI task timing breakdown:
Section |  min time  |  avg time  |  max time  |%varavg| %total
---------------------------------------------------------------
Pair    | 0.56053    | 0.78853    | 0.9608     |  12.8 | 53.79
Bond    | 0.12661    | 0.15843    | 0.20114    |   5.0 | 10.81
Neigh   | 0.012897   | 0.014017   | 0.015334   |   0.8 |  0.96
Comm    | 0.26837    | 0.47192    | 0.71203    |  16.6 | 32.20
Output  | 0          | 0          | 0          |   0.0 |  0.00
Modify  | 0          | 0          | 0          |   0.0 |  0.00
Other   |            | 0.03291    |            |       |  2.24

Nlocal:    97.2917 ave 118 max 72 min
Histogram: 1 0 3 5 1 3 4 2 3 2
Nghost:    2612.46 ave 2789 max 2517 min
Histogram: 12 4 0 0 0 0 0 0 3 5
Neighs:    7642.08 ave 11448 max 2610 min
Histogram: 1 0 1 4 4 4 3 4 0 3

Total # of neighbors = 183410
Ave neighs/atom = 78.5482
Ave special neighs/atom = 4.93362
Neighbor list builds = 13
Dangerous builds = 0
Neighbor list info ...
  update every 1 steps, delay 10 steps, check yes
  max neighbors/atom: 2000, page size: 100000
  master list distance cutoff = 16
  ghost atom cutoff = 16
  binsize = 8, bins = 6 6 6
  3 neighbor lists, perpetual/occasional/extra = 3 0 0
  (1) pair buck6d/coul/gauss/dsf, perpetual, skip from (3)
      attributes: half, newton on
      pair build: skip
      stencil: none
      bin: none
  (2) pair lj/cut, perpetual, skip from (3)
      attributes: half, newton on
      pair build: skip
      stencil: none
      bin: none
  (3) neighbor class addition, perpetual
      attributes: half, newton on
      pair build: half/bin/newton
      stencil: half/bin/3d/newton
      bin: standard
Setting up Verlet run ...
  Unit style    : real
  Current step  : 501
  Time step     : 1
WARNING: Inconsistent image flags (../domain.cpp:786)
Per MPI rank memory allocation (min/avg/max) = 22.56 | 22.75 | 23.34 Mbytes
Step Temp PotEng TotEng Press Volume Lx Ly Lz 
     501          110   -9688.1224   -8922.8293   -547.91112     102002.7      46.7237      46.7237      46.7237 
    1000    92.917211   -9014.6182   -8368.1736   -598.81212     102002.7      46.7237      46.7237      46.7237 
    2000    114.81493   -8872.5599   -8073.7683   -664.09984     102002.7      46.7237      46.7237      46.7237 
    3000    110.29432   -8858.6249   -8091.2841   -597.56775     102002.7      46.7237      46.7237      46.7237 
    4000    109.22324   -8881.5521    -8121.663   -438.98923     102002.7      46.7237      46.7237      46.7237 
    5000    108.24036   -8855.9577   -8102.9067    -663.5733     102002.7      46.7237      46.7237      46.7237 
    6000    109.97835   -8859.7372   -8094.5946   -578.46615     102002.7      46.7237      46.7237      46.7237 
    7000    109.08323   -8871.7967   -8112.8817    -689.4297     102002.7      46.7237      46.7237      46.7237 
    8000    110.47975   -8836.7578   -8068.1269   -682.02336     102002.7      46.7237      46.7237      46.7237 
    9000    111.43193   -8869.8866   -8094.6311   -505.67641     102002.7      46.7237      46.7237      46.7237 
   10000    111.10306    -8844.316   -8071.3487   -876.21308     102002.7      46.7237      46.7237      46.7237 
   11000    110.73493   -8874.9034   -8104.4972   -509.09955     102002.7      46.7237      46.7237      46.7237 
   12000    108.14787   -8854.3619   -8101.9543   -939.17506     102002.7      46.7237      46.7237      46.7237 
   13000    111.95853   -8874.5612   -8095.6421   -1330.0987     102002.7      46.7237      46.7237      46.7237 
   14000    109.36927    -8854.927    -8094.022    -688.4057     102002.7      46.7237      46.7237      46.7237 
   15000    108.88738   -8873.7325     -8116.18   -1097.8949     102002.7      46.7237      46.7237      46.7237 
   16000    108.20682   -8862.8749   -8110.0572   -905.02984     102002.7      46.7237      46.7237      46.7237 
   17000    106.80594   -8866.4775   -8123.4061   -843.85351     102002.7      46.7237      46.7237      46.7237 
   18000    111.94404   -8862.4897   -8083.6714   -687.87724     102002.7      46.7237      46.7237      46.7237 
   19000    109.12272   -8872.7916   -8113.6018    -481.8596     102002.7      46.7237      46.7237      46.7237 
   20000    109.09112   -8882.6783   -8123.7084   -895.75131     102002.7      46.7237      46.7237      46.7237 
   21000    112.80701   -8872.7505   -8087.9284   -634.84475     102002.7      46.7237      46.7237      46.7237 
   22000    112.13325   -8856.7634   -8076.6288   -899.61247     102002.7      46.7237      46.7237      46.7237 
   23000    110.05246   -8864.6089   -8098.9508   -840.72693     102002.7      46.7237      46.7237      46.7237 
   24000    111.10657   -8892.3298    -8119.338   -695.16904     102002.7      46.7237      46.7237      46.7237 
   25000    110.68779   -8848.0143   -8077.9361   -981.06202     102002.7      46.7237      46.7237      46.7237 
   26000    110.12116   -8879.6427   -8113.5066    -828.4084     102002.7      46.7237      46.7237      46.7237 
   27000    112.07585    -8882.423   -8102.6877   -721.54496     102002.7      46.7237      46.7237      46.7237 
   28000    110.61396   -8884.7152   -8115.1506   -1039.1395     102002.7      46.7237      46.7237      46.7237 
   29000    111.83098   -8879.9295   -8101.8978   -838.93218     102002.7      46.7237      46.7237      46.7237 
   30000    111.77738   -8865.9737    -8088.315   -755.84602     102002.7      46.7237      46.7237      46.7237 
   31000    108.77984   -8852.2822   -8095.4779   -1105.7739     102002.7      46.7237      46.7237      46.7237 
   32000    110.52493   -8889.5998   -8120.6546   -659.56784     102002.7      46.7237      46.7237      46.7237 
   33000    110.68109   -8879.5293   -8109.4977   -774.13141     102002.7      46.7237      46.7237      46.7237 
   34000    112.70077   -8860.4629   -8076.3799    -973.6735     102002.7      46.7237      46.7237      46.7237 
   35000    111.19185   -8874.2741    -8100.689   -616.05027     102002.7      46.7237      46.7237      46.7237 
   36000    108.76544     -8857.47   -8100.7659   -1045.6244     102002.7      46.7237      46.7237      46.7237 
   37000    108.25054   -8866.5588    -8113.437   -822.01799     102002.7      46.7237      46.7237      46.7237 
   38000    112.16588   -8847.0794   -8066.7178   -929.89278     102002.7      46.7237      46.7237      46.7237 
   39000    110.02995   -8869.0928   -8103.5913   -887.93127     102002.7      46.7237      46.7237      46.7237 
   40000    105.95825   -8874.8339     -8137.66   -811.84161     102002.7      46.7237      46.7237      46.7237 
   41000    112.17089   -8869.7611   -8089.3646   -676.76428     102002.7      46.7237      46.7237      46.7237 
   42000    108.02009    -8873.447   -8121.9285   -941.77464     102002.7      46.7237      46.7237      46.7237 
   43000    109.32479   -8894.3918   -8133.7962   -800.94468     102002.7      46.7237      46.7237      46.7237 
   44000    109.82254   -8862.5139   -8098.4553   -835.88605     102002.7      46.7237      46.7237      46.7237 
   45000    110.97099   -8880.6831   -8108.6345   -834.42507     102002.7      46.7237      46.7237      46.7237 
   46000    107.91633   -8877.2419   -8126.4452   -975.85617     102002.7      46.7237      46.7237      46.7237 
   47000    107.44419   -8863.7265   -8116.2146   -794.34778     102002.7      46.7237      46.7237      46.7237 
   48000    115.43695   -8862.6767   -8059.5576   -896.59311     102002.7      46.7237      46.7237      46.7237 
   49000    109.63943   -8871.1146   -8108.3299   -906.85033     102002.7      46.7237      46.7237      46.7237 
   50000    108.87046   -8850.9642   -8093.5295   -833.33848     102002.7      46.7237      46.7237      46.7237 
   51000    110.77745   -8867.1304   -8096.4284   -1137.9719     102002.7      46.7237      46.7237      46.7237 
   52000    110.90707   -8875.6086   -8104.0048   -936.50112     102002.7      46.7237      46.7237      46.7237 
   53000    113.06672   -8858.4929   -8071.8639   -903.19653     102002.7      46.7237      46.7237      46.7237 
   54000    109.44237    -8855.297   -8093.8834   -684.99411     102002.7      46.7237      46.7237      46.7237 
   55000    109.97013   -8829.0164   -8063.9311   -751.47665     102002.7      46.7237      46.7237      46.7237 
   56000    108.28047   -8869.3932   -8116.0631   -960.89419     102002.7      46.7237      46.7237      46.7237 
   57000    111.64703    -8884.979    -8108.227   -822.66145     102002.7      46.7237      46.7237      46.7237 
   58000     107.8264   -8863.3847   -8113.2138    -941.6851     102002.7      46.7237      46.7237      46.7237 
   59000    110.39258   -8843.0985    -8075.074   -798.17418     102002.7      46.7237      46.7237      46.7237 
   60000    106.70734   -8852.7928   -8110.4074   -775.67799     102002.7      46.7237      46.7237      46.7237 
   61000    108.09291   -8873.6145   -8121.5894   -766.28113     102002.7      46.7237      46.7237      46.7237 
   62000    111.94427   -8871.4862   -8092.6663   -548.25855     102002.7      46.7237      46.7237      46.7237 
   63000    110.16334   -8869.7047   -8103.2752     -679.202     102002.7      46.7237      46.7237      46.7237 
   64000     110.1576   -8869.9116    -8103.522   -741.83795     102002.7      46.7237      46.7237      46.7237 
   65000    110.28717   -8854.7987   -8087.5077    -773.3367     102002.7      46.7237      46.7237      46.7237 
   66000    109.57532   -8862.6122   -8100.2736   -656.18363     102002.7      46.7237      46.7237      46.7237 
   67000    109.51364   -8891.9986   -8130.0891   -717.92227     102002.7      46.7237      46.7237      46.7237 
   68000     107.9834   -8879.5391   -8128.2758   -770.20978     102002.7      46.7237      46.7237      46.7237 
   69000     110.1384   -8857.2194   -8090.9633   -772.05273     102002.7      46.7237      46.7237      46.7237 
   70000    113.01132   -8851.6694   -8065.4258   -921.97039     102002.7      46.7237      46.7237      46.7237 
   71000    112.90761   -8882.4253   -8096.9033   -666.51557     102002.7      46.7237      46.7237      46.7237 
   72000    110.12118   -8873.7606   -8107.6243    -1059.495     102002.7      46.7237      46.7237      46.7237 
   73000    108.56555   -8867.1267   -8111.8133   -1112.2183     102002.7      46.7237      46.7237      46.7237 
   74000    108.44344   -8864.4133   -8109.9495    -694.6702     102002.7      46.7237      46.7237      46.7237 
   75000    112.22583     -8859.57   -8078.7913   -923.78618     102002.7      46.7237      46.7237      46.7237 
   76000    110.14329   -8862.0332   -8095.7432   -536.08363     102002.7      46.7237      46.7237      46.7237 
   77000    109.55445   -8877.2232   -8115.0298   -728.09778     102002.7      46.7237      46.7237      46.7237 
   78000    110.51424   -8863.0542   -8094.1834    -994.1813     102002.7      46.7237      46.7237      46.7237 
   79000    112.60948   -8858.5237   -8075.0759   -671.95308     102002.7      46.7237      46.7237      46.7237 
   80000    109.45224   -8865.5131   -8104.0308   -702.68818     102002.7      46.7237      46.7237      46.7237 
   81000    109.63165    -8850.176   -8087.4455   -810.36157     102002.7      46.7237      46.7237      46.7237 
   82000    110.05681   -8851.5875   -8085.8991   -832.91146     102002.7      46.7237      46.7237      46.7237 
   83000    108.53762   -8855.9637   -8100.8446   -672.60604     102002.7      46.7237      46.7237      46.7237 
   84000    108.85521   -8882.9579   -8125.6293   -611.23917     102002.7      46.7237      46.7237      46.7237 
   85000    109.47994    -8888.116    -8126.441   -675.67186     102002.7      46.7237      46.7237      46.7237 
   86000    108.74119    -8870.239   -8113.7037   -637.50775     102002.7      46.7237      46.7237      46.7237 
   87000    111.81612   -8878.9089   -8100.9806   -380.70291     102002.7      46.7237      46.7237      46.7237 
   88000    114.96124   -8850.8797   -8051.0702   -715.92496     102002.7      46.7237      46.7237      46.7237 
   89000    109.41297   -8848.7073   -8087.4982   -666.94767     102002.7      46.7237      46.7237      46.7237 
   90000    107.77623   -8882.8178   -8132.9958   -744.19257     102002.7      46.7237      46.7237      46.7237 
   91000     109.8723   -8871.4194   -8107.0147   -1143.3014     102002.7      46.7237      46.7237      46.7237 
   92000    111.92285   -8863.7086   -8085.0377   -842.79749     102002.7      46.7237      46.7237      46.7237 
   93000    107.15504     -8847.17   -8101.6698   -871.89503     102002.7      46.7237      46.7237      46.7237 
   94000    109.24917     -8874.26   -8114.1905   -1086.7934     102002.7      46.7237      46.7237      46.7237 
   95000    110.33843   -8874.4045   -8106.7568   -869.17607     102002.7      46.7237      46.7237      46.7237 
   96000    110.01147   -8856.4843   -8091.1113   -869.62592     102002.7      46.7237      46.7237      46.7237 
   97000    112.85375   -8851.2543    -8066.107   -764.01242     102002.7      46.7237      46.7237      46.7237 
   98000    109.85979   -8867.0084   -8102.6907   -704.92962     102002.7      46.7237      46.7237      46.7237 
   99000    111.33019   -8871.4255    -8096.878   -981.05664     102002.7      46.7237      46.7237      46.7237 
  100000    110.75645   -8859.9108   -8089.3548   -906.11238     102002.7      46.7237      46.7237      46.7237 
  101000     109.4131   -8880.4429   -8119.2329   -917.15599     102002.7      46.7237      46.7237      46.7237 
  102000    109.14887   -8874.1397    -8114.768   -1039.9073     102002.7      46.7237      46.7237      46.7237 
  103000     111.7778   -8840.5198   -8062.8581     -1186.98     102002.7      46.7237      46.7237      46.7237 
  104000    108.78638   -8853.3242   -8096.4745   -1046.8204     102002.7      46.7237      46.7237      46.7237 
  105000    109.40558   -8892.4462   -8131.2886   -702.88942     102002.7      46.7237      46.7237      46.7237 
  106000    113.26016   -8874.5476   -8086.5728   -1021.4336     102002.7      46.7237      46.7237      46.7237 
  107000    112.58995   -8854.9777   -8071.6656   -982.50493     102002.7      46.7237      46.7237      46.7237 
  108000    109.54935   -8874.3958   -8112.2379   -963.23829     102002.7      46.7237      46.7237      46.7237 
  109000    109.14082   -8852.6159   -8093.3003   -1034.6234     102002.7      46.7237      46.7237      46.7237 
  110000     112.4259   -8865.3076   -8083.1369   -970.75549     102002.7      46.7237      46.7237      46.7237 
  111000    105.96067   -8884.9641   -8147.7734   -1058.0718     102002.7      46.7237      46.7237      46.7237 
  112000    110.45529   -8849.6201   -8081.1595   -1133.3904     102002.7      46.7237      46.7237      46.7237 
  113000    110.15802   -8873.0172   -8106.6247   -976.07576     102002.7      46.7237      46.7237      46.7237 
  114000    110.97827   -8877.2238   -8105.1246   -861.19314     102002.7      46.7237      46.7237      46.7237 
  115000    113.40951   -8873.6302   -8084.6164   -1027.5978     102002.7      46.7237      46.7237      46.7237 
  116000    109.36852   -8876.2205   -8115.3207   -1042.8856     102002.7      46.7237      46.7237      46.7237 
  117000    108.37164   -8867.6141   -8113.6497   -769.11143     102002.7      46.7237      46.7237      46.7237 
  118000    108.93113    -8875.582   -8117.7252   -632.94519     102002.7      46.7237      46.7237      46.7237 
  119000    108.02323    -8848.342   -8096.8016   -880.06004     102002.7      46.7237      46.7237      46.7237 
  120000    110.22158   -8862.3278    -8095.493   -936.43392     102002.7      46.7237      46.7237      46.7237 
  121000    107.13312   -8878.0675   -8132.7198   -941.68112     102002.7      46.7237      46.7237      46.7237 
  122000    106.50662   -8885.4156   -8144.4266     -592.236     102002.7      46.7237      46.7237      46.7237 
  123000    111.50628   -8855.9286    -8080.156   -694.35437     102002.7      46.7237      46.7237      46.7237 
  124000    110.66681   -8842.0707   -8072.1384    -667.2034     102002.7      46.7237      46.7237      46.7237 
  125000    110.66754   -8871.2718   -8101.3344   -621.22206     102002.7      46.7237      46.7237      46.7237 
  126000    110.68491    -8874.554   -8104.4958   -802.42832     102002.7      46.7237      46.7237      46.7237 
  127000     111.4449   -8878.7082   -8103.3626   -837.48569     102002.7      46.7237      46.7237      46.7237 
  128000    114.46266   -8877.8659   -8081.5251   -711.38329     102002.7      46.7237      46.7237      46.7237 
  129000    109.22033   -8885.3929    -8125.524   -870.90312     102002.7      46.7237      46.7237      46.7237 
  130000    108.85713   -8876.6348   -8119.2928   -801.34105     102002.7      46.7237      46.7237      46.7237 
  131000    107.68207   -8856.8517   -8107.6849   -1287.8167     102002.7      46.7237      46.7237      46.7237 
  132000    110.85669   -8864.6954    -8093.442   -900.89831     102002.7      46.7237      46.7237      46.7237 
  133000    110.78066   -8879.8514    -8109.127   -583.61832     102002.7      46.7237      46.7237      46.7237 
  134000    109.39495   -8874.3327    -8113.249   -1050.6313     102002.7      46.7237      46.7237      46.7237 
  135000    108.72723   -8855.0784   -8098.6402   -882.68017     102002.7      46.7237      46.7237      46.7237 
  136000    109.72297   -8878.3169   -8114.9511   -528.51569     102002.7      46.7237      46.7237      46.7237 
  137000    108.72301   -8862.9729    -8106.564   -1044.9412     102002.7      46.7237      46.7237      46.7237 
  138000    109.43212   -8846.1812   -8084.8389    -974.9776     102002.7      46.7237      46.7237      46.7237 
  139000      108.635   -8875.8917   -8120.0951    -759.5862     102002.7      46.7237      46.7237      46.7237 
  140000     109.3658   -8850.3203   -8089.4393   -890.75441     102002.7      46.7237      46.7237      46.7237 
  141000    106.62322   -8874.1667   -8132.3664   -819.96967     102002.7      46.7237      46.7237      46.7237 
  142000    107.51297   -8880.3256   -8132.3352   -920.92261     102002.7      46.7237      46.7237      46.7237 
  143000    112.55179    -8871.877   -8088.8305   -917.03923     102002.7      46.7237      46.7237      46.7237 
  144000    109.80973   -8872.0142   -8108.0448   -965.04101     102002.7      46.7237      46.7237      46.7237 
  145000     111.1664   -8856.5349   -8083.1268   -872.19742     102002.7      46.7237      46.7237      46.7237 
  146000    110.49946   -8839.5159   -8070.7478   -638.17452     102002.7      46.7237      46.7237      46.7237 
  147000    113.36479   -8867.4379   -8078.7352    -623.0352     102002.7      46.7237      46.7237      46.7237 
  148000    108.71974   -8886.1468   -8129.7607   -1010.3882     102002.7      46.7237      46.7237      46.7237 
  149000    110.68898   -8851.2628   -8081.1762   -990.78509     102002.7      46.7237      46.7237      46.7237 
  150000    107.67422   -8868.4048   -8119.2925   -741.75892     102002.7      46.7237      46.7237      46.7237 
  151000     109.8349   -8865.5687   -8101.4242   -1258.7718     102002.7      46.7237      46.7237      46.7237 
  152000    107.70625   -8866.4212   -8117.0862    -1189.466     102002.7      46.7237      46.7237      46.7237 
  153000    109.99124   -8876.9726   -8111.7404   -1048.4292     102002.7      46.7237      46.7237      46.7237 
  154000    111.04951   -8870.9989    -8098.404   -970.74098     102002.7      46.7237      46.7237      46.7237 
  155000    111.71768   -8861.1771   -8083.9337    -780.2234     102002.7      46.7237      46.7237      46.7237 
  156000    110.05964   -8874.6277   -8108.9197   -952.67692     102002.7      46.7237      46.7237      46.7237 
  157000    109.10538    -8852.636   -8093.5669    -776.2042     102002.7      46.7237      46.7237      46.7237 
  158000    108.86049   -8871.9482   -8114.5829   -802.83442     102002.7      46.7237      46.7237      46.7237 
  159000    110.19706   -8871.7977   -8105.1336    -903.7555     102002.7      46.7237      46.7237      46.7237 
  160000    112.02138   -8851.9636   -8072.6073   -872.11118     102002.7      46.7237      46.7237      46.7237 
  161000    111.00248    -8865.448   -8093.1804   -883.55994     102002.7      46.7237      46.7237      46.7237 
  162000    107.94361   -8857.7178   -8106.7313   -989.29983     102002.7      46.7237      46.7237      46.7237 
  163000    110.15775   -8883.2753   -8116.8847   -707.34837     102002.7      46.7237      46.7237      46.7237 
  164000     108.4806   -8877.8402   -8123.1178   -815.94773     102002.7      46.7237      46.7237      46.7237 
  165000    112.28174   -8866.6953   -8085.5276   -1024.5699     102002.7      46.7237      46.7237      46.7237 
  166000    111.07957   -8857.2556   -8084.4516   -828.10545     102002.7      46.7237      46.7237      46.7237 
  167000    110.68294   -8873.8401   -8103.7956   -873.66053     102002.7      46.7237      46.7237      46.7237 
  168000    109.86551    -8843.262   -8078.9045   -722.77538     102002.7      46.7237      46.7237      46.7237 
  169000    109.95982   -8879.1047   -8114.0911   -883.93589     102002.7      46.7237      46.7237      46.7237 
  170000    109.14781   -8880.3071   -8120.9428   -819.95482     102002.7      46.7237      46.7237      46.7237 
  171000    111.17086   -8879.4188   -8105.9797   -809.90858     102002.7      46.7237      46.7237      46.7237 
  172000    109.09354   -8817.8504   -8058.8637   -791.28338     102002.7      46.7237      46.7237      46.7237 
  173000    109.87178   -8871.6949   -8107.2938   -1016.9827     102002.7      46.7237      46.7237      46.7237 
  174000    107.12804    -8845.634   -8100.3217   -847.59757     102002.7      46.7237      46.7237      46.7237 
  175000    111.72213   -8877.9307   -8100.6563   -735.65157     102002.7      46.7237      46.7237      46.7237 
  176000    111.27004   -8866.7647   -8092.6356   -801.71684     102002.7      46.7237      46.7237      46.7237 
  177000    113.74987   -8834.9588    -8043.577   -724.27244     102002.7      46.7237      46.7237      46.7237 
  178000    109.16416   -8860.1096   -8100.6315   -958.49505     102002.7      46.7237      46.7237      46.7237 
  179000    110.03962   -8883.8342   -8118.2654   -974.45883     102002.7      46.7237      46.7237      46.7237 
  180000     105.7498   -8877.5417   -8141.8181   -1034.5308     102002.7      46.7237      46.7237      46.7237 
  181000    110.98775   -8867.6559   -8095.4907   -1120.1569     102002.7      46.7237      46.7237      46.7237 
  182000    112.39712   -8843.8436   -8061.8731   -1058.4122     102002.7      46.7237      46.7237      46.7237 
  183000    108.41232   -8864.1826   -8109.9353   -1092.5077     102002.7      46.7237      46.7237      46.7237 
  184000    109.49974   -8831.3654   -8069.5526   -1160.1541     102002.7      46.7237      46.7237      46.7237 
  185000    112.67586   -8864.9944   -8081.0847   -765.94798     102002.7      46.7237      46.7237      46.7237 
  186000    108.32444   -8849.4335   -8095.7976   -888.28983     102002.7      46.7237      46.7237      46.7237 
  187000    111.60851   -8826.9501   -8050.4662   -998.42423     102002.7      46.7237      46.7237      46.7237 
  188000     107.8511   -8853.5038    -8103.161   -1038.1901     102002.7      46.7237      46.7237      46.7237 
  189000    110.19191   -8868.7733    -8102.145   -1114.0197     102002.7      46.7237      46.7237      46.7237 
  190000    109.58371   -8865.5481   -8103.1512   -1268.1184     102002.7      46.7237      46.7237      46.7237 
  191000    111.34972   -8852.6073   -8077.9238   -1005.6015     102002.7      46.7237      46.7237      46.7237 
  192000    110.48172   -8846.7356    -8078.091   -953.83855     102002.7      46.7237      46.7237      46.7237 
  193000    109.99905   -8861.5333   -8096.2467   -1020.8095     102002.7      46.7237      46.7237      46.7237 
  194000    111.18387   -8826.5515   -8053.0219   -726.84494     102002.7      46.7237      46.7237      46.7237 
  195000    111.24282   -8871.5329   -8097.5931   -797.35555     102002.7      46.7237      46.7237      46.7237 
  196000    112.46348   -8853.9915   -8071.5594   -610.44861     102002.7      46.7237      46.7237      46.7237 
  197000    111.34039   -8848.1902   -8073.5716   -773.18891     102002.7      46.7237      46.7237      46.7237 
  198000    109.49129   -8871.2567   -8109.5027    -718.7628     102002.7      46.7237      46.7237      46.7237 
  199000    107.71491   -8883.0947   -8133.6994   -908.18816     102002.7      46.7237      46.7237      46.7237 
  200000    112.02257   -8868.5305   -8089.1659   -727.65579     102002.7      46.7237      46.7237      46.7237 
  201000    112.91073   -8848.9363   -8063.3926   -986.84185     102002.7      46.7237      46.7237      46.7237 
  202000    110.67713   -8869.5754   -8099.5713   -404.94552     102002.7      46.7237      46.7237      46.7237 
  203000    111.42629   -8850.4482   -8075.2321   -627.89895     102002.7      46.7237      46.7237      46.7237 
  204000    108.94463    -8850.679   -8092.7282   -787.22191     102002.7      46.7237      46.7237      46.7237 
  205000    112.25653   -8874.6832   -8093.6908   -754.42747     102002.7      46.7237      46.7237      46.7237 
  206000    107.05005   -8853.9469   -8109.1771   -770.77643     102002.7      46.7237      46.7237      46.7237 
  207000    114.50637   -8870.6989    -8074.054   -700.69985     102002.7      46.7237      46.7237      46.7237 
  208000    108.95863   -8857.4293   -8099.3811    -1013.647     102002.7      46.7237      46.7237      46.7237 
  209000    110.21284   -8869.1989    -8102.425   -849.14485     102002.7      46.7237      46.7237      46.7237 
  210000    113.17511   -8857.2145   -8069.8314   -615.71372     102002.7      46.7237      46.7237      46.7237 
  211000    107.61184   -8861.3567   -8112.6784   -1197.4816     102002.7      46.7237      46.7237      46.7237 
  212000    112.14792   -8859.8052   -8079.5685   -839.43487     102002.7      46.7237      46.7237      46.7237 
  213000    112.13503   -8881.9902   -8101.8432   -988.27903     102002.7      46.7237      46.7237      46.7237 
  214000    110.64367   -8876.4095   -8106.6382   -889.21958     102002.7      46.7237      46.7237      46.7237 
  215000    110.57632     -8862.97   -8093.6673    -1053.141     102002.7      46.7237      46.7237      46.7237 
  216000     108.3629   -8845.8677   -8091.9642   -851.28825     102002.7      46.7237      46.7237      46.7237 
  217000    108.58982    -8860.299   -8104.8168   -787.69256     102002.7      46.7237      46.7237      46.7237 
  218000    109.34779   -8858.4242   -8097.6686   -925.49944     102002.7      46.7237      46.7237      46.7237 
  219000    110.17374   -8844.6471   -8078.1451   -792.32291     102002.7      46.7237      46.7237      46.7237 
  220000    108.90628     -8848.48    -8090.796    -809.1001     102002.7      46.7237      46.7237      46.7237 
  221000    110.46838    -8868.946   -8100.3943    -831.3087     102002.7      46.7237      46.7237      46.7237 
  222000    108.67296   -8872.3747    -8116.314   -826.19521     102002.7      46.7237      46.7237      46.7237 
  223000    110.61593    -8865.346   -8095.7676   -1071.6375     102002.7      46.7237      46.7237      46.7237 
  224000    108.56671   -8845.2154   -8089.8939   -784.09778     102002.7      46.7237      46.7237      46.7237 
  225000    111.16911   -8841.4255   -8067.9985   -820.47459     102002.7      46.7237      46.7237      46.7237 
  226000     110.0914   -8859.5623   -8093.6332   -992.94453     102002.7      46.7237      46.7237      46.7237 
  227000    108.87847    -8870.456   -8112.9656   -870.03629     102002.7      46.7237      46.7237      46.7237 
  228000    109.66773   -8853.8288   -8090.8473    -743.2652     102002.7      46.7237      46.7237      46.7237 
  229000    110.56476   -8889.2349   -8120.0126   -620.25191     102002.7      46.7237      46.7237      46.7237 
  230000    111.24485   -8855.7987   -8081.8449   -692.78758     102002.7      46.7237      46.7237      46.7237 
  231000    108.77886   -8855.1612   -8098.3638   -896.12045     102002.7      46.7237      46.7237      46.7237 
  232000    110.71589   -8848.8743   -8078.6005   -682.21607     102002.7      46.7237      46.7237      46.7237 
  233000    110.29242   -8835.9717   -8068.6441   -834.28632     102002.7      46.7237      46.7237      46.7237 
  234000    109.30581   -8852.2341   -8091.7706   -734.45158     102002.7      46.7237      46.7237      46.7237 
  235000    107.28749    -8847.533   -8101.1113   -822.53498     102002.7      46.7237      46.7237      46.7237 
  236000    111.11337   -8864.7467   -8091.7075   -922.44516     102002.7      46.7237      46.7237      46.7237 
  237000    111.91318   -8890.7463   -8112.1427    -771.3209     102002.7      46.7237      46.7237      46.7237 
  238000    110.75311   -8858.7338   -8088.2011   -807.91352     102002.7      46.7237      46.7237      46.7237 
  239000    109.42374   -8874.7295   -8113.4455   -830.02298     102002.7      46.7237      46.7237      46.7237 
  240000    111.99676   -8863.8033   -8084.6183   -893.82918     102002.7      46.7237      46.7237      46.7237 
  241000    109.49156   -8838.8873   -8077.1314   -949.33344     102002.7      46.7237      46.7237      46.7237 
  242000    111.15397   -8861.4404   -8088.1188   -500.64165     102002.7      46.7237      46.7237      46.7237 
  243000    110.20517    -8872.734   -8106.0134   -903.57285     102002.7      46.7237      46.7237      46.7237 
  244000    111.57643   -8832.7251   -8056.4644   -683.24409     102002.7      46.7237      46.7237      46.7237 
  245000    111.41326   -8844.0855   -8068.9599   -816.47133     102002.7      46.7237      46.7237      46.7237 
  246000     109.8407   -8864.2901   -8100.1053   -979.50865     102002.7      46.7237      46.7237      46.7237 
  247000    109.15309   -8854.5127   -8095.1117   -683.02898     102002.7      46.7237      46.7237      46.7237 
  248000    113.06124    -8827.753   -8041.1621   -1086.9754     102002.7      46.7237      46.7237      46.7237 
  249000    108.40975   -8850.3558   -8096.1263   -856.14568     102002.7      46.7237      46.7237      46.7237 
  250000    114.38565   -8875.3748   -8079.5697   -886.64179     102002.7      46.7237      46.7237      46.7237 
  251000    106.41075   -8858.0762   -8117.7542   -861.45445     102002.7      46.7237      46.7237      46.7237 
  252000    108.79746   -8850.9313   -8094.0044   -977.31736     102002.7      46.7237      46.7237      46.7237 
  253000     110.4758   -8858.9777   -8090.3743   -745.73928     102002.7      46.7237      46.7237      46.7237 
  254000    111.07206   -8818.3946   -8045.6429   -514.88691     102002.7      46.7237      46.7237      46.7237 
  255000    107.97579   -8832.7596   -8081.5493   -855.62683     102002.7      46.7237      46.7237      46.7237 
  256000    110.65414   -8871.3812    -8101.537   -912.35297     102002.7      46.7237      46.7237      46.7237 
  257000    111.23631   -8878.1179   -8104.2234   -806.40118     102002.7      46.7237      46.7237      46.7237 
  258000    109.09859   -8879.1721   -8120.1502   -678.98096     102002.7      46.7237      46.7237      46.7237 
  259000    110.68191    -8908.894   -8138.8566   -949.55622     102002.7      46.7237      46.7237      46.7237 
  260000    110.68621   -8869.1182   -8099.0509   -1043.7851     102002.7      46.7237      46.7237      46.7237 
  261000    108.07198   -8873.4316   -8121.5521   -806.44224     102002.7      46.7237      46.7237      46.7237 
  262000    109.30395   -8868.8732   -8108.4226    -920.0673     102002.7      46.7237      46.7237      46.7237 
  263000    108.66127   -8865.4748   -8109.4955   -905.74181     102002.7      46.7237      46.7237      46.7237 
  264000    111.22917   -8875.6494   -8101.8046   -884.22706     102002.7      46.7237      46.7237      46.7237 
  265000     108.9707   -8872.9922     -8114.86   -1064.2922     102002.7      46.7237      46.7237      46.7237 
  266000    110.20537   -8888.1044   -8121.3824   -1099.0676     102002.7      46.7237      46.7237      46.7237 
  267000    109.05809   -8855.9779   -8097.2378   -934.02794     102002.7      46.7237      46.7237      46.7237 
  268000    112.94694   -8860.7402   -8074.9446    -983.1418     102002.7      46.7237      46.7237      46.7237 
  269000    111.73273   -8881.6212   -8104.2731   -1031.1001     102002.7      46.7237      46.7237      46.7237 
  270000    110.26183   -8842.3698    -8075.255   -881.53829     102002.7      46.7237      46.7237      46.7237 
  271000    107.38742   -8854.7228   -8107.6059    -1218.595     102002.7      46.7237      46.7237      46.7237 
  272000    110.20452   -8868.1805   -8101.4644   -758.76423     102002.7      46.7237      46.7237      46.7237 
  273000    112.38873   -8878.2646   -8096.3525   -1069.3702     102002.7      46.7237      46.7237      46.7237 
  274000    111.46168   -8843.9206   -8068.4582   -1192.4526     102002.7      46.7237      46.7237      46.7237 
  275000    109.86372   -8852.7199   -8088.3749   -872.07744     102002.7      46.7237      46.7237      46.7237 
  276000     109.2208   -8874.8778   -8115.0056   -1002.9106     102002.7      46.7237      46.7237      46.7237 
  277000    107.75687   -8864.2111   -8114.5238   -698.67402     102002.7      46.7237      46.7237      46.7237 
  278000    108.16367     -8912.38   -8159.8626    -958.6795     102002.7      46.7237      46.7237      46.7237 
  279000    110.43107   -8878.9166   -8110.6244   -812.00219     102002.7      46.7237      46.7237      46.7237 
  280000    107.24959   -8832.1852   -8086.0272   -790.64974     102002.7      46.7237      46.7237      46.7237 
  281000     109.8302   -8864.4608    -8100.349   -970.24876     102002.7      46.7237      46.7237      46.7237 
  282000    111.30663   -8862.3236   -8087.9399   -922.83858     102002.7      46.7237      46.7237      46.7237 
  283000    108.37714    -8881.557   -8127.5544   -1261.5317     102002.7      46.7237      46.7237      46.7237 
  284000    113.84338   -8894.9227   -8102.8903   -849.59235     102002.7      46.7237      46.7237      46.7237 
  285000    108.52063   -8861.9238   -8106.9229     -780.862     102002.7      46.7237      46.7237      46.7237 
  286000    113.74746   -8874.8718   -8083.5068   -968.96451     102002.7      46.7237      46.7237      46.7237 
  287000    107.24561   -8877.7759   -8131.6456   -776.36212     102002.7      46.7237      46.7237      46.7237 
  288000    108.75045   -8855.6534   -8099.0536   -631.52947     102002.7      46.7237      46.7237      46.7237 
  289000    111.52372   -8864.9818   -8089.0878   -604.30438     102002.7      46.7237      46.7237      46.7237 
  290000    108.06234   -8889.5591   -8137.7466    -969.8548     102002.7      46.7237      46.7237      46.7237 
  291000    107.36749   -8873.0727   -8126.0945    -946.8293     102002.7      46.7237      46.7237      46.7237 
  292000    111.06254   -8876.1471   -8103.4616   -562.45926     102002.7      46.7237      46.7237      46.7237 
  293000    107.35324   -8876.8529   -8129.9737   -869.65348     102002.7      46.7237      46.7237      46.7237 
  294000    108.48863   -8862.0084   -8107.2301   -581.10036     102002.7      46.7237      46.7237      46.7237 
  295000    110.19054    -8848.136   -8081.5172   -855.96878     102002.7      46.7237      46.7237      46.7237 
  296000    109.58606   -8880.5924   -8118.1791    -875.5163     102002.7      46.7237      46.7237      46.7237 
  297000    109.69251   -8842.1321   -8078.9782   -685.75929     102002.7      46.7237      46.7237      46.7237 
  298000    109.59829   -8870.4705   -8107.9721   -761.42746     102002.7      46.7237      46.7237      46.7237 
  299000     109.2029   -8890.9891   -8131.2415   -587.12296     102002.7      46.7237      46.7237      46.7237 
  300000    107.18781   -8848.9547   -8103.2265   -643.86447     102002.7      46.7237      46.7237      46.7237 
  301000    108.79156   -8868.7251   -8111.8393   -1001.7197     102002.7      46.7237      46.7237      46.7237 
  302000    112.24336   -8855.4586   -8074.5578   -845.47055     102002.7      46.7237      46.7237      46.7237 
  303000    111.50164   -8887.3005   -8111.5601   -1087.4416     102002.7      46.7237      46.7237      46.7237 
  304000     109.1631    -8864.308   -8104.8373   -659.09021     102002.7      46.7237      46.7237      46.7237 
  305000    107.74522   -8858.4239   -8108.8177   -946.43566     102002.7      46.7237      46.7237      46.7237 
  306000    110.06783   -8848.0084   -8082.2433   -993.47723     102002.7      46.7237      46.7237      46.7237 
  307000    109.84422   -8849.5318   -8085.3224   -691.60233     102002.7      46.7237      46.7237      46.7237 
  308000    109.13125   -8854.8056   -8095.5565   -902.06983     102002.7      46.7237      46.7237      46.7237 
  309000    111.01151    -8860.783   -8088.4525   -844.03498     102002.7      46.7237      46.7237      46.7237 
  310000    111.10506   -8872.4823    -8099.501   -1104.5657     102002.7      46.7237      46.7237      46.7237 
  311000    109.79489   -8857.6758   -8093.8096   -842.02147     102002.7      46.7237      46.7237      46.7237 
  312000    108.51473   -8864.5524   -8109.5926   -866.46296     102002.7      46.7237      46.7237      46.7237 
  313000     109.4277   -8853.5983   -8092.2867   -815.51135     102002.7      46.7237      46.7237      46.7237 
  314000    110.26045   -8858.9287   -8091.8235   -712.89186     102002.7      46.7237      46.7237      46.7237 
  315000    112.40515   -8850.4716   -8068.4453   -1002.9556     102002.7      46.7237      46.7237      46.7237 
  316000    109.94461   -8874.5947   -8109.6869   -1436.7084     102002.7      46.7237      46.7237      46.7237 
  317000    107.47258    -8854.802   -8107.0926   -879.21911     102002.7      46.7237      46.7237      46.7237 
  318000    110.15579   -8874.5137   -8108.1366   -1368.5318     102002.7      46.7237      46.7237      46.7237 
  319000    110.63231   -8855.9425   -8086.2502   -984.07027     102002.7      46.7237      46.7237      46.7237 
  320000     108.9256    -8833.675   -8075.8566   -1087.2762     102002.7      46.7237      46.7237      46.7237 
  321000    110.49308   -8888.9131   -8120.1895   -1299.9647     102002.7      46.7237      46.7237      46.7237 
  322000    109.93095   -8848.0932   -8083.2805   -883.74952     102002.7      46.7237      46.7237      46.7237 
  323000    110.84637   -8872.6269   -8101.4454   -674.37009     102002.7      46.7237      46.7237      46.7237 
  324000    110.85524   -8875.3388   -8104.0955   -738.05535     102002.7      46.7237      46.7237      46.7237 
  325000    111.31606   -8842.9585   -8068.5092   -853.17523     102002.7      46.7237      46.7237      46.7237 
  326000    108.32052   -8848.9721   -8095.3634   -1183.8894     102002.7      46.7237      46.7237      46.7237 
  327000    109.52018   -8843.9591   -8082.0041   -818.28788     102002.7      46.7237      46.7237      46.7237 
  328000    111.79187   -8856.6612   -8078.9016   -864.72101     102002.7      46.7237      46.7237      46.7237 
  329000    110.15289   -8882.6614   -8116.3046   -998.13063     102002.7      46.7237      46.7237      46.7237 
  330000    108.45995   -8877.2228   -8122.6441   -698.35247     102002.7      46.7237      46.7237      46.7237 
  331000    106.21199   -8854.2569   -8115.3178     -908.923     102002.7      46.7237      46.7237      46.7237 
  332000      110.354   -8857.9509   -8090.1949   -423.88767     102002.7      46.7237      46.7237      46.7237 
  333000    111.72484   -8843.6225   -8066.3292   -751.02118     102002.7      46.7237      46.7237      46.7237 
  334000    108.47933   -8848.9483   -8094.2348   -844.58162     102002.7      46.7237      46.7237      46.7237 
  335000    107.91122   -8857.3879   -8106.6268   -668.52613     102002.7      46.7237      46.7237      46.7237 
  336000    106.79868   -8835.6396   -8092.6186    -766.1813     102002.7      46.7237      46.7237      46.7237 
  337000    106.83268     -8868.52   -8125.2626   -620.68321     102002.7      46.7237      46.7237      46.7237 
  338000    108.74557    -8853.227   -8096.6612   -722.67239     102002.7      46.7237      46.7237      46.7237 
  339000    108.66011   -8872.3523    -8116.381    -1103.249     102002.7      46.7237      46.7237      46.7237 
  340000    109.05186   -8865.0815   -8106.3848   -632.56825     102002.7      46.7237      46.7237      46.7237 
  341000    111.34259   -8882.7124   -8108.0786   -1102.1851     102002.7      46.7237      46.7237      46.7237 
  342000    109.38284   -8883.4882   -8122.4888   -889.35134     102002.7      46.7237      46.7237      46.7237 
  343000    112.07243   -8876.0148   -8096.3033   -1005.6799     102002.7      46.7237      46.7237      46.7237 
  344000    112.00484   -8838.8343   -8059.5931   -965.66925     102002.7      46.7237      46.7237      46.7237 
  345000    112.43278   -8858.7667   -8076.5481   -710.01046     102002.7      46.7237      46.7237      46.7237 
  346000    109.29902   -8850.5095   -8090.0932   -1159.7866     102002.7      46.7237      46.7237      46.7237 
  347000    109.12267   -8872.8769   -8113.6874   -797.04917     102002.7      46.7237      46.7237      46.7237 
  348000    110.90346   -8863.9717   -8092.3929    -805.7831     102002.7      46.7237      46.7237      46.7237 
  349000    108.91554    -8863.575   -8105.8266   -634.31634     102002.7      46.7237      46.7237      46.7237 
  350000    111.42104    -8833.112   -8057.9324   -517.02744     102002.7      46.7237      46.7237      46.7237 
  351000    110.49281   -8847.4479   -8078.7262   -551.96494     102002.7      46.7237      46.7237      46.7237 
  352000    112.15911   -8844.2163   -8063.9017   -614.63314     102002.7      46.7237      46.7237      46.7237 
  353000    109.87196   -8853.3147   -8088.9123   -1103.4516     102002.7      46.7237      46.7237      46.7237 
  354000    109.67464     -8850.71   -8087.6804   -783.11142     102002.7      46.7237      46.7237      46.7237 
  355000     109.9824   -8864.4252   -8099.2545   -731.84589     102002.7      46.7237      46.7237      46.7237 
  356000    111.84035   -8836.8062   -8058.7093   -835.97973     102002.7      46.7237      46.7237      46.7237 
  357000     109.2421   -8872.9373    -8112.917   -703.21746     102002.7      46.7237      46.7237      46.7237 
  358000    110.50036   -8850.7935   -8082.0192   -943.50703     102002.7      46.7237      46.7237      46.7237 
  359000    109.45278   -8843.0288   -8081.5428   -597.83812     102002.7      46.7237      46.7237      46.7237 
  360000    111.57119   -8868.0967   -8091.8725   -776.03155     102002.7      46.7237      46.7237      46.7237 
  361000    110.48678   -8850.4534   -8081.7736   -886.47178     102002.7      46.7237      46.7237      46.7237 
  362000    111.71942   -8854.0515    -8076.796   -1232.9429     102002.7      46.7237      46.7237      46.7237 
  363000    110.79512    -8862.296   -8091.4709   -1083.9625     102002.7      46.7237      46.7237      46.7237 
  364000    111.60695    -8879.537   -8103.0639   -983.71175     102002.7      46.7237      46.7237      46.7237 
  365000    105.93914   -8849.8643   -8112.8234   -1069.7853     102002.7      46.7237      46.7237      46.7237 
  366000    110.32986   -8846.7107   -8079.1226   -1048.2343     102002.7      46.7237      46.7237      46.7237 
  367000    107.27752   -8862.3257   -8115.9734   -1013.2856     102002.7      46.7237      46.7237      46.7237 
  368000    110.99909   -8847.0233   -8074.7793   -744.09201     102002.7      46.7237      46.7237      46.7237 
  369000    112.48579   -8867.4399   -8084.8526   -392.00168     102002.7      46.7237      46.7237      46.7237 
  370000    110.81603    -8846.268   -8075.2975   -954.10293     102002.7      46.7237      46.7237      46.7237 
  371000    111.46207   -8864.7959   -8089.3307   -867.27349     102002.7      46.7237      46.7237      46.7237 
  372000    112.45727   -8852.9546   -8070.5657   -779.77312     102002.7      46.7237      46.7237      46.7237 
  373000    113.33708   -8861.2837   -8072.7737   -868.41692     102002.7      46.7237      46.7237      46.7237 
  374000    110.96178     -8847.87   -8075.8856    -565.3246     102002.7      46.7237      46.7237      46.7237 
  375000    108.02914   -8865.3975   -8113.8161   -459.02362     102002.7      46.7237      46.7237      46.7237 
  376000    111.16631   -8846.9114    -8073.504   -589.01801     102002.7      46.7237      46.7237      46.7237 
  377000      109.285   -8857.5445   -8097.2257   -477.28498     102002.7      46.7237      46.7237      46.7237 
  378000    112.09332   -8848.2242   -8068.3674   -444.06583     102002.7      46.7237      46.7237      46.7237 
  379000    108.86412   -8848.9827   -8091.5921   -569.21249     102002.7      46.7237      46.7237      46.7237 
  380000    110.92117   -8850.5865   -8078.8845   -446.76637     102002.7      46.7237      46.7237      46.7237 
  381000    109.71899   -8863.8957   -8100.5576   -742.27183     102002.7      46.7237      46.7237      46.7237 
  382000    110.62393   -8898.5599   -8128.9259   -1017.5126     102002.7      46.7237      46.7237      46.7237 
  383000    108.71255    -8848.855   -8092.5188    -923.6954     102002.7      46.7237      46.7237      46.7237 
  384000    111.44488   -8852.6372   -8077.2917   -832.86813     102002.7      46.7237      46.7237      46.7237 
  385000    111.64405   -8886.4513   -8109.7201   -847.73639     102002.7      46.7237      46.7237      46.7237 
  386000    110.84484   -8829.7901   -8058.6192   -663.86146     102002.7      46.7237      46.7237      46.7237 
  387000    110.02463   -8868.0812   -8102.6167   -482.57158     102002.7      46.7237      46.7237      46.7237 
  388000    107.87707   -8868.9425    -8118.419   -818.32258     102002.7      46.7237      46.7237      46.7237 
  389000    111.57275   -8845.1065   -8068.8714   -799.08119     102002.7      46.7237      46.7237      46.7237 
  390000    109.73524   -8861.5501   -8098.0989   -768.81392     102002.7      46.7237      46.7237      46.7237 
  391000    108.71889   -8841.5044   -8085.1242   -849.70229     102002.7      46.7237      46.7237      46.7237 
  392000    109.47397   -8828.0157   -8066.3822   -809.99084     102002.7      46.7237      46.7237      46.7237 
  393000    108.86779   -8874.3797   -8116.9636    -941.5004     102002.7      46.7237      46.7237      46.7237 
  394000    109.11711   -8849.8566   -8090.7059   -809.71395     102002.7      46.7237      46.7237      46.7237 
  395000    108.95023   -8861.3387    -8103.349   -828.06953     102002.7      46.7237      46.7237      46.7237 
  396000    113.00627   -8868.5721   -8082.3637   -776.79916     102002.7      46.7237      46.7237      46.7237 
  397000    107.70038   -8860.1759   -8110.8817   -837.13536     102002.7      46.7237      46.7237      46.7237 
  398000    111.85281    -8868.661   -8090.4775   -916.81089     102002.7      46.7237      46.7237      46.7237 
  399000    108.98772   -8881.8115    -8123.561   -836.06423     102002.7      46.7237      46.7237      46.7237 
  400000    107.04227   -8844.6961   -8099.9805   -851.26161     102002.7      46.7237      46.7237      46.7237 
  401000    112.78335   -8862.5149   -8077.8574   -629.49561     102002.7      46.7237      46.7237      46.7237 
  402000    107.07371   -8878.6448   -8133.7105   -636.45104     102002.7      46.7237      46.7237      46.7237 
  403000    108.83157   -8858.2993   -8101.1351   -672.77494     102002.7      46.7237      46.7237      46.7237 
  404000    109.46472   -8882.0862   -8120.5171   -563.02983     102002.7      46.7237      46.7237      46.7237 
  405000    111.91291   -8876.8022   -8098.2005   -717.54357     102002.7      46.7237      46.7237      46.7237 
  406000    107.35445   -8849.8199   -8102.9324   -510.22479     102002.7      46.7237      46.7237      46.7237 
  407000    109.61814   -8865.8388   -8103.2023   -710.77661     102002.7      46.7237      46.7237      46.7237 
  408000    109.29568   -8846.7289   -8086.3358   -847.90444     102002.7      46.7237      46.7237      46.7237 
  409000    111.78207   -8865.3613   -8087.6699   -657.84137     102002.7      46.7237      46.7237      46.7237 
  410000    111.05643   -8876.0823   -8103.4394   -750.37985     102002.7      46.7237      46.7237      46.7237 
  411000    110.82965   -8850.1914   -8079.1262   -1140.0994     102002.7      46.7237      46.7237      46.7237 
  412000    106.60038   -8863.3554   -8121.7141    -732.1347     102002.7      46.7237      46.7237      46.7237 
  413000    107.91681   -8877.2544   -8126.4544   -848.92135     102002.7      46.7237      46.7237      46.7237 
  414000    109.50928   -8850.1483   -8088.2691   -770.47633     102002.7      46.7237      46.7237      46.7237 
  415000    109.14814   -8899.4396    -8140.073   -623.39694     102002.7      46.7237      46.7237      46.7237 
  416000    112.51889   -8861.8957   -8079.0781   -1202.0844     102002.7      46.7237      46.7237      46.7237 
  417000    109.03915    -8866.638   -8108.0296   -495.10547     102002.7      46.7237      46.7237      46.7237 
  418000    108.19665   -8872.9777   -8120.2308   -1101.1767     102002.7      46.7237      46.7237      46.7237 
  419000     109.4983   -8861.4435   -8099.6407   -1019.4274     102002.7      46.7237      46.7237      46.7237 
  420000    111.10544   -8855.7115   -8082.7276   -1010.4448     102002.7      46.7237      46.7237      46.7237 
  421000    111.84698   -8863.6058   -8085.4628   -1006.6073     102002.7      46.7237      46.7237      46.7237 
  422000    108.29116   -8835.4051   -8082.0007    -615.3072     102002.7      46.7237      46.7237      46.7237 
  423000    108.28697   -8871.1241   -8117.7488   -842.68546     102002.7      46.7237      46.7237      46.7237 
  424000    113.56311   -8856.5338   -8066.4514   -823.22544     102002.7      46.7237      46.7237      46.7237 
  425000    106.33162   -8858.8323   -8119.0609   -805.62638     102002.7      46.7237      46.7237      46.7237 
  426000    108.22368   -8850.0702   -8097.1353   -934.21005     102002.7      46.7237      46.7237      46.7237 
  427000    110.12544   -8861.7796   -8095.6137   -1069.9616     102002.7      46.7237      46.7237      46.7237 
  428000    108.27626   -8859.9022   -8106.6015   -1065.5883     102002.7      46.7237      46.7237      46.7237 
  429000    106.95079   -8879.2485   -8135.1694   -890.62774     102002.7      46.7237      46.7237      46.7237 
  430000    110.16857   -8855.6309   -8089.1649   -1085.1871     102002.7      46.7237      46.7237      46.7237 
  431000    105.45541   -8851.8707   -8118.1951   -1120.8481     102002.7      46.7237      46.7237      46.7237 
  432000    107.05343   -8860.5338   -8115.7405   -883.94651     102002.7      46.7237      46.7237      46.7237 
  433000    110.85896   -8897.7537   -8126.4846   -914.86857     102002.7      46.7237      46.7237      46.7237 
  434000    108.31439   -8873.8435   -8120.2775   -857.69844     102002.7      46.7237      46.7237      46.7237 
  435000    110.73736   -8837.0856   -8066.6625   -931.17048     102002.7      46.7237      46.7237      46.7237 
  436000    111.02466   -8858.7772   -8086.3552   -587.46632     102002.7      46.7237      46.7237      46.7237 
  437000      110.869   -8854.6158   -8083.2768   -645.32919     102002.7      46.7237      46.7237      46.7237 
  438000     110.9491   -8864.2389   -8092.3427   -849.56412     102002.7      46.7237      46.7237      46.7237 
  439000    113.57168   -8867.0564   -8076.9143   -627.94109     102002.7      46.7237      46.7237      46.7237 
  440000    108.57388   -8871.6433   -8116.2719   -740.99961     102002.7      46.7237      46.7237      46.7237 
  441000    107.97363   -8869.5719   -8118.3766   -934.54262     102002.7      46.7237      46.7237      46.7237 
  442000    108.02712   -8867.3485   -8115.7811   -693.76195     102002.7      46.7237      46.7237      46.7237 
  443000    111.73914   -8869.9924   -8092.5997   -957.71172     102002.7      46.7237      46.7237      46.7237 
  444000    111.80767   -8874.3944   -8096.5249   -982.69151     102002.7      46.7237      46.7237      46.7237 
  445000    109.38054   -8855.6178   -8094.6343   -842.02134     102002.7      46.7237      46.7237      46.7237 
  446000    109.47094   -8862.0666   -8100.4542   -843.84986     102002.7      46.7237      46.7237      46.7237 
  447000    107.95305   -8860.1472   -8109.0951   -906.41752     102002.7      46.7237      46.7237      46.7237 
  448000     112.5779   -8886.6716   -8103.4434   -650.05318     102002.7      46.7237      46.7237      46.7237 
  449000    113.82474   -8860.2209   -8068.3182   -821.45778     102002.7      46.7237      46.7237      46.7237 
  450000    108.00749   -8870.3006   -8118.8697   -379.50533     102002.7      46.7237      46.7237      46.7237 
  451000    110.81098    -8854.958   -8084.0227   -748.41614     102002.7      46.7237      46.7237      46.7237 
  452000    108.55583   -8848.5417    -8093.296    -741.1267     102002.7      46.7237      46.7237      46.7237 
  453000     108.4125   -8868.4296    -8114.181   -759.62242     102002.7      46.7237      46.7237      46.7237 
  454000    112.82207   -8877.8065   -8092.8796   -1105.0218     102002.7      46.7237      46.7237      46.7237 
  455000    113.62341   -8864.6522   -8074.1502   -817.57041     102002.7      46.7237      46.7237      46.7237 
  456000    110.04469   -8855.3457   -8089.7416   -933.29724     102002.7      46.7237      46.7237      46.7237 
  457000    108.41762   -8889.8653   -8135.5811   -753.75058     102002.7      46.7237      46.7237      46.7237 
  458000    110.38153   -8871.7796    -8103.832   -863.44938     102002.7      46.7237      46.7237      46.7237 
  459000    109.47141   -8833.0865   -8071.4708   -1115.4466     102002.7      46.7237      46.7237      46.7237 
  460000    110.41872   -8880.7372   -8112.5309    -687.2742     102002.7      46.7237      46.7237      46.7237 
  461000    106.70849   -8862.5807   -8120.1872   -969.34285     102002.7      46.7237      46.7237      46.7237 
  462000    108.16168   -8871.3485   -8118.8449   -707.67558     102002.7      46.7237      46.7237      46.7237 
  463000    111.07372   -8874.8298   -8102.0665   -1093.5059     102002.7      46.7237      46.7237      46.7237 
  464000    107.02325   -8878.3577   -8133.7744   -762.53097     102002.7      46.7237      46.7237      46.7237 
  465000    110.07377   -8849.6457   -8083.8392   -565.24247     102002.7      46.7237      46.7237      46.7237 
  466000    110.27747   -8861.0496    -8093.826    -686.8435     102002.7      46.7237      46.7237      46.7237 
  467000    112.81092   -8870.5287   -8085.6793   -753.74793     102002.7      46.7237      46.7237      46.7237 
  468000    108.40587   -8886.9843   -8132.7818   -832.43501     102002.7      46.7237      46.7237      46.7237 
  469000     107.5365   -8865.8191    -8117.665   -899.34305     102002.7      46.7237      46.7237      46.7237 
  470000    112.31637    -8855.822   -8074.4133   -836.10009     102002.7      46.7237      46.7237      46.7237 
  471000    108.54673   -8856.3376   -8101.1552   -1074.7947     102002.7      46.7237      46.7237      46.7237 
  472000    110.19267   -8845.3378   -8078.7041   -1007.1159     102002.7      46.7237      46.7237      46.7237 
  473000    110.60485   -8831.8884   -8062.3871   -541.90812     102002.7      46.7237      46.7237      46.7237 
  474000    112.35351   -8872.2269   -8090.5598   -1059.8633     102002.7      46.7237      46.7237      46.7237 
  475000     112.0899   -8858.2502   -8078.4171   -963.35802     102002.7      46.7237      46.7237      46.7237 
  476000    111.44792   -8852.9708   -8077.6041   -748.21334     102002.7      46.7237      46.7237      46.7237 
  477000    110.21325   -8855.3285   -8088.5517   -1053.8389     102002.7      46.7237      46.7237      46.7237 
  478000    113.07405   -8899.3191   -8112.6391   -635.12078     102002.7      46.7237      46.7237      46.7237 
  479000    109.77976    -8859.459   -8095.6982   -947.50592     102002.7      46.7237      46.7237      46.7237 
  480000    110.25545   -8862.3588   -8095.2885   -774.12398     102002.7      46.7237      46.7237      46.7237 
  481000    106.70883   -8858.3308    -8115.935   -971.24563     102002.7      46.7237      46.7237      46.7237 
  482000    110.38037    -8870.388   -8102.4485    -863.0578     102002.7      46.7237      46.7237      46.7237 
  483000    108.00618   -8842.5837   -8091.1619    -352.1012     102002.7      46.7237      46.7237      46.7237 
  484000    111.65595   -8874.3394   -8097.5255    -782.4909     102002.7      46.7237      46.7237      46.7237 
  485000    106.80705   -8881.3142    -8138.235   -1016.8133     102002.7      46.7237      46.7237      46.7237 
  486000    107.46467   -8864.9954    -8117.341   -544.71937     102002.7      46.7237      46.7237      46.7237 
  487000    109.77158    -8844.387    -8080.683   -878.55079     102002.7      46.7237      46.7237      46.7237 
  488000    110.84201   -8834.9905   -8063.8393   -715.02156     102002.7      46.7237      46.7237      46.7237 
  489000    111.13872   -8875.5834   -8102.3679   -1010.9792     102002.7      46.7237      46.7237      46.7237 
  490000    108.94102   -8873.8566    -8115.931   -821.76933     102002.7      46.7237      46.7237      46.7237 
  491000    108.89557   -8845.6081   -8087.9986   -765.31683     102002.7      46.7237      46.7237      46.7237 
  492000    113.57439   -8846.1342   -8055.9732   -828.57712     102002.7      46.7237      46.7237      46.7237 
  493000    110.45169   -8860.5038   -8092.0681   -902.15035     102002.7      46.7237      46.7237      46.7237 
  494000    111.41844   -8866.9179   -8091.7563   -784.38981     102002.7      46.7237      46.7237      46.7237 
  495000    108.77933   -8888.3338   -8131.5331   -693.65364     102002.7      46.7237      46.7237      46.7237 
  496000    106.88212   -8874.4791   -8130.8777   -842.57256     102002.7      46.7237      46.7237      46.7237 
  497000    105.98019   -8875.1166   -8137.7901   -546.60272     102002.7      46.7237      46.7237      46.7237 
  498000    108.74039   -8846.7097   -8090.1799   -790.78614     102002.7      46.7237      46.7237      46.7237 
  499000    111.64359   -8849.7627   -8073.0347   -1102.4668     102002.7      46.7237      46.7237      46.7237 
  500000    111.79608   -8855.8887   -8078.0998   -1091.8119     102002.7      46.7237      46.7237      46.7237 
  500501    109.73269   -8858.5709   -8095.1375    -1053.315     102002.7      46.7237      46.7237      46.7237 
Loop time of 716.629 on 24 procs for 500000 steps with 2335 atoms

Performance: 60.282 ns/day, 0.398 hours/ns, 697.711 timesteps/s
98.5% CPU use with 24 MPI tasks x no OpenMP threads

MPI task timing breakdown:
Section |  min time  |  avg time  |  max time  |%varavg| %total
---------------------------------------------------------------
Pair    | 208.82     | 341.55     | 510.15     | 428.5 | 47.66
Bond    | 48.083     | 78.76      | 105.26     | 173.1 | 10.99
Neigh   | 4.7314     | 4.7486     | 4.7689     |   0.5 |  0.66
Comm    | 85.459     | 280.42     | 433.16     | 536.0 | 39.13
Output  | 0.40996    | 0.41025    | 0.41379    |   0.1 |  0.06
Modify  | 3.9057     | 4.1868     | 4.4555     |   9.5 |  0.58
Other   |            | 6.556      |            |       |  0.91

Nlocal:    97.2917 ave 118 max 67 min
Histogram: 2 0 2 1 4 5 2 0 2 6
Nghost:    2655.62 ave 2811 max 2565 min
Histogram: 5 11 0 0 0 0 0 1 3 4
Neighs:    7639.08 ave 11860 max 4240 min
Histogram: 1 4 3 2 3 5 2 1 2 1

Total # of neighbors = 183338
Ave neighs/atom = 78.5173
Ave special neighs/atom = 4.93362
Neighbor list builds = 4556
Dangerous builds = 0
Neighbor list info ...
  update every 1 steps, delay 10 steps, check yes
  max neighbors/atom: 2000, page size: 100000
  master list distance cutoff = 16
  ghost atom cutoff = 16
  binsize = 8, bins = 6 6 6
  3 neighbor lists, perpetual/occasional/extra = 3 0 0
  (1) pair buck6d/coul/gauss/dsf, perpetual, skip from (3)
      attributes: half, newton on
      pair build: skip
      stencil: none
      bin: none
  (2) pair lj/cut, perpetual, skip from (3)
      attributes: half, newton on
      pair build: skip
      stencil: none
      bin: none
  (3) neighbor class addition, perpetual
      attributes: half, newton on
      pair build: half/bin/newton
      stencil: half/bin/3d/newton
      bin: standard
Setting up Verlet run ...
  Unit style    : real
  Current step  : 500501
  Time step     : 1
WARNING: Inconsistent image flags (../domain.cpp:786)
Per MPI rank memory allocation (min/avg/max) = 23.96 | 24.43 | 24.62 Mbytes
Step Time TotEng KinEng PotEng E_mol E_pair Temp Pxx Pyy Pzz Pxy Pxz Pyz Cella Cellb Cellc CellAlpha CellBeta CellGamma Volume Press 
  500501       500000   -8095.1375    763.43343   -8858.5709    4294.1057   -13152.677    109.73269   -1019.1394    -1071.337   -1069.4685    47.540172    105.79347    78.826562      46.7237      46.7237      46.7237           90           90           90     102002.7    -1053.315 
  501000       500499   -8093.9842    757.82077    -8851.805    4296.9747    -13148.78    108.92595   -1193.1564   -1136.3924   -1093.2699    106.24208   -86.056512    112.87161      46.7237      46.7237      46.7237           90           90           90     102002.7   -1140.9396 
  502000       501499   -8094.7174    765.54229   -8860.2597    4287.2229   -13147.483    110.03581   -655.15178    -658.7431   -1053.4612    190.38813   -16.366702   -259.66533      46.7237      46.7237      46.7237           90           90           90     102002.7   -789.11871 
  503000       502499   -8091.1988    781.59151   -8872.7903    4278.4143   -13151.205    112.34265   -965.50743   -1339.2307   -1054.6707     138.0274    225.68652   -184.66596      46.7237      46.7237      46.7237           90           90           90     102002.7   -1119.8029 
  504000       503499   -8119.0306    763.59197   -8882.6226    4260.7191   -13143.342    109.75548   -1011.5274   -1292.7199   -1002.3307   -79.917337   -65.037562   -128.40091      46.7237      46.7237      46.7237           90           90           90     102002.7   -1102.1927 
  505000       504499   -8109.1324    764.13099   -8873.2634    4294.5826   -13167.846    109.83295   -949.81102   -814.40789   -899.07709    150.55681    89.865194    201.56446      46.7237      46.7237      46.7237           90           90           90     102002.7   -887.76533 
  506000       505499   -8116.5373    777.58151   -8894.1188    4284.9382   -13179.057    111.76627    -1047.117   -847.49554   -949.49622    188.95844    23.371598   -105.04448      46.7237      46.7237      46.7237           90           90           90     102002.7   -948.03624 
  507000       506499   -8087.8613    750.45516   -8838.3164    4315.8386   -13154.155    107.86725   -1035.9215    -859.6058    -720.2399    52.418844   -82.108885   -156.72658      46.7237      46.7237      46.7237           90           90           90     102002.7    -871.9224 
  508000       507499   -8074.4384    769.28121   -8843.7196    4296.5137   -13140.233    110.57322   -837.21135   -1149.1397   -1034.0679   -114.16295   -85.464917    51.146365      46.7237      46.7237      46.7237           90           90           90     102002.7   -1006.8063 
  509000       508499   -8102.9262    769.55012   -8872.4763    4281.6401   -13154.116    110.61187   -856.89985   -806.83172   -1187.9886    -11.49676    243.01949    147.76966      46.7237      46.7237      46.7237           90           90           90     102002.7   -950.57338 
  510000       509499   -8083.8147    761.61093   -8845.4256    4310.0094   -13155.435    109.47073    -990.4282   -857.18492    -1164.135   -300.68806   -253.79539    116.53812      46.7237      46.7237      46.7237           90           90           90     102002.7   -1003.9161 
  511000       510499   -8119.3283    751.82911   -8871.1574    4293.4913   -13164.649    108.06473   -959.48455   -528.86131   -971.34957   -12.914653   -8.9298728    118.81292      46.7237      46.7237      46.7237           90           90           90     102002.7   -819.89848 
  512000       511499   -8097.7299    758.29488   -8856.0248    4290.9637   -13146.988     108.9941   -995.72954    -736.7752   -1292.5405   -84.475253    -10.19994   -116.38223      46.7237      46.7237      46.7237           90           90           90     102002.7   -1008.3484 
  513000       512499      -8084.4    784.04502    -8868.445    4271.6682   -13140.113    112.69531   -496.60017   -140.18712   -881.94248    81.948134      -145.52   -23.516153      46.7237      46.7237      46.7237           90           90           90     102002.7   -506.24326 
  514000       513499   -8083.7603     763.6575   -8847.4178    4309.8923    -13157.31     109.7649   -897.86855   -909.44926   -881.36543    19.965788   -117.87841     78.49338      46.7237      46.7237      46.7237           90           90           90     102002.7   -896.22775 
  515000       514499    -8080.411    772.01461   -8852.4256    4306.2875   -13158.713    110.96611   -1337.6575   -771.95409    -1061.021   -154.91112    93.333974   -6.1135768      46.7237      46.7237      46.7237           90           90           90     102002.7   -1056.8775 
  516000       515499   -8114.5486    741.82534   -8856.3739    4314.1005   -13170.474    106.62683   -1319.9051   -949.66478   -1478.0961   -20.980589    94.662175   -50.335852      46.7237      46.7237      46.7237           90           90           90     102002.7    -1249.222 
  517000       516499   -8085.6147    786.21667   -8871.8313    4280.3934   -13152.225    113.00745   -548.73992   -749.33658     -1313.69   -40.818733    138.50489    203.03534      46.7237      46.7237      46.7237           90           90           90     102002.7   -870.58885 
  518000       517499   -8078.8559     778.7871    -8857.643    4317.5437   -13175.187    111.93956   -1118.1974    -956.9452   -668.30911   -154.15815   -52.848929    261.20614      46.7237      46.7237      46.7237           90           90           90     102002.7   -914.48389 
  519000       518499   -8120.6369     759.2435   -8879.8804    4299.5817   -13179.462    109.13045   -705.28186   -800.20471   -765.37201     47.51126    29.976177   -77.635877      46.7237      46.7237      46.7237           90           90           90     102002.7   -756.95286 
  520000       519499   -8124.8519     744.5774   -8869.4293    4301.5044   -13170.934     107.0224   -682.24897   -617.21932   -1312.8631    15.234739   -66.337808   -119.01945      46.7237      46.7237      46.7237           90           90           90     102002.7   -870.77712 
  521000       520499   -8088.6748     797.2039   -8885.8787    4275.4611    -13161.34    114.58671   -802.79599   -736.93418   -712.38804    78.016317    -34.65622    133.34228      46.7237      46.7237      46.7237           90           90           90     102002.7   -750.70607 
  522000       521499    -8074.829    776.32495    -8851.154    4299.3158    -13150.47    111.58566   -561.38687   -603.99959   -709.38423   -73.495586   -40.578773   -152.08787      46.7237      46.7237      46.7237           90           90           90     102002.7   -624.92356 
  523000       522499   -8095.3441    758.39556   -8853.7397    4299.5536   -13153.293    109.00857   -782.79801   -571.67983   -582.82633    123.24596    163.49809   -271.99789      46.7237      46.7237      46.7237           90           90           90     102002.7   -645.76806 
  524000       523499   -8095.9034    805.24169   -8901.1451    4263.9219   -13165.067    115.74203    -1332.202     -980.628    -799.2576   -212.56345    5.1255641    173.86594      46.7237      46.7237      46.7237           90           90           90     102002.7   -1037.3625 
  525000       524499   -8111.2955    755.52256    -8866.818    4302.6395   -13169.457    108.59561   -621.65747   -685.25093   -657.03429    3.2165901    83.017622    123.78893      46.7237      46.7237      46.7237           90           90           90     102002.7   -654.64756 
  526000       525499   -8095.5104    775.96686   -8871.4773    4295.5493   -13167.027    111.53419   -841.22735   -703.02445   -754.69358     95.80644   -56.858528    113.59871      46.7237      46.7237      46.7237           90           90           90     102002.7   -766.31513 
  527000       526499   -8110.8421    759.60968   -8870.4517    4287.8773   -13158.329    109.18308   -921.10172   -868.52216   -710.07611    92.626719    169.92499   -86.830206      46.7237      46.7237      46.7237           90           90           90     102002.7   -833.23333 
  528000       527499    -8080.056    765.14176   -8845.1978    4296.6639   -13141.862    109.97824   -824.32233   -1334.8667   -543.23936    127.53803   -263.41214    58.036301      46.7237      46.7237      46.7237           90           90           90     102002.7   -900.80946 
  529000       528499   -8074.0452    758.58784    -8832.633     4305.873   -13138.506     109.0362   -1122.0054   -993.00305   -1131.9037    73.085435   -276.27981    273.07396      46.7237      46.7237      46.7237           90           90           90     102002.7    -1082.304 
  530000       529499    -8079.971    774.13165   -8854.1026    4299.7288   -13153.831    111.27041   -957.05663   -782.39461   -1312.0537    103.09612   -3.1023097   -85.693172      46.7237      46.7237      46.7237           90           90           90     102002.7   -1017.1683 
  531000       530499   -8093.6321    774.85225   -8868.4843    4285.2207   -13153.705    111.37398    -690.9527   -645.25153   -1080.9724   -42.999075   -214.29305    172.70799      46.7237      46.7237      46.7237           90           90           90     102002.7   -805.72556 
  532000       531499   -8097.8384    772.06167   -8869.9001    4294.4518   -13164.352    110.97288   -670.15553    -867.8313   -741.02493   -2.0570378    31.772176    123.27813      46.7237      46.7237      46.7237           90           90           90     102002.7   -759.67059 
  533000       532499   -8109.6068    757.59283   -8867.1996    4281.9909   -13149.191    108.89318   -678.46865   -581.42154   -799.17858    -115.5843   -125.61592   -116.70394      46.7237      46.7237      46.7237           90           90           90     102002.7   -686.35626 
  534000       533499   -8132.0973    763.76522   -8895.8625     4274.565   -13170.427    109.78038    -724.2644    -706.1938   -654.35137    92.582597   -151.29486    287.49284      46.7237      46.7237      46.7237           90           90           90     102002.7   -694.93652 
  535000       534499   -8098.3615    772.17621   -8870.5377     4280.565   -13151.103    110.98934   -351.28351   -878.45701   -693.16833    220.55727    69.161753   -8.1480834      46.7237      46.7237      46.7237           90           90           90     102002.7   -640.96962 
  536000       535499   -8120.8469    761.30443   -8882.1513    4285.4645   -13167.616    109.42668   -1234.1477   -735.12234   -429.91202    61.770728    86.769771   -153.28846      46.7237      46.7237      46.7237           90           90           90     102002.7   -799.72735 
  537000       536499   -8079.5918    772.79765   -8852.3894    4312.5371   -13164.926    111.07866   -856.43758   -1370.7073   -1120.0288   -102.39024    20.890769    69.040219      46.7237      46.7237      46.7237           90           90           90     102002.7   -1115.7246 
  538000       537499   -8125.6115    751.32493   -8876.9365    4261.2478   -13138.184    107.99226   -1139.3696   -680.73207   -676.05955    22.766818    197.28555    104.74875      46.7237      46.7237      46.7237           90           90           90     102002.7   -832.05375 
  539000       538499    -8105.184    783.96618   -8889.1501     4281.815   -13170.965    112.68398   -1040.1349   -1203.9156   -548.55536     13.87221   -69.634721    220.47659      46.7237      46.7237      46.7237           90           90           90     102002.7   -930.86861 
  540000       539499   -8121.3099     756.9762   -8878.2861    4285.6313   -13163.917    108.80455   -818.69843   -1188.8429   -891.54271    95.573822    6.4670521    12.515283      46.7237      46.7237      46.7237           90           90           90     102002.7   -966.36133 
  541000       540499   -8127.6787    747.85843   -8875.5372     4295.311   -13170.848      107.494   -1043.3693   -786.42171   -847.31633    -31.43612   -132.21382    11.908419      46.7237      46.7237      46.7237           90           90           90     102002.7   -892.36912 
  542000       541499   -8096.1771     764.7164   -8860.8935    4299.4454   -13160.339     109.9171   -960.36029   -1252.1562   -1457.9591   -146.09516    211.70574    103.46543      46.7237      46.7237      46.7237           90           90           90     102002.7   -1223.4919 
  543000       542499   -8087.2294    765.73215   -8852.9616    4281.8108   -13134.772     110.0631   -1260.4581   -650.53943   -882.17406    13.170601    73.003341   -224.03241      46.7237      46.7237      46.7237           90           90           90     102002.7   -931.05721 
  544000       543499   -8095.1001    773.01485   -8868.1149    4262.7924   -13130.907    111.10988   -755.19187   -981.85886   -1126.4134    1.1062442    23.781637   -14.979041      46.7237      46.7237      46.7237           90           90           90     102002.7   -954.48803 
  545000       544499   -8121.8189     761.1238   -8882.9427    4244.3516   -13127.294    109.40071   -1124.3884   -330.07905   -794.28155   -22.562084    32.357717   -111.77182      46.7237      46.7237      46.7237           90           90           90     102002.7   -749.58301 
  546000       545499   -8071.1053    773.17765   -8844.2829    4291.0151   -13135.298    111.13328   -1228.6196   -1041.0619   -1058.1106    111.92823   -262.15204   -252.95594      46.7237      46.7237      46.7237           90           90           90     102002.7    -1109.264 
  547000       546499    -8097.418    789.87983   -8887.2979    4274.9204   -13162.218    113.53398   -583.19083   -488.16493   -1201.7905    6.3377756   -124.02872    83.588647      46.7237      46.7237      46.7237           90           90           90     102002.7   -757.71541 
  548000       547499   -8104.5818    763.90272   -8868.4845    4264.9073   -13133.392    109.80014   -905.04152   -831.56124   -943.19752   -19.781088    149.60588    4.2213421      46.7237      46.7237      46.7237           90           90           90     102002.7   -893.26676 
  549000       548499    -8078.539    778.17272   -8856.7118    4290.7826   -13147.494    111.85125   -905.31477   -1045.1513    -853.6275   -279.23027   -84.502089     12.55039      46.7237      46.7237      46.7237           90           90           90     102002.7   -934.69787 
  550000       549499   -8086.0258    783.49774   -8869.5235    4293.7693   -13163.293    112.61665   -392.21996   -817.89771   -963.55047   -168.66556    277.10955    -71.54014      46.7237      46.7237      46.7237           90           90           90     102002.7   -724.55605 
  551000       550499   -8087.0042    775.22474    -8862.229    4286.0972   -13148.326    111.42752   -1102.0581   -593.45424   -803.18038    50.106767    114.90043   -104.86905      46.7237      46.7237      46.7237           90           90           90     102002.7   -832.89756 
  552000       551499   -8118.3318    743.87967   -8862.2115    4276.3032   -13138.515    106.92211   -677.14365   -895.03109   -514.54122    101.45501   -173.49697    93.069875      46.7237      46.7237      46.7237           90           90           90     102002.7   -695.57199 
  553000       552499    -8093.005     758.2461   -8851.2511    4291.1089    -13142.36    108.98708   -359.12197   -781.54863   -645.85585    275.97591   -160.23582   -82.969174      46.7237      46.7237      46.7237           90           90           90     102002.7   -595.50882 
  554000       553499   -8096.1292    765.46714   -8861.5964    4302.9294   -13164.526    110.02501   -480.77443   -683.92601   -840.11805   -127.96804    63.001664    180.54112      46.7237      46.7237      46.7237           90           90           90     102002.7   -668.27283 
  555000       554499   -8078.7096    757.47775   -8836.1873    4314.7021   -13150.889    108.87664   -939.22355   -948.39794    -880.2007    89.783465    158.47725   -66.356639      46.7237      46.7237      46.7237           90           90           90     102002.7    -922.6074 
[...]
  936000       935499   -8117.1623    751.12202   -8868.2843    4288.8055    -13157.09     107.9631   -1125.7386   -941.84416   -1022.7895    18.580757   -68.862888    128.56172      46.7237      46.7237      46.7237           90           90           90     102002.7   -1030.1241 
  937000       936499   -8126.6504    749.95809   -8876.6085    4294.8855   -13171.494     107.7958   -994.17209   -1092.4435   -848.95052    16.837435    292.47393    -7.673028      46.7237      46.7237      46.7237           90           90           90     102002.7   -978.52203 
  938000       937499   -8086.4101    765.69353   -8852.1037    4286.0978   -13138.201    110.05755   -1480.9593   -548.39241   -1553.2938   -389.31428   -57.217857   -14.209852      46.7237      46.7237      46.7237           90           90           90     102002.7   -1194.2152 
  939000       938499   -8105.8664    769.33523   -8875.2016    4257.4751   -13132.677    110.58099   -827.85324    -632.5994   -793.09997    40.928005   -349.21896   -88.411791      46.7237      46.7237      46.7237           90           90           90     102002.7    -751.1842 
  940000       939499   -8078.6101    783.97454   -8862.5846    4300.9847   -13163.569    112.68518   -749.24779   -845.97686   -1004.1224    211.90238    53.280789    131.28238      46.7237      46.7237      46.7237           90           90           90     102002.7   -866.44901 
  941000       940499   -8084.8046    779.54765   -8864.3522    4276.9311   -13141.283    112.04888   -722.72844   -954.29183   -1123.6581    47.301138   -36.124847     109.3366      46.7237      46.7237      46.7237           90           90           90     102002.7   -933.55947 
  942000       941499   -8091.6763    753.85947   -8845.5358    4294.1607   -13139.696    108.35657   -700.78622   -1240.5072   -857.77899   -201.00443    200.06249   -127.71034      46.7237      46.7237      46.7237           90           90           90     102002.7   -933.02413 
  943000       942499   -8090.6004    774.89536   -8865.4957    4279.4147    -13144.91    111.38018   -1340.3877   -1163.0123   -919.54491    40.354983   -95.809241   -60.541739      46.7237      46.7237      46.7237           90           90           90     102002.7   -1140.9816 
  944000       943499   -8100.9071    755.78096   -8856.6881    4292.4432   -13149.131    108.63275   -1049.9818   -1028.7523   -684.62712    105.33687    119.81804    196.44149      46.7237      46.7237      46.7237           90           90           90     102002.7   -921.12043 
  945000       944499   -8113.9343    745.01155   -8858.9459     4292.186   -13151.132    107.08481    -1036.525   -560.67102   -1041.9083    46.861599    74.303796   -33.117333      46.7237      46.7237      46.7237           90           90           90     102002.7   -879.70145 
  946000       945499   -8099.3083    760.09058   -8859.3989    4267.3727   -13126.772     109.2522    -474.9167   -883.24302   -838.59597    -91.14317   -135.92658    50.029175      46.7237      46.7237      46.7237           90           90           90     102002.7    -732.2519 
  947000       946499   -8069.0642    795.35843   -8864.4226    4275.2231   -13139.646    114.32145   -801.84541   -603.62244   -385.99208    20.038051    18.567944    116.08504      46.7237      46.7237      46.7237           90           90           90     102002.7   -597.15331 
  948000       947499   -8087.7254    760.11247   -8847.8379    4293.5377   -13141.376    109.25535   -447.21224   -620.46894   -729.72943   -131.43799   -52.737681    -80.20161      46.7237      46.7237      46.7237           90           90           90     102002.7   -599.13687 
  949000       948499   -8082.8684     781.8609   -8864.7293    4287.4121   -13152.141    112.38137   -342.39769   -558.96083   -925.04431   -79.824061    144.06217   -36.907713      46.7237      46.7237      46.7237           90           90           90     102002.7   -608.80094 
  950000       949499   -8096.6034    758.37347   -8854.9769    4275.1788   -13130.156    109.00539   -852.37109   -943.66604   -806.04896    243.46928    145.08106    237.60596      46.7237      46.7237      46.7237           90           90           90     102002.7   -867.36203 
  951000       950499   -8080.5261    766.87624   -8847.4023    4280.3859   -13127.788    110.22754   -684.99756   -840.43801   -689.83614    133.85997    105.29089   -27.209288      46.7237      46.7237      46.7237           90           90           90     102002.7    -738.4239 
  952000       951499   -8122.3543    745.17543   -8867.5298    4289.0801    -13156.61    107.10836   -760.48339   -775.18151   -655.98112   -301.20403    4.8025434    214.15786      46.7237      46.7237      46.7237           90           90           90     102002.7   -730.54867 
  953000       952499   -8094.9333    749.57593   -8844.5092    4305.4423   -13149.951    107.74087     -652.056   -699.51247   -1120.5345    72.512298     11.32629    81.342364      46.7237      46.7237      46.7237           90           90           90     102002.7   -824.03431 
  954000       953499   -8079.1258    773.99969   -8853.1255    4303.9399   -13157.065    111.25144   -963.50316   -682.12876    -922.9194    120.64736    8.6120519    180.99093      46.7237      46.7237      46.7237           90           90           90     102002.7   -856.18377 
  955000       954499   -8084.3818    755.08321    -8839.465    4287.2919   -13126.757    108.53246   -679.12324   -723.62111   -433.82786   -52.166047    21.810332   -36.247962      46.7237      46.7237      46.7237           90           90           90     102002.7   -612.19073 
  956000       955499   -8100.3515    772.18375   -8872.5352     4266.889   -13139.424    110.99042   -1036.9091   -280.81571   -891.68514    -149.4843    66.014174    -111.7459      46.7237      46.7237      46.7237           90           90           90     102002.7   -736.46998 
  957000       956499   -8095.8005    767.18941   -8862.9899    4275.1983   -13138.188    110.27256   -623.69053   -610.53387   -929.02097    89.570722      131.389   -98.278003      46.7237      46.7237      46.7237           90           90           90     102002.7   -721.08179 
  958000       957499   -8104.4912    770.60383    -8875.095    4268.9392   -13144.034    110.76333   -1193.5718   -744.55311   -760.35442    99.545978    44.399038   -59.861096      46.7237      46.7237      46.7237           90           90           90     102002.7   -899.49312 
  959000       958499   -8089.3324     750.4631   -8839.7955    4303.7427   -13143.538    107.86839   -1091.4063   -581.08327   -984.19317    30.140114     29.75678    69.781738      46.7237      46.7237      46.7237           90           90           90     102002.7   -885.56092 
  960000       959499   -8092.4243    770.72533   -8863.1497    4278.0371   -13141.187     110.7808   -879.59353   -670.92749   -576.22899    6.5812142   -301.94293     133.3414      46.7237      46.7237      46.7237           90           90           90     102002.7   -708.91667 
  961000       960499   -8154.5449    738.86239   -8893.4073    4260.2517   -13153.659    106.20095    -1021.438   -132.13665   -1002.6325   -78.472252    59.562872    12.370518      46.7237      46.7237      46.7237           90           90           90     102002.7   -718.73574 
  962000       961499   -8076.7895    767.76524   -8844.5547      4322.54   -13167.095    110.35532    -655.5225   -1410.5065   -617.01044    -12.10739    196.16459    67.598079      46.7237      46.7237      46.7237           90           90           90     102002.7   -894.34649 
  963000       962499   -8136.6861    765.13456   -8901.8206    4265.9479   -13167.769     109.9772   -1063.0454   -767.98121   -807.43306    14.329022   -9.8345265    325.27106      46.7237      46.7237      46.7237           90           90           90     102002.7   -879.48656 
  964000       963499   -8092.0287    766.32174   -8858.3504    4291.3856   -13149.736    110.14784   -1089.4451   -543.43038   -942.33538   -189.52833    133.16967    73.111818      46.7237      46.7237      46.7237           90           90           90     102002.7   -858.40364 
  965000       964499   -8113.3248    741.13343   -8854.4583    4287.8779   -13142.336    106.52738   -1030.1672   -342.11237   -2037.9037    130.77731   -31.742327   -86.355456      46.7237      46.7237      46.7237           90           90           90     102002.7   -1136.7277 
  966000       965499   -8108.1473      768.546   -8876.6933    4277.0161   -13153.709    110.46755   -987.61177   -767.77537   -875.70909    64.808356   -428.06176    56.127345      46.7237      46.7237      46.7237           90           90           90     102002.7   -877.03208 
  967000       966499   -8104.0014    751.09437   -8855.0957    4311.9305   -13167.026    107.95912   -928.56879   -894.86682   -598.01471    137.65665   -174.62082     106.6463      46.7237      46.7237      46.7237           90           90           90     102002.7   -807.15011 
  968000       967499   -8096.1043    758.77104   -8854.8754    4308.5907   -13163.466    109.06254   -855.65851   -726.51399    -1081.717    299.58597   -50.110727    285.23328      46.7237      46.7237      46.7237           90           90           90     102002.7   -887.96315 
  969000       968499   -8095.5632    770.89733   -8866.4605     4285.454   -13151.915    110.80552   -1088.2819   -790.50798   -701.74019   -43.490056    13.561097    73.181201      46.7237      46.7237      46.7237           90           90           90     102002.7    -860.1767 
  970000       969499   -8088.0902    772.05079    -8860.141    4312.1504   -13172.291    110.97131   -1641.6813   -1407.4459   -1278.8752    170.56339   -80.299445    48.437885      46.7237      46.7237      46.7237           90           90           90     102002.7   -1442.6675 
  971000       970499    -8105.905    767.67727   -8873.5823    4280.7506   -13154.333    110.34268    -360.3734   -1257.0702   -1093.0711    72.350967   -162.11439    16.339903      46.7237      46.7237      46.7237           90           90           90     102002.7    -903.5049 
  972000       971499   -8139.2834     744.4611   -8883.7445    4282.2589   -13166.003    107.00569   -1403.1296   -1264.4625   -436.24704   -25.542596     208.3659    226.88185      46.7237      46.7237      46.7237           90           90           90     102002.7    -1034.613 
  973000       972499   -8161.8987     730.3813     -8892.28    4287.5349   -13179.815    104.98192   -1109.4464   -855.88546   -827.36004    -225.8654    14.557759    83.938973      46.7237      46.7237      46.7237           90           90           90     102002.7   -930.89729 
  974000       973499   -8092.5446    756.65798   -8849.2026    4322.4937   -13171.696    108.75881    -1327.012   -1149.7723   -778.77906    69.813637   -49.330389     -177.072      46.7237      46.7237      46.7237           90           90           90     102002.7   -1085.1878 
  975000       974499   -8086.2962     756.1592   -8842.4554    4308.7249    -13151.18    108.68712   -1194.3989   -1096.8043   -1019.9694    57.461472    41.057651    124.89013      46.7237      46.7237      46.7237           90           90           90     102002.7   -1103.7242 
  976000       975499   -8112.7581     759.2996   -8872.0577    4290.6924    -13162.75    109.13851    -530.6215   -1347.7378   -1192.1438   -119.00416    -0.658295    209.69677      46.7237      46.7237      46.7237           90           90           90     102002.7    -1023.501 
  977000       976499   -8081.9423    780.38302   -8862.3253    4288.5393   -13150.865    112.16895   -1104.7056   -585.17784   -1027.6463    83.102138   -213.88887   -8.4895738      46.7237      46.7237      46.7237           90           90           90     102002.7   -905.84325 
  978000       977499   -8097.6129    755.97329   -8853.5862      4306.94   -13160.526     108.6604   -798.79892   -1101.5233   -1195.6072    62.546689   -120.28271   -140.11747      46.7237      46.7237      46.7237           90           90           90     102002.7   -1031.9765 
  979000       978499   -8090.8993    777.90038   -8868.7996    4303.7864   -13172.586    111.81211   -1062.4804   -873.47909   -707.36816   -118.43727   -117.08443    23.339502      46.7237      46.7237      46.7237           90           90           90     102002.7    -881.1092 
  980000       979499   -8072.8314    778.89846   -8851.7299    4298.1562   -13149.886    111.95557    -1119.642   -331.77972   -866.03359   -123.07929    113.63505   -34.795068      46.7237      46.7237      46.7237           90           90           90     102002.7    -772.4851 
  981000       980499   -8092.2533    769.39183   -8861.6451    4288.0661   -13149.711    110.58912   -1334.2988   -827.96552   -462.91771   -71.294655   -9.7047248   -21.755746      46.7237      46.7237      46.7237           90           90           90     102002.7   -875.06067 
  982000       981499   -8087.5756    768.86653   -8856.4421    4289.3966   -13145.839    110.51362   -897.66381   -418.78017   -719.83824   -50.209862   -122.19961    138.01247      46.7237      46.7237      46.7237           90           90           90     102002.7   -678.76074 
  983000       982499   -8102.8523    758.25371    -8861.106    4277.2129   -13138.319    108.98818   -698.51061    -789.2677   -672.08169    279.03008    60.028241    132.48815      46.7237      46.7237      46.7237           90           90           90     102002.7   -719.95333 
  984000       983499   -8099.0279    764.07018    -8863.098    4293.9268   -13157.025    109.82421   -968.04893   -934.20151   -693.01725   -24.215798    58.978794   -35.740859      46.7237      46.7237      46.7237           90           90           90     102002.7   -865.08923 
  985000       984499   -8049.9041    799.79787    -8849.702    4290.4333   -13140.135    114.95956   -977.82932   -810.44603   -921.25784   -172.29819    208.33555   -312.56051      46.7237      46.7237      46.7237           90           90           90     102002.7   -903.17773 
  986000       985499   -8094.1704    773.30932   -8867.4797    4287.2084   -13154.688    111.15221   -756.05059   -1014.8759   -143.37701   -67.323399    97.716292   -229.86107      46.7237      46.7237      46.7237           90           90           90     102002.7   -638.10116 
  987000       986499   -8098.4407    750.52609   -8848.9668      4294.45   -13143.417    107.87744   -995.03837   -343.62706   -774.47953    56.649711   -164.90897     8.648782      46.7237      46.7237      46.7237           90           90           90     102002.7   -704.38165 
  988000       987499   -8098.8413    760.47735   -8859.3186    4301.8059   -13161.124    109.30779   -551.89765   -622.82707   -783.59721    178.73943    302.81987    65.488648      46.7237      46.7237      46.7237           90           90           90     102002.7   -652.77398 
  989000       988499   -8125.3216    745.95698   -8871.2786    4280.4378   -13151.716     107.2207   -718.28245   -893.85432    -635.4559   -14.264631    35.605337    31.129851      46.7237      46.7237      46.7237           90           90           90     102002.7   -749.19755 
  990000       989499   -8104.0309    757.64396   -8861.6749    4299.6503   -13161.325    108.90053   -1178.2127   -741.88409    -1068.697    28.851725    127.49182   -50.604493      46.7237      46.7237      46.7237           90           90           90     102002.7    -996.2646 
  991000       990499   -8069.3303    778.36716   -8847.6974    4309.6471   -13157.345     111.8792   -968.97885   -452.01589   -376.65655   -141.92131    24.302802   -38.922459      46.7237      46.7237      46.7237           90           90           90     102002.7    -599.2171 
  992000       991499   -8096.1898    757.05134   -8853.2411    4280.6808   -13133.922    108.81535   -1005.6063   -1173.8362   -733.94961    103.45553   -281.55707    29.928815      46.7237      46.7237      46.7237           90           90           90     102002.7   -971.13072 
  993000       992499   -8064.0803    766.52474    -8830.605    4312.5996   -13143.205    110.17702    -815.4537   -803.78009   -815.20285   -20.644122    -347.2548    155.14185      46.7237      46.7237      46.7237           90           90           90     102002.7   -811.47888 
  994000       993499   -8092.0705    766.72408   -8858.7946    4299.8864   -13158.681    110.20567   -1392.8145   -824.19059   -439.03289   -184.16142    20.909951   -140.47567      46.7237      46.7237      46.7237           90           90           90     102002.7     -885.346 
  995000       994499   -8124.5427     756.0526   -8880.5953    4266.7084   -13147.304     108.6718   -849.53776   -1205.8935   -1336.0493    97.930488    215.84413   -184.80454      46.7237      46.7237      46.7237           90           90           90     102002.7   -1130.4935 
  996000       995499    -8089.048    757.58727   -8846.6353    4293.9124   -13140.548    108.89239   -986.88265   -824.92857   -1035.3798    92.478035   -21.956604   -28.280452      46.7237      46.7237      46.7237           90           90           90     102002.7   -949.06367 
  997000       996499   -8093.5761    775.07472   -8868.6509    4291.8463   -13160.497    111.40596   -1274.7688   -1238.4541   -743.75359    15.628244   -145.82353    7.8838288      46.7237      46.7237      46.7237           90           90           90     102002.7   -1085.6588 
  998000       997499   -8097.7193    762.06737   -8859.7866    4292.1313   -13151.918    109.53634   -621.49776   -705.25302   -853.33364    29.542403    285.00618     78.44012      46.7237      46.7237      46.7237           90           90           90     102002.7   -726.69481 
  999000       998499   -8083.5949     766.9868   -8850.5817    4299.6277   -13150.209    110.24343   -585.94674    -988.8055   -1242.9006    101.90386    289.33338   -86.576106      46.7237      46.7237      46.7237           90           90           90     102002.7    -939.2176 
 1000000       999499   -8118.7657    756.82113   -8875.5868    4267.2347   -13142.821    108.78226   -1141.7775   -837.02018   -942.97606   -203.80773   -89.931538    104.38101      46.7237      46.7237      46.7237           90           90           90     102002.7   -973.92459 
 1000501      1000000   -8096.0088    766.00192   -8862.0107    4286.5911   -13148.602    110.10187    -1082.149   -1356.9274   -881.47621   -145.85761    7.6624746    116.87253      46.7237      46.7237      46.7237           90           90           90     102002.7   -1106.8509 
Loop time of 848.798 on 24 procs for 500000 steps with 2335 atoms

Performance: 50.896 ns/day, 0.472 hours/ns, 589.068 timesteps/s
98.9% CPU use with 24 MPI tasks x no OpenMP threads

MPI task timing breakdown:
Section |  min time  |  avg time  |  max time  |%varavg| %total
---------------------------------------------------------------
Pair    | 215.72     | 394.19     | 623.86     | 610.2 | 46.44
Bond    | 41.332     | 82.626     | 126.29     | 262.8 |  9.73
Neigh   | 4.9278     | 4.9462     | 4.9626     |   0.5 |  0.58
Comm    | 76.487     | 347.76     | 555.98     | 755.7 | 40.97
Output  | 0.43279    | 0.46064    | 0.46205    |   0.9 |  0.05
Modify  | 11.975     | 12.646     | 13.292     |  11.5 |  1.49
Other   |            | 6.168      |            |       |  0.73

Nlocal:    97.2917 ave 132 max 47 min
Histogram: 1 0 3 0 4 5 3 3 0 5
Nghost:    2662.75 ave 2839 max 2552 min
Histogram: 5 10 1 0 0 0 0 1 3 4
Neighs:    7636.67 ave 13412 max 2268 min
Histogram: 4 2 4 1 2 2 1 3 2 3

Total # of neighbors = 183280
Ave neighs/atom = 78.4925
Ave special neighs/atom = 4.93362
Neighbor list builds = 4601
Dangerous builds = 0
Total wall time: 0:26:07
