LAMMPS (30 Mar 2018)
Reading data file ...
  orthogonal box = (0 0 0) to (46.7237 46.7237 46.7237)
  2 by 2 by 4 MPI processor grid
  reading atoms ...
  1731 atoms
  scanning bonds ...
  5 = max bonds/atom
  scanning angles ...
  10 = max angles/atom
  scanning dihedrals ...
  32 = max dihedrals/atom
  scanning impropers ...
  3 = max impropers/atom
  reading bonds ...
  2064 bonds
  reading angles ...
  3696 angles
  reading dihedrals ...
  6240 dihedrals
  reading impropers ...
  1008 impropers
Finding 1-2 1-3 1-4 neighbors ...
  special bond factors lj:   0          0          0         
  special bond factors coul: 0          0          0         
  5 = max # of 1-2 neighbors
  8 = max # of 1-3 neighbors
  20 = max # of 1-4 neighbors
  19 = max # of special neighbors
Finding 1-2 1-3 1-4 neighbors ...
  special bond factors lj:   0          0          1         
  special bond factors coul: 1          1          1         
  5 = max # of 1-2 neighbors
  8 = max # of 1-3 neighbors
  19 = max # of special neighbors
WARNING: Using 'neigh_modify every 1 delay 0 check yes' setting during minimization (../min.cpp:168)
Neighbor list info ...
  update every 1 steps, delay 0 steps, check yes
  max neighbors/atom: 2000, page size: 100000
  master list distance cutoff = 16
  ghost atom cutoff = 16
  binsize = 8, bins = 6 6 6
  3 neighbor lists, perpetual/occasional/extra = 3 0 0
  (1) pair buck6d/coul/gauss/dsf, perpetual, skip from (3)
      attributes: half, newton on
      pair build: skip
      stencil: none
      bin: none
  (2) pair lj/cut, perpetual, skip from (3)
      attributes: half, newton on
      pair build: skip
      stencil: none
      bin: none
  (3) neighbor class addition, perpetual
      attributes: half, newton on
      pair build: half/bin/newton
      stencil: half/bin/3d/newton
      bin: standard
Setting up cg style minimization ...
  Unit style    : real
  Current step  : 0
WARNING: Inconsistent image flags (../domain.cpp:786)
Per MPI rank memory allocation (min/avg/max) = 22.89 | 23.35 | 23.79 Mbytes
Step Temp E_pair E_mol TotEng Press 
       0            0   -11522.609    6482.8914    -5039.718    6286.6415 
     503            0   -11552.218    3744.8185   -7807.3996   -498.36238 
Loop time of 2.69178 on 16 procs for 503 steps with 1731 atoms

99.9% CPU use with 16 MPI tasks x no OpenMP threads

Minimization stats:
  Stopping criterion = max force evaluations
  Energy initial, next-to-last, final = 
         -5039.7179579     -7807.36835292     -7807.39958426
  Force two-norm initial, final = 2576.98 7.80151
  Force max component initial, final = 151.968 0.871051
  Final line search alpha, max atom move = 0.0142276 0.012393
  Iterations, force evaluations = 503 1000

MPI task timing breakdown:
Section |  min time  |  avg time  |  max time  |%varavg| %total
---------------------------------------------------------------
Pair    | 1.2087     | 1.5694     | 1.9113     |  16.1 | 58.30
Bond    | 0.30277    | 0.36065    | 0.43086    |   5.4 | 13.40
Neigh   | 0.014602   | 0.014677   | 0.014745   |   0.0 |  0.55
Comm    | 0.38323    | 0.70761    | 1.0435     |  22.6 | 26.29
Output  | 0          | 0          | 0          |   0.0 |  0.00
Modify  | 0          | 0          | 0          |   0.0 |  0.00
Other   |            | 0.03945    |            |       |  1.47

Nlocal:    108.188 ave 116 max 101 min
Histogram: 2 2 1 0 4 0 3 1 2 1
Nghost:    2185.81 ave 2193 max 2178 min
Histogram: 1 1 2 1 2 3 1 1 2 2
Neighs:    11433.3 ave 15251 max 7764 min
Histogram: 2 1 4 0 1 1 2 1 2 2

Total # of neighbors = 182933
Ave neighs/atom = 105.681
Ave special neighs/atom = 6.65511
Neighbor list builds = 13
Dangerous builds = 0
Neighbor list info ...
  update every 1 steps, delay 10 steps, check yes
  max neighbors/atom: 2000, page size: 100000
  master list distance cutoff = 16
  ghost atom cutoff = 16
  binsize = 8, bins = 6 6 6
  3 neighbor lists, perpetual/occasional/extra = 3 0 0
  (1) pair buck6d/coul/gauss/dsf, perpetual, skip from (3)
      attributes: half, newton on
      pair build: skip
      stencil: none
      bin: none
  (2) pair lj/cut, perpetual, skip from (3)
      attributes: half, newton on
      pair build: skip
      stencil: none
      bin: none
  (3) neighbor class addition, perpetual
      attributes: half, newton on
      pair build: half/bin/newton
      stencil: half/bin/3d/newton
      bin: standard
Setting up Verlet run ...
  Unit style    : real
  Current step  : 503
  Time step     : 1
WARNING: Inconsistent image flags (../domain.cpp:786)
Per MPI rank memory allocation (min/avg/max) = 22.54 | 22.62 | 22.87 Mbytes
Step Temp PotEng TotEng Press Volume Lx Ly Lz 
     503           91   -7807.3996   -7338.1307   -288.06059     102002.7      46.7237      46.7237      46.7237 
    1000    82.351404   -7400.3669    -6975.697   -682.09962     102002.7      46.7237      46.7237      46.7237 
    2000    94.259936   -7334.3805   -6848.3007   -477.23009     102002.7      46.7237      46.7237      46.7237 
    3000     84.98359   -7307.7469   -6869.5034   -1094.6604     102002.7      46.7237      46.7237      46.7237 
    4000    90.003363   -7337.7562   -6873.6268   -564.84715     102002.7      46.7237      46.7237      46.7237 
    5000    91.357502   -7322.5389   -6851.4265   -918.74102     102002.7      46.7237      46.7237      46.7237 
    6000    88.560638   -7349.0685   -6892.3789   -572.41254     102002.7      46.7237      46.7237      46.7237 
    7000    93.421975   -7337.0327   -6855.2741    -594.6688     102002.7      46.7237      46.7237      46.7237 
    8000    92.571581   -7342.3067   -6864.9335   -672.09812     102002.7      46.7237      46.7237      46.7237 
    9000    90.779441   -7334.7041   -6866.5726   -377.96251     102002.7      46.7237      46.7237      46.7237 
   10000    91.760186   -7324.3381   -6851.1491   -908.93372     102002.7      46.7237      46.7237      46.7237 
   11000    93.094681   -7328.2344   -6848.1636    -747.0911     102002.7      46.7237      46.7237      46.7237 
   12000     88.23062    -7315.128   -6860.1402   -802.77338     102002.7      46.7237      46.7237      46.7237 
   13000    92.206811   -7332.8852    -6857.393   -775.17156     102002.7      46.7237      46.7237      46.7237 
   14000    89.849141   -7342.8068   -6879.4727   -577.83909     102002.7      46.7237      46.7237      46.7237 
   15000    90.475652   -7328.7689    -6862.204    -689.3898     102002.7      46.7237      46.7237      46.7237 
   16000    90.807004   -7320.6576    -6852.384   -735.18703     102002.7      46.7237      46.7237      46.7237 
   17000    92.426804    -7326.625   -6849.9983   -573.32649     102002.7      46.7237      46.7237      46.7237 
   18000    91.322869   -7337.0025   -6866.0687   -432.35565     102002.7      46.7237      46.7237      46.7237 
   19000    88.122821   -7330.9082   -6876.4763   -605.55996     102002.7      46.7237      46.7237      46.7237 
   20000    90.379382   -7336.8459   -6870.7774   -429.10588     102002.7      46.7237      46.7237      46.7237 
   21000    91.174041   -7333.2676   -6863.1012    -732.2915     102002.7      46.7237      46.7237      46.7237 
   22000    91.230941   -7324.6974   -6854.2376   -592.72946     102002.7      46.7237      46.7237      46.7237 
   23000     89.65295   -7339.2845   -6876.9621   -552.34546     102002.7      46.7237      46.7237      46.7237 
   24000     88.28164   -7330.4833   -6875.2324   -593.86555     102002.7      46.7237      46.7237      46.7237 
   25000    92.972733   -7338.5251   -6859.0832   -495.41515     102002.7      46.7237      46.7237      46.7237 
   26000    91.110115   -7335.1641   -6865.3273   -715.33312     102002.7      46.7237      46.7237      46.7237 
   27000    89.708315   -7325.9454   -6863.3375   -483.57023     102002.7      46.7237      46.7237      46.7237 
   28000    89.503195    -7327.601   -6866.0508   -723.59063     102002.7      46.7237      46.7237      46.7237 
   29000    92.200093     -7319.75   -6844.2924    -639.3915     102002.7      46.7237      46.7237      46.7237 
   30000    92.555163    -7329.797   -6852.5084   -821.40303     102002.7      46.7237      46.7237      46.7237 
   31000    90.236207   -7348.6373   -6883.3071   -807.87386     102002.7      46.7237      46.7237      46.7237 
   32000    90.317844   -7331.6124   -6865.8612   -472.07707     102002.7      46.7237      46.7237      46.7237 
   33000    91.950818   -7308.2903   -6834.1182   -789.45419     102002.7      46.7237      46.7237      46.7237 
   34000    88.076467    -7337.251   -6883.0582   -595.26803     102002.7      46.7237      46.7237      46.7237 
   35000    91.661293   -7338.6507   -6865.9716   -588.11961     102002.7      46.7237      46.7237      46.7237 
   36000    88.598246   -7318.4921   -6861.6086   -554.25529     102002.7      46.7237      46.7237      46.7237 
   37000    87.486201   -7331.3281   -6880.1792    -591.4599     102002.7      46.7237      46.7237      46.7237 
   38000    92.214007   -7331.9641   -6856.4348   -703.98604     102002.7      46.7237      46.7237      46.7237 
   39000    90.127078   -7330.3597   -6865.5923    -643.0144     102002.7      46.7237      46.7237      46.7237 
   40000    93.588019   -7334.0631   -6851.4482   -582.75864     102002.7      46.7237      46.7237      46.7237 
   41000    88.456434   -7339.8619   -6883.7097   -536.27297     102002.7      46.7237      46.7237      46.7237 
   42000    93.148225   -7343.0029    -6862.656   -758.33684     102002.7      46.7237      46.7237      46.7237 
   43000    90.021546   -7351.2177   -6886.9945    -627.4526     102002.7      46.7237      46.7237      46.7237 
   44000    92.448333   -7332.6851   -6855.9474     -764.875     102002.7      46.7237      46.7237      46.7237 
   45000    89.319445   -7338.5916    -6877.989   -773.81545     102002.7      46.7237      46.7237      46.7237 
   46000    92.717702   -7335.1331   -6857.0063   -546.73338     102002.7      46.7237      46.7237      46.7237 
   47000    89.319008   -7344.4039   -6883.8035   -677.59822     102002.7      46.7237      46.7237      46.7237 
   48000    89.532569   -7326.1353   -6864.4336   -556.77961     102002.7      46.7237      46.7237      46.7237 
   49000    92.259951    -7321.496   -6845.7298   -896.58948     102002.7      46.7237      46.7237      46.7237 
   50000    86.344182   -7326.2121   -6880.9523   -755.98662     102002.7      46.7237      46.7237      46.7237 
   51000    90.674374   -7327.1238   -6859.5341   -664.48986     102002.7      46.7237      46.7237      46.7237 
   52000    93.511004   -7318.6378   -6836.4201   -363.21662     102002.7      46.7237      46.7237      46.7237 
   53000    90.225628   -7316.7354   -6851.4598   -739.17581     102002.7      46.7237      46.7237      46.7237 
   54000    94.912923   -7320.7384   -6831.2913   -590.07013     102002.7      46.7237      46.7237      46.7237 
   55000    89.965567   -7334.5778   -6870.6432    -673.4781     102002.7      46.7237      46.7237      46.7237 
   56000    89.949008   -7323.9793   -6860.1301   -819.96023     102002.7      46.7237      46.7237      46.7237 
   57000    89.624273   -7340.7069   -6878.5324   -772.99703     102002.7      46.7237      46.7237      46.7237 
   58000    89.825075   -7318.1251    -6854.915    -797.4591     102002.7      46.7237      46.7237      46.7237 
   59000    89.206168   -7351.9029   -6891.8844   -800.26185     102002.7      46.7237      46.7237      46.7237 
   60000    88.305858   -7311.2379   -6855.8621   -755.29724     102002.7      46.7237      46.7237      46.7237 
   61000     93.30343   -7330.1805   -6849.0332   -857.98097     102002.7      46.7237      46.7237      46.7237 
   62000    90.785047   -7339.9717   -6871.8112   -550.59957     102002.7      46.7237      46.7237      46.7237 
   63000    90.363066   -7319.3612   -6853.3768   -875.27525     102002.7      46.7237      46.7237      46.7237 
   64000    88.735922   -7318.5035     -6860.91   -724.34888     102002.7      46.7237      46.7237      46.7237 
   65000    92.712931    -7328.271   -6850.1688   -665.50121     102002.7      46.7237      46.7237      46.7237 
   66000    92.488213   -7329.7791   -6852.8357   -816.54619     102002.7      46.7237      46.7237      46.7237 
   67000    89.297639   -7331.7184   -6871.2282   -438.74555     102002.7      46.7237      46.7237      46.7237 
   68000    91.469492   -7330.1989   -6858.5089   -931.53508     102002.7      46.7237      46.7237      46.7237 
   69000    88.138454   -7331.3802   -6876.8677   -616.58006     102002.7      46.7237      46.7237      46.7237 
   70000    94.502682   -7339.5115   -6852.1799   -794.45702     102002.7      46.7237      46.7237      46.7237 
   71000    89.792687   -7321.3473   -6858.3043   -845.81283     102002.7      46.7237      46.7237      46.7237 
   72000    89.812677   -7324.2256   -6861.0795   -786.60767     102002.7      46.7237      46.7237      46.7237 
   73000    89.190813   -7330.9598   -6871.0205     -888.775     102002.7      46.7237      46.7237      46.7237 
   74000    90.652208   -7316.1509   -6848.6754   -1014.1355     102002.7      46.7237      46.7237      46.7237 
   75000    90.312471   -7346.8185    -6881.095   -767.64752     102002.7      46.7237      46.7237      46.7237 
   76000    91.827476   -7327.7985   -6854.2624   -662.37374     102002.7      46.7237      46.7237      46.7237 
   77000    89.448379   -7324.3793   -6863.1118   -769.44783     102002.7      46.7237      46.7237      46.7237 
   78000    92.045162    -7315.216   -6840.5574    -538.8629     102002.7      46.7237      46.7237      46.7237 
   79000    91.422905   -7333.8371   -6862.3873   -611.71252     102002.7      46.7237      46.7237      46.7237 
   80000    90.910954   -7330.1353   -6861.3256   -874.65053     102002.7      46.7237      46.7237      46.7237 
   81000    92.114817   -7332.0341   -6857.0163    -693.0135     102002.7      46.7237      46.7237      46.7237 
   82000    91.345963   -7332.4212   -6861.3682   -758.48402     102002.7      46.7237      46.7237      46.7237 
   83000    90.075344   -7317.5715   -6853.0709   -750.65932     102002.7      46.7237      46.7237      46.7237 
   84000    90.107188   -7329.6507   -6864.9858   -609.08528     102002.7      46.7237      46.7237      46.7237 
   85000    89.902939   -7346.1075   -6882.4959   -1020.9813     102002.7      46.7237      46.7237      46.7237 
   86000    89.135235   -7317.9223   -6858.2696    -747.2666     102002.7      46.7237      46.7237      46.7237 
   87000      92.9892   -7314.9387   -6835.4118   -751.42599     102002.7      46.7237      46.7237      46.7237 
   88000     92.04256   -7331.9719   -6857.3267   -633.08381     102002.7      46.7237      46.7237      46.7237 
   89000    90.368356   -7334.6458   -6868.6341   -981.41868     102002.7      46.7237      46.7237      46.7237 
   90000    92.549861   -7329.1839   -6851.9227   -887.07603     102002.7      46.7237      46.7237      46.7237 
   91000    92.550327   -7330.1631   -6852.8994   -834.82606     102002.7      46.7237      46.7237      46.7237 
   92000    90.903618   -7339.0484   -6870.2765   -902.75903     102002.7      46.7237      46.7237      46.7237 
   93000    93.173554    -7342.005   -6861.5275   -700.95735     102002.7      46.7237      46.7237      46.7237 
   94000    92.745624   -7335.9015   -6857.6308   -465.62584     102002.7      46.7237      46.7237      46.7237 
   95000    89.582385   -7335.1193   -6873.1607   -547.11346     102002.7      46.7237      46.7237      46.7237 
   96000    94.823538   -7329.2962   -6840.3101   -825.65979     102002.7      46.7237      46.7237      46.7237 
   97000    90.959883   -7336.0673   -6867.0052   -836.50843     102002.7      46.7237      46.7237      46.7237 
   98000    86.898453   -7330.7253   -6882.6072   -869.42066     102002.7      46.7237      46.7237      46.7237 
   99000    94.522877   -7331.8086   -6844.3729   -712.50523     102002.7      46.7237      46.7237      46.7237 
  100000    91.689817   -7346.9021   -6874.0759   -744.83057     102002.7      46.7237      46.7237      46.7237 
  101000    90.423004   -7322.3429   -6856.0494   -748.31518     102002.7      46.7237      46.7237      46.7237 
  102000    90.308731   -7329.3122    -6863.608   -627.23919     102002.7      46.7237      46.7237      46.7237 
  103000    91.618919   -7323.7506     -6851.29   -771.96563     102002.7      46.7237      46.7237      46.7237 
  104000     89.85594   -7317.3605   -6853.9913    -900.5867     102002.7      46.7237      46.7237      46.7237 
  105000    92.031756   -7324.8582   -6850.2687   -541.20294     102002.7      46.7237      46.7237      46.7237 
  106000     93.46965    -7326.277   -6844.2726   -790.83632     102002.7      46.7237      46.7237      46.7237 
  107000    91.163334   -7330.2205   -6860.1093   -827.67616     102002.7      46.7237      46.7237      46.7237 
  108000    92.997944   -7311.6572   -6832.0852   -877.08938     102002.7      46.7237      46.7237      46.7237 
  109000    89.904716    -7334.638   -6871.0172   -709.01646     102002.7      46.7237      46.7237      46.7237 
  110000    93.517744    -7328.338   -6846.0855   -721.68309     102002.7      46.7237      46.7237      46.7237 
  111000    91.867128   -7342.1147   -6868.3742   -916.95174     102002.7      46.7237      46.7237      46.7237 
  112000    91.214666   -7322.6133   -6852.2374    -979.2576     102002.7      46.7237      46.7237      46.7237 
  113000    89.514416   -7332.3946   -6870.7865   -913.71846     102002.7      46.7237      46.7237      46.7237 
  114000    93.200038   -7343.5401    -6862.926   -796.35811     102002.7      46.7237      46.7237      46.7237 
  115000    92.192009   -7327.1089    -6851.693   -998.97094     102002.7      46.7237      46.7237      46.7237 
  116000     91.69387   -7310.0783   -6837.2312   -796.59758     102002.7      46.7237      46.7237      46.7237 
  117000    92.336651   -7336.8618      -6860.7   -662.45767     102002.7      46.7237      46.7237      46.7237 
  118000     94.00156   -7319.5328   -6834.7854   -810.64559     102002.7      46.7237      46.7237      46.7237 
  119000    92.617907   -7326.2936   -6848.6814   -535.29061     102002.7      46.7237      46.7237      46.7237 
  120000    91.727706   -7335.2534   -6862.2318    -639.4868     102002.7      46.7237      46.7237      46.7237 
  121000    91.750754   -7322.4238   -6849.2834   -531.17977     102002.7      46.7237      46.7237      46.7237 
  122000    91.282237   -7326.0021   -6855.2777   -776.30064     102002.7      46.7237      46.7237      46.7237 
  123000    86.804482   -7332.8939   -6885.2604   -629.66106     102002.7      46.7237      46.7237      46.7237 
  124000    91.307856   -7331.6961   -6860.8396   -596.28994     102002.7      46.7237      46.7237      46.7237 
  125000    88.733248   -7319.9246   -6862.3449   -595.27586     102002.7      46.7237      46.7237      46.7237 
  126000    93.447402   -7332.5005   -6850.6108   -650.89077     102002.7      46.7237      46.7237      46.7237 
  127000    90.844545   -7351.6445   -6883.1773   -561.17515     102002.7      46.7237      46.7237      46.7237 
  128000    90.785176   -7331.8796   -6863.7184   -492.04808     102002.7      46.7237      46.7237      46.7237 
  129000    92.209827   -7330.2919   -6854.7841   -679.50734     102002.7      46.7237      46.7237      46.7237 
  130000    92.940643   -7341.6813   -6862.4049   -683.41841     102002.7      46.7237      46.7237      46.7237 
  131000    93.472866   -7323.6246   -6841.6036   -888.55841     102002.7      46.7237      46.7237      46.7237 
  132000    90.501669   -7314.7001    -6848.001   -625.91564     102002.7      46.7237      46.7237      46.7237 
  133000    89.820158   -7328.5602   -6865.3755   -819.43516     102002.7      46.7237      46.7237      46.7237 
  134000    92.371573    -7325.027   -6848.6852    -661.7966     102002.7      46.7237      46.7237      46.7237 
  135000    87.468082    -7327.067   -6876.0115    -453.7726     102002.7      46.7237      46.7237      46.7237 
  136000    88.500455    -7334.738   -6878.3588   -395.32995     102002.7      46.7237      46.7237      46.7237 
  137000    91.076804    -7326.611    -6856.946    -561.1197     102002.7      46.7237      46.7237      46.7237 
  138000    89.608145   -7330.6293   -6868.5379   -658.31884     102002.7      46.7237      46.7237      46.7237 
  139000    96.319037    -7338.984   -6842.2859   -541.74645     102002.7      46.7237      46.7237      46.7237 
  140000    89.753566   -7327.0276   -6864.1863   -795.25788     102002.7      46.7237      46.7237      46.7237 
  141000    92.309948    -7339.516   -6863.4919   -550.74385     102002.7      46.7237      46.7237      46.7237 
  142000    92.550476   -7331.5606   -6854.2962    -743.7491     102002.7      46.7237      46.7237      46.7237 
  143000    89.693296   -7339.2326   -6876.7021    -377.4819     102002.7      46.7237      46.7237      46.7237 
  144000    90.414872    -7331.219   -6864.9675   -534.90385     102002.7      46.7237      46.7237      46.7237 
  145000    90.640072   -7329.6146   -6862.2017    -419.2505     102002.7      46.7237      46.7237      46.7237 
  146000    90.457911   -7322.0918   -6855.6183   -755.46518     102002.7      46.7237      46.7237      46.7237 
  147000    89.207568   -7336.1673   -6876.1416   -607.44294     102002.7      46.7237      46.7237      46.7237 
  148000    88.591112   -7317.6521   -6860.8054   -544.01309     102002.7      46.7237      46.7237      46.7237 
  149000    90.373389    -7338.477   -6872.4394   -691.75113     102002.7      46.7237      46.7237      46.7237 
  150000    91.006014   -7321.8895   -6852.5895   -528.55251     102002.7      46.7237      46.7237      46.7237 
  151000    89.274699   -7337.8329    -6877.461   -696.87959     102002.7      46.7237      46.7237      46.7237 
  152000    93.454688   -7327.4088   -6845.4816   -890.21754     102002.7      46.7237      46.7237      46.7237 
  153000    92.282613   -7353.0525   -6877.1694   -705.85509     102002.7      46.7237      46.7237      46.7237 
  154000    89.480139   -7341.1567   -6879.7254   -847.99447     102002.7      46.7237      46.7237      46.7237 
  155000    91.737907   -7320.3473   -6847.2732    -915.9224     102002.7      46.7237      46.7237      46.7237 
  156000    87.572503   -7326.4406   -6874.8466   -865.13717     102002.7      46.7237      46.7237      46.7237 
  157000     92.35945   -7324.6123    -6848.333   -720.50917     102002.7      46.7237      46.7237      46.7237 
  158000    88.453357   -7333.1967   -6877.0603   -705.88063     102002.7      46.7237      46.7237      46.7237 
  159000    91.197247   -7338.3604   -6868.0744   -654.73739     102002.7      46.7237      46.7237      46.7237 
  160000    90.233932   -7318.7379   -6853.4194     -452.981     102002.7      46.7237      46.7237      46.7237 
  161000    91.994322   -7324.3619   -6849.9654   -698.81321     102002.7      46.7237      46.7237      46.7237 
  162000    87.837193   -7317.9954   -6865.0364   -721.99545     102002.7      46.7237      46.7237      46.7237 
  163000     92.63084   -7328.7621   -6851.0832   -786.26636     102002.7      46.7237      46.7237      46.7237 
  164000    88.630449   -7328.7802   -6871.7305   -626.40789     102002.7      46.7237      46.7237      46.7237 
  165000    93.064852   -7339.5003   -6859.5833   -554.01815     102002.7      46.7237      46.7237      46.7237 
  166000    88.442963   -7328.2286   -6872.1458   -837.89409     102002.7      46.7237      46.7237      46.7237 
  167000    90.444099   -7334.2125   -6867.8102    -471.0743     102002.7      46.7237      46.7237      46.7237 
  168000    90.253891   -7316.3839   -6850.9625   -774.44862     102002.7      46.7237      46.7237      46.7237 
  169000    89.291504    -7321.738   -6861.2794   -752.29792     102002.7      46.7237      46.7237      46.7237 
  170000    89.940107   -7327.9603    -6864.157   -464.89268     102002.7      46.7237      46.7237      46.7237 
  171000     90.52283   -7335.5506   -6868.7423   -338.44152     102002.7      46.7237      46.7237      46.7237 
  172000    89.651527   -7324.5189   -6862.2038   -397.90336     102002.7      46.7237      46.7237      46.7237 
  173000    92.577684   -7345.8998   -6868.4951   -402.55246     102002.7      46.7237      46.7237      46.7237 
  174000    92.525874   -7342.7466   -6865.6091   -652.65234     102002.7      46.7237      46.7237      46.7237 
  175000    92.839705   -7335.9454   -6857.1894   -665.88606     102002.7      46.7237      46.7237      46.7237 
  176000    90.657332   -7332.9817   -6865.4798   -966.90726     102002.7      46.7237      46.7237      46.7237 
  177000    89.998842   -7323.3326   -6859.2264   -694.43207     102002.7      46.7237      46.7237      46.7237 
  178000    89.140735   -7332.8729   -6873.1919   -740.60116     102002.7      46.7237      46.7237      46.7237 
  179000    92.305979   -7329.9442   -6853.9406   -802.35822     102002.7      46.7237      46.7237      46.7237 
  180000    92.560602   -7324.4431   -6847.1265   -818.42249     102002.7      46.7237      46.7237      46.7237 
  181000    91.619811   -7320.0958   -6847.6307   -942.96161     102002.7      46.7237      46.7237      46.7237 
  182000    93.606691   -7347.1346   -6864.4235   -632.34572     102002.7      46.7237      46.7237      46.7237 
  183000    91.014405    -7331.447   -6862.1038   -733.81076     102002.7      46.7237      46.7237      46.7237 
  184000    89.584691   -7343.7193   -6881.7489   -425.20341     102002.7      46.7237      46.7237      46.7237 
  185000    90.381843   -7317.9794   -6851.8982   -692.19439     102002.7      46.7237      46.7237      46.7237 
  186000    91.509172   -7338.2485   -6866.3539   -700.13748     102002.7      46.7237      46.7237      46.7237 
  187000    93.373873   -7320.2761   -6838.7656    -865.9269     102002.7      46.7237      46.7237      46.7237 
  188000    90.515741   -7331.2778   -6864.5061   -688.19416     102002.7      46.7237      46.7237      46.7237 
  189000    91.113178   -7326.0319   -6856.1793    -616.5268     102002.7      46.7237      46.7237      46.7237 
  190000    93.461339   -7331.8308   -6849.8692   -968.74445     102002.7      46.7237      46.7237      46.7237 
  191000    92.215465   -7338.7277   -6863.1908   -674.45563     102002.7      46.7237      46.7237      46.7237 
  192000    90.934721   -7326.3311   -6857.3988   -827.31115     102002.7      46.7237      46.7237      46.7237 
  193000    90.850824   -7316.9673   -6848.4677   -798.51886     102002.7      46.7237      46.7237      46.7237 
  194000    91.065696   -7334.0802   -6864.4725   -826.26974     102002.7      46.7237      46.7237      46.7237 
  195000    92.770317   -7333.3687   -6854.9706    -867.4582     102002.7      46.7237      46.7237      46.7237 
  196000    91.605493   -7338.4777   -6866.0863   -841.61975     102002.7      46.7237      46.7237      46.7237 
  197000    88.611769   -7325.7503    -6868.797   -592.75825     102002.7      46.7237      46.7237      46.7237 
  198000    88.983242   -7333.9202   -6875.0513   -1010.4775     102002.7      46.7237      46.7237      46.7237 
  199000    91.519433   -7331.0728   -6859.1253   -773.86905     102002.7      46.7237      46.7237      46.7237 
  200000    91.276402   -7328.5784   -6857.8841   -739.04467     102002.7      46.7237      46.7237      46.7237 
  201000    90.029258   -7321.8019   -6857.5389   -590.92679     102002.7      46.7237      46.7237      46.7237 
  202000    92.582153   -7321.0095   -6843.5817   -753.93234     102002.7      46.7237      46.7237      46.7237 
  203000     88.51946    -7334.241   -6877.7637   -653.40891     102002.7      46.7237      46.7237      46.7237 
  204000    91.195484   -7337.1444   -6866.8674   -535.88479     102002.7      46.7237      46.7237      46.7237 
  205000    92.386472   -7323.4272   -6847.0085   -598.41601     102002.7      46.7237      46.7237      46.7237 
  206000      90.6279   -7341.1894   -6873.8393   -783.57677     102002.7      46.7237      46.7237      46.7237 
  207000    92.733096   -7321.9691   -6843.7629   -410.39355     102002.7      46.7237      46.7237      46.7237 
  208000    92.389408   -7339.6702   -6863.2363   -650.83796     102002.7      46.7237      46.7237      46.7237 
  209000    93.109415    -7322.214   -6842.0672   -721.45219     102002.7      46.7237      46.7237      46.7237 
  210000     90.11167   -7324.5516   -6859.8636   -738.80886     102002.7      46.7237      46.7237      46.7237 
  211000    89.883832   -7308.9242   -6845.4112   -822.65704     102002.7      46.7237      46.7237      46.7237 
  212000    89.405737    -7329.633   -6868.5853   -667.88945     102002.7      46.7237      46.7237      46.7237 
  213000    92.645694   -7326.2499   -6848.4945   -746.03273     102002.7      46.7237      46.7237      46.7237 
  214000    90.462012   -7330.0004   -6863.5058   -780.07472     102002.7      46.7237      46.7237      46.7237 
  215000    91.655191   -7339.2599   -6866.6123   -623.31568     102002.7      46.7237      46.7237      46.7237 
  216000    93.097287   -7310.8314   -6830.7472   -901.76653     102002.7      46.7237      46.7237      46.7237 
  217000    92.166262   -7336.8249   -6861.5418   -794.63318     102002.7      46.7237      46.7237      46.7237 
  218000    89.908366   -7334.1325   -6870.4929   -748.84973     102002.7      46.7237      46.7237      46.7237 
  219000    92.993966   -7337.8758   -6858.3244   -878.65905     102002.7      46.7237      46.7237      46.7237 
  220000    91.315029   -7330.0087   -6859.1153   -446.88687     102002.7      46.7237      46.7237      46.7237 
  221000    89.591855   -7340.6192   -6878.6118    -743.8967     102002.7      46.7237      46.7237      46.7237 
  222000    86.792949   -7314.0255   -6866.4515   -282.11161     102002.7      46.7237      46.7237      46.7237 
  223000    91.679357   -7324.0075   -6851.2352   -529.88963     102002.7      46.7237      46.7237      46.7237 
  224000    88.578432   -7323.6715   -6866.8901   -610.77015     102002.7      46.7237      46.7237      46.7237 
  225000    90.617184   -7314.7749   -6847.4801   -442.82343     102002.7      46.7237      46.7237      46.7237 
  226000    90.123976   -7339.2554    -6874.504   -727.13076     102002.7      46.7237      46.7237      46.7237 
  227000    88.736696   -7333.2681   -6875.6706   -735.66336     102002.7      46.7237      46.7237      46.7237 
  228000    92.090028   -7325.4931   -6850.6032   -750.32107     102002.7      46.7237      46.7237      46.7237 
  229000    93.184684   -7344.6268   -6864.0919   -693.87496     102002.7      46.7237      46.7237      46.7237 
  230000    90.486364   -7321.5544   -6854.9342    -957.2832     102002.7      46.7237      46.7237      46.7237 
  231000    90.201275   -7333.1487   -6867.9986   -745.31622     102002.7      46.7237      46.7237      46.7237 
  232000    89.570659   -7338.5676   -6876.6695   -862.94049     102002.7      46.7237      46.7237      46.7237 
  233000    92.489076   -7334.5414   -6857.5936    -852.9254     102002.7      46.7237      46.7237      46.7237 
  234000    90.061181   -7326.0695   -6861.6419   -1036.2722     102002.7      46.7237      46.7237      46.7237 
  235000    92.387457   -7315.5571   -6839.1334   -919.94007     102002.7      46.7237      46.7237      46.7237 
  236000     91.00968    -7328.264   -6858.9451   -693.35464     102002.7      46.7237      46.7237      46.7237 
  237000    90.608354   -7329.6018   -6862.3525   -853.35216     102002.7      46.7237      46.7237      46.7237 
  238000    91.903879   -7315.7931    -6841.863   -689.63966     102002.7      46.7237      46.7237      46.7237 
  239000    91.334757   -7322.1802    -6851.185   -765.67054     102002.7      46.7237      46.7237      46.7237 
  240000    92.883834   -7316.7735     -6837.79   -895.57915     102002.7      46.7237      46.7237      46.7237 
  241000     93.77345   -7349.1813   -6865.6103   -385.36978     102002.7      46.7237      46.7237      46.7237 
  242000     94.02702   -7321.6766    -6836.798    -620.3529     102002.7      46.7237      46.7237      46.7237 
  243000    90.418488   -7337.0182    -6870.748   -564.35713     102002.7      46.7237      46.7237      46.7237 
  244000    89.708999   -7340.1784   -6877.5669   -572.76778     102002.7      46.7237      46.7237      46.7237 
  245000    91.854213   -7340.1097   -6866.4358   -800.12453     102002.7      46.7237      46.7237      46.7237 
  246000    91.023121   -7324.3255   -6854.9373   -701.50832     102002.7      46.7237      46.7237      46.7237 
  247000    88.225661    -7331.961   -6876.9988   -367.38245     102002.7      46.7237      46.7237      46.7237 
  248000    89.324084   -7330.9727   -6870.3461   -602.31548     102002.7      46.7237      46.7237      46.7237 
  249000    96.763609   -7329.1595   -6830.1688   -428.29107     102002.7      46.7237      46.7237      46.7237 
  250000    89.161442   -7321.5553   -6861.7675   -599.09417     102002.7      46.7237      46.7237      46.7237 
  251000    90.604316   -7346.5712   -6879.3427   -725.40172     102002.7      46.7237      46.7237      46.7237 
  252000    90.680654   -7323.0942   -6855.4721   -753.08658     102002.7      46.7237      46.7237      46.7237 
  253000    88.347987   -7332.9287   -6877.3357   -617.13695     102002.7      46.7237      46.7237      46.7237 
  254000    91.594551    -7320.164   -6847.8291   -791.69459     102002.7      46.7237      46.7237      46.7237 
  255000    91.593497   -7332.5629   -6860.2334   -556.97482     102002.7      46.7237      46.7237      46.7237 
  256000    90.796144   -7329.1492   -6860.9315   -663.97204     102002.7      46.7237      46.7237      46.7237 
  257000    95.468472   -7332.6094   -6840.2975   -774.87418     102002.7      46.7237      46.7237      46.7237 
  258000    89.034753   -7321.5147   -6862.3802    -624.1836     102002.7      46.7237      46.7237      46.7237 
  259000       89.953   -7349.4782   -6885.6084   -815.63959     102002.7      46.7237      46.7237      46.7237 
  260000    91.891158   -7330.1134    -6856.249    -478.8136     102002.7      46.7237      46.7237      46.7237 
  261000    89.177141   -7327.2244   -6867.3556   -649.94007     102002.7      46.7237      46.7237      46.7237 
  262000    88.064747   -7318.8995   -6864.7671   -535.88085     102002.7      46.7237      46.7237      46.7237 
  263000    93.610934   -7323.3998   -6840.6668   -389.34758     102002.7      46.7237      46.7237      46.7237 
  264000    92.564079   -7338.4004   -6861.0658   -568.21233     102002.7      46.7237      46.7237      46.7237 
  265000     91.75922   -7328.5151    -6855.331    -484.4673     102002.7      46.7237      46.7237      46.7237 
  266000    94.069427    -7322.468   -6837.3707   -771.02239     102002.7      46.7237      46.7237      46.7237 
  267000    88.691171    -7323.853   -6866.4902   -826.96342     102002.7      46.7237      46.7237      46.7237 
  268000    92.604134   -7313.9189   -6836.3778   -581.20822     102002.7      46.7237      46.7237      46.7237 
  269000    89.248509   -7333.7557   -6873.5189   -553.17774     102002.7      46.7237      46.7237      46.7237 
  270000    90.391611   -7327.0305   -6860.8989   -573.89178     102002.7      46.7237      46.7237      46.7237 
  271000    91.857982   -7341.1122   -6867.4189   -684.88822     102002.7      46.7237      46.7237      46.7237 
  272000    93.629792   -7328.0216   -6845.1914   -491.13184     102002.7      46.7237      46.7237      46.7237 
  273000    90.021239   -7343.8357   -6879.6141   -626.37807     102002.7      46.7237      46.7237      46.7237 
  274000     88.53637   -7305.8577   -6849.2932   -772.28083     102002.7      46.7237      46.7237      46.7237 
  275000    91.156819   -7342.4888   -6872.4112   -852.23012     102002.7      46.7237      46.7237      46.7237 
  276000    93.192497    -7335.209   -6854.6338   -532.71016     102002.7      46.7237      46.7237      46.7237 
  277000    92.404994   -7334.8142      -6858.3    -774.0194     102002.7      46.7237      46.7237      46.7237 
  278000    91.205678    -7326.638   -6856.3085   -608.39359     102002.7      46.7237      46.7237      46.7237 
  279000    90.281243   -7344.3172   -6878.7547   -671.24822     102002.7      46.7237      46.7237      46.7237 
  280000    90.154164   -7326.6479   -6861.7408   -591.57124     102002.7      46.7237      46.7237      46.7237 
  281000     95.41083   -7325.9113   -6833.8966   -477.21071     102002.7      46.7237      46.7237      46.7237 
  282000     90.99604   -7341.0748   -6871.8263   -469.37614     102002.7      46.7237      46.7237      46.7237 
  283000    89.571216   -7307.9419    -6846.041   -251.62497     102002.7      46.7237      46.7237      46.7237 
  284000    91.144594   -7334.0627   -6864.0482    -713.9502     102002.7      46.7237      46.7237      46.7237 
  285000    91.551109   -7327.8822   -6855.7713   -811.61289     102002.7      46.7237      46.7237      46.7237 
  286000    90.366843   -7343.2939     -6877.29   -695.84636     102002.7      46.7237      46.7237      46.7237 
  287000    90.858659   -7333.1226   -6864.5825   -565.12882     102002.7      46.7237      46.7237      46.7237 
  288000    93.236581   -7325.5669   -6844.7644   -851.43577     102002.7      46.7237      46.7237      46.7237 
  289000    90.495696   -7328.8656   -6862.1973    -665.9292     102002.7      46.7237      46.7237      46.7237 
  290000     94.65918   -7331.6242   -6843.4856   -328.79904     102002.7      46.7237      46.7237      46.7237 
  291000    89.274835   -7318.7206    -6858.348   -656.41412     102002.7      46.7237      46.7237      46.7237 
  292000    89.740906    -7336.299   -6873.5229   -597.97534     102002.7      46.7237      46.7237      46.7237 
  293000    91.089943   -7326.2347    -6856.502   -913.07079     102002.7      46.7237      46.7237      46.7237 
  294000    91.360577    -7338.565   -6867.4366   -899.00229     102002.7      46.7237      46.7237      46.7237 
  295000    95.262453   -7330.1861   -6838.9366   -693.14082     102002.7      46.7237      46.7237      46.7237 
  296000    90.243122   -7331.9907   -6866.6249   -762.22767     102002.7      46.7237      46.7237      46.7237 
  297000    91.591739   -7309.7406   -6837.4202   -800.00564     102002.7      46.7237      46.7237      46.7237 
  298000    87.486427   -7329.6232   -6878.4731   -606.19077     102002.7      46.7237      46.7237      46.7237 
  299000    92.804374   -7315.9975   -6837.4238   -735.95983     102002.7      46.7237      46.7237      46.7237 
  300000    90.068596   -7342.3234   -6877.8576   -762.68485     102002.7      46.7237      46.7237      46.7237 
  301000    93.154313   -7317.1328   -6836.7545   -845.26578     102002.7      46.7237      46.7237      46.7237 
  302000    91.784546   -7326.3595   -6853.0448   -816.50691     102002.7      46.7237      46.7237      46.7237 
  303000    92.286782   -7333.2087   -6857.3041   -760.33278     102002.7      46.7237      46.7237      46.7237 
  304000    89.853845   -7301.7951   -6838.4366   -750.90944     102002.7      46.7237      46.7237      46.7237 
  305000    88.685048   -7331.5474   -6874.2162   -766.39272     102002.7      46.7237      46.7237      46.7237 
  306000    90.228312   -7327.9649   -6862.6754   -848.56417     102002.7      46.7237      46.7237      46.7237 
  307000     93.16473   -7333.3337   -6852.9017   -796.79074     102002.7      46.7237      46.7237      46.7237 
  308000    92.094866   -7351.4124   -6876.4975   -916.22766     102002.7      46.7237      46.7237      46.7237 
  309000    92.620449   -7318.4423    -6840.817   -952.79664     102002.7      46.7237      46.7237      46.7237 
  310000    92.423122   -7334.5608   -6857.9531   -1022.2896     102002.7      46.7237      46.7237      46.7237 
  311000    88.717727   -7335.7889   -6878.2892   -999.13059     102002.7      46.7237      46.7237      46.7237 
  312000    92.536845   -7321.3418   -6844.1477   -844.10345     102002.7      46.7237      46.7237      46.7237 
  313000    90.987185   -7333.8172   -6864.6143   -812.57754     102002.7      46.7237      46.7237      46.7237 
  314000    87.007154   -7326.4501   -6877.7715   -589.60036     102002.7      46.7237      46.7237      46.7237 
  315000    92.480515   -7329.8366   -6852.9329   -719.46128     102002.7      46.7237      46.7237      46.7237 
  316000    90.704204   -7312.4309   -6844.6874   -859.63479     102002.7      46.7237      46.7237      46.7237 
  317000    88.464355   -7330.4543   -6874.2612   -828.74499     102002.7      46.7237      46.7237      46.7237 
  318000    92.945976   -7338.1882   -6858.8842   -766.64807     102002.7      46.7237      46.7237      46.7237 
  319000    90.399529   -7344.7318   -6878.5594   -612.86191     102002.7      46.7237      46.7237      46.7237 
  320000    93.340343   -7339.5481   -6858.2105   -640.06935     102002.7      46.7237      46.7237      46.7237 
  321000    94.307262   -7333.5896   -6847.2658   -544.96988     102002.7      46.7237      46.7237      46.7237 
  322000     88.00613   -7347.9225   -6894.0924   -605.66958     102002.7      46.7237      46.7237      46.7237 
  323000    95.368247    -7333.573   -6841.7779   -815.63639     102002.7      46.7237      46.7237      46.7237 
  324000    92.241923   -7345.8829   -6870.2096   -745.36951     102002.7      46.7237      46.7237      46.7237 
  325000    90.627531   -7327.7866   -6860.4384   -911.82218     102002.7      46.7237      46.7237      46.7237 
  326000    90.667736   -7326.3579   -6858.8024   -810.87971     102002.7      46.7237      46.7237      46.7237 
  327000    86.973609    -7323.591   -6875.0854   -941.02656     102002.7      46.7237      46.7237      46.7237 
  328000    90.266292   -7326.5047   -6861.0194   -873.28687     102002.7      46.7237      46.7237      46.7237 
  329000    89.609813   -7335.7963   -6873.6963   -918.27545     102002.7      46.7237      46.7237      46.7237 
  330000    93.947355   -7339.6506   -6855.1827   -696.34682     102002.7      46.7237      46.7237      46.7237 
  331000    89.117831   -7338.7192   -6879.1562   -674.86948     102002.7      46.7237      46.7237      46.7237 
  332000    90.626215   -7333.4235   -6866.0822   -714.16358     102002.7      46.7237      46.7237      46.7237 
  333000    90.495092   -7339.2834   -6872.6182   -594.46434     102002.7      46.7237      46.7237      46.7237 
  334000    95.561699   -7339.3292   -6846.5365   -816.71943     102002.7      46.7237      46.7237      46.7237 
  335000    92.583161   -7324.3704   -6846.9375   -776.02511     102002.7      46.7237      46.7237      46.7237 
  336000    91.389303   -7337.2083   -6865.9318   -740.88464     102002.7      46.7237      46.7237      46.7237 
  337000    91.643196    -7348.388   -6875.8022   -806.92014     102002.7      46.7237      46.7237      46.7237 
  338000    90.197778   -7329.6968   -6864.5647    -798.0359     102002.7      46.7237      46.7237      46.7237 
  339000     89.84331   -7342.8981    -6879.594   -771.00433     102002.7      46.7237      46.7237      46.7237 
  340000    92.425308   -7336.4619   -6859.8429   -769.92207     102002.7      46.7237      46.7237      46.7237 
  341000     88.23726   -7327.1627   -6872.1407   -591.18601     102002.7      46.7237      46.7237      46.7237 
  342000    91.711057   -7337.3688   -6864.4331   -624.36578     102002.7      46.7237      46.7237      46.7237 
  343000    91.332474   -7317.0911   -6846.1076    -551.7795     102002.7      46.7237      46.7237      46.7237 
  344000    89.274574   -7328.0638   -6867.6926   -499.74768     102002.7      46.7237      46.7237      46.7237 
  345000    93.092246   -7337.6865   -6857.6283   -945.95416     102002.7      46.7237      46.7237      46.7237 
  346000    93.164305   -7326.1284   -6845.6986   -942.75225     102002.7      46.7237      46.7237      46.7237 
  347000     92.08889   -7336.7873   -6861.9032   -924.86343     102002.7      46.7237      46.7237      46.7237 
  348000    89.210523   -7326.4094   -6866.3685   -843.42025     102002.7      46.7237      46.7237      46.7237 
  349000    90.801145   -7326.7393   -6858.4959   -726.62706     102002.7      46.7237      46.7237      46.7237 
  350000     90.82328   -7331.4557   -6863.0981     -526.767     102002.7      46.7237      46.7237      46.7237 
  351000    95.387113   -7340.6671   -6848.7747   -813.73646     102002.7      46.7237      46.7237      46.7237 
  352000    87.772015    -7328.769   -6876.1462   -622.00167     102002.7      46.7237      46.7237      46.7237 
  353000    88.850483   -7335.8057   -6877.6214   -775.43113     102002.7      46.7237      46.7237      46.7237 
  354000    91.249316   -7327.4657   -6856.9111   -694.48945     102002.7      46.7237      46.7237      46.7237 
  355000    90.005149    -7354.156   -6890.0173   -618.48804     102002.7      46.7237      46.7237      46.7237 
  356000    92.459523   -7335.1225   -6858.3271   -740.82719     102002.7      46.7237      46.7237      46.7237 
  357000    87.972341   -7339.7812   -6886.1253   -698.14681     102002.7      46.7237      46.7237      46.7237 
  358000    89.286951   -7332.8416   -6872.4065   -644.17629     102002.7      46.7237      46.7237      46.7237 
  359000    93.126326   -7329.4147   -6849.1808   -584.22253     102002.7      46.7237      46.7237      46.7237 
  360000    92.934604   -7346.5254   -6867.2802   -629.77842     102002.7      46.7237      46.7237      46.7237 
  361000    90.938533    -7323.622   -6854.6701   -570.49082     102002.7      46.7237      46.7237      46.7237 
  362000    90.946116   -7338.1732   -6869.1821   -470.83768     102002.7      46.7237      46.7237      46.7237 
  363000     93.44326   -7321.2677   -6839.3993   -851.98078     102002.7      46.7237      46.7237      46.7237 
  364000    89.509661   -7331.9933   -6870.4098   -856.20922     102002.7      46.7237      46.7237      46.7237 
  365000    94.523246   -7323.9851   -6836.5475   -836.33378     102002.7      46.7237      46.7237      46.7237 
  366000    91.307974   -7344.1326   -6873.2755    -692.5697     102002.7      46.7237      46.7237      46.7237 
  367000    90.504425   -7313.8987   -6847.1853    -677.7476     102002.7      46.7237      46.7237      46.7237 
  368000    92.016387    -7332.909   -6858.3987   -713.72386     102002.7      46.7237      46.7237      46.7237 
  369000    90.061735   -7334.5697   -6870.1392   -704.11376     102002.7      46.7237      46.7237      46.7237 
  370000    90.873674   -7319.2392   -6850.6217   -902.19602     102002.7      46.7237      46.7237      46.7237 
  371000    88.607692   -7323.6559   -6866.7236    -617.9023     102002.7      46.7237      46.7237      46.7237 
  372000    89.542148   -7330.1936   -6868.4425   -1130.3996     102002.7      46.7237      46.7237      46.7237 
  373000    90.985621   -7321.7625   -6852.5678   -950.71321     102002.7      46.7237      46.7237      46.7237 
  374000    91.996306   -7327.6669   -6853.2602   -554.91261     102002.7      46.7237      46.7237      46.7237 
  375000    91.038725   -7332.0724   -6862.6038   -723.78323     102002.7      46.7237      46.7237      46.7237 
  376000    90.570824   -7338.9302   -6871.8744    -572.8457     102002.7      46.7237      46.7237      46.7237 
  377000    90.617022   -7335.6423   -6868.3484   -736.06004     102002.7      46.7237      46.7237      46.7237 
  378000    92.260338   -7329.8753   -6854.1071   -762.29504     102002.7      46.7237      46.7237      46.7237 
  379000    91.317788   -7333.6905   -6862.7828   -892.03728     102002.7      46.7237      46.7237      46.7237 
  380000    92.731537   -7322.4335   -6844.2354   -798.03279     102002.7      46.7237      46.7237      46.7237 
  381000    88.490967   -7348.1807   -6891.8503   -761.17082     102002.7      46.7237      46.7237      46.7237 
  382000    91.663643    -7327.584   -6854.8928   -605.65719     102002.7      46.7237      46.7237      46.7237 
  383000    88.655283   -7342.8504   -6885.6727   -711.82094     102002.7      46.7237      46.7237      46.7237 
  384000    87.825464   -7317.8328   -6864.9344   -547.85777     102002.7      46.7237      46.7237      46.7237 
  385000    91.390365   -7334.4027   -6863.1207   -802.94941     102002.7      46.7237      46.7237      46.7237 
  386000    93.864916   -7316.1697   -6832.1269   -699.41618     102002.7      46.7237      46.7237      46.7237 
  387000    89.836241   -7337.8972   -6874.6295   -734.67312     102002.7      46.7237      46.7237      46.7237 
  388000    88.696158    -7325.427   -6868.0385   -501.79646     102002.7      46.7237      46.7237      46.7237 
  389000    89.610869   -7336.8545   -6874.7491   -800.14978     102002.7      46.7237      46.7237      46.7237 
  390000    88.716997   -7322.7384   -6865.2425   -665.06125     102002.7      46.7237      46.7237      46.7237 
  391000    96.856558   -7328.4256   -6828.9555   -849.43105     102002.7      46.7237      46.7237      46.7237 
  392000    91.135376   -7333.6818   -6863.7148   -829.73587     102002.7      46.7237      46.7237      46.7237 
  393000    88.483096   -7350.2138    -6893.924    -915.0381     102002.7      46.7237      46.7237      46.7237 
  394000    93.801554   -7339.6737   -6855.9578   -759.35449     102002.7      46.7237      46.7237      46.7237 
  395000    90.093426   -7357.4902   -6892.8963    -521.7497     102002.7      46.7237      46.7237      46.7237 
  396000    94.387975   -7331.9786   -6845.2385   -868.53611     102002.7      46.7237      46.7237      46.7237 
  397000    90.444189   -7337.8866   -6871.4838   -421.64777     102002.7      46.7237      46.7237      46.7237 
  398000     91.63303    -7341.387   -6868.8537   -583.61691     102002.7      46.7237      46.7237      46.7237 
  399000    92.288293   -7335.8879   -6859.9755   -554.80885     102002.7      46.7237      46.7237      46.7237 
  400000    89.774377   -7344.8819   -6881.9333   -424.84018     102002.7      46.7237      46.7237      46.7237 
  401000    93.669603   -7328.3183   -6845.2828   -708.76158     102002.7      46.7237      46.7237      46.7237 
  402000    89.446645   -7327.7152   -6866.4566   -476.13457     102002.7      46.7237      46.7237      46.7237 
  403000    93.001589   -7338.0054   -6858.4147    -633.9669     102002.7      46.7237      46.7237      46.7237 
  404000    91.256456   -7334.8776   -6864.2862   -714.96487     102002.7      46.7237      46.7237      46.7237 
  405000    90.207045   -7333.2872   -6868.1074   -678.69785     102002.7      46.7237      46.7237      46.7237 
  406000    92.830315   -7323.9984   -6845.2909   -724.91742     102002.7      46.7237      46.7237      46.7237 
  407000    91.270374   -7342.4412    -6871.778   -818.13038     102002.7      46.7237      46.7237      46.7237 
  408000    91.333451   -7314.2316   -6843.2431   -918.15707     102002.7      46.7237      46.7237      46.7237 
  409000    89.296182   -7336.2951   -6875.8124   -536.34445     102002.7      46.7237      46.7237      46.7237 
  410000    92.494096   -7333.1293   -6856.1556   -723.61625     102002.7      46.7237      46.7237      46.7237 
  411000    90.542251   -7331.2973   -6864.3889   -509.60636     102002.7      46.7237      46.7237      46.7237 
  412000    93.872206   -7328.9825   -6844.9021   -589.53009     102002.7      46.7237      46.7237      46.7237 
  413000    90.728641    -7328.661   -6860.7914   -863.25068     102002.7      46.7237      46.7237      46.7237 
  414000    91.059848   -7327.4516   -6857.8741   -749.63324     102002.7      46.7237      46.7237      46.7237 
  415000    91.527544   -7326.9666   -6854.9772   -877.03135     102002.7      46.7237      46.7237      46.7237 
  416000    89.530009   -7334.5233   -6872.8349   -668.64621     102002.7      46.7237      46.7237      46.7237 
  417000    93.101421   -7326.3316    -6846.226   -635.28193     102002.7      46.7237      46.7237      46.7237 
  418000    88.222852   -7332.8093   -6877.8616   -575.27588     102002.7      46.7237      46.7237      46.7237 
  419000    87.912828   -7333.4104   -6880.0614   -625.36916     102002.7      46.7237      46.7237      46.7237 
  420000    90.397701   -7331.9496   -6865.7866   -849.91977     102002.7      46.7237      46.7237      46.7237 
  421000    88.937605   -7332.4527   -6873.8191   -650.23764     102002.7      46.7237      46.7237      46.7237 
  422000    93.887883   -7322.2315   -6838.0703   -587.96915     102002.7      46.7237      46.7237      46.7237 
  423000    90.045359    -7334.083    -6869.737   -555.89469     102002.7      46.7237      46.7237      46.7237 
  424000    89.897193     -7335.08    -6871.498   -571.26407     102002.7      46.7237      46.7237      46.7237 
  425000    93.807742   -7325.9823   -6842.2344   -447.63661     102002.7      46.7237      46.7237      46.7237 
  426000    94.062017    -7339.551   -6854.4918   -535.61694     102002.7      46.7237      46.7237      46.7237 
  427000    89.495902   -7324.6197   -6863.1071   -698.75515     102002.7      46.7237      46.7237      46.7237 
  428000    91.524247   -7310.0798   -6838.1074   -773.15371     102002.7      46.7237      46.7237      46.7237 
  429000    92.758326   -7345.0085   -6866.6722   -658.10673     102002.7      46.7237      46.7237      46.7237 
  430000    90.470865   -7329.7364   -6863.1962   -748.62515     102002.7      46.7237      46.7237      46.7237 
  431000    94.026158   -7332.4801   -6847.6059   -629.40536     102002.7      46.7237      46.7237      46.7237 
  432000    89.554009   -7350.6305   -6888.8182    -840.7871     102002.7      46.7237      46.7237      46.7237 
  433000    91.932223   -7331.6958   -6857.6196   -817.64532     102002.7      46.7237      46.7237      46.7237 
  434000    91.256317   -7331.9021   -6861.3114   -694.31581     102002.7      46.7237      46.7237      46.7237 
  435000    88.802768   -7332.1874   -6874.2491   -635.10659     102002.7      46.7237      46.7237      46.7237 
  436000    93.883645   -7333.8483    -6849.709    -770.1899     102002.7      46.7237      46.7237      46.7237 
  437000    90.257488   -7341.4822   -6876.0423   -390.19472     102002.7      46.7237      46.7237      46.7237 
  438000    90.476559   -7341.4275   -6874.8578   -537.90195     102002.7      46.7237      46.7237      46.7237 
  439000    91.588497    -7330.638   -6858.3344    -554.0672     102002.7      46.7237      46.7237      46.7237 
  440000     91.75107   -7326.7768   -6853.6348    -598.9722     102002.7      46.7237      46.7237      46.7237 
  441000    90.299228   -7336.8299   -6871.1747   -849.26273     102002.7      46.7237      46.7237      46.7237 
  442000    90.257301   -7343.7827   -6878.3437   -527.35257     102002.7      46.7237      46.7237      46.7237 
  443000    88.443792    -7314.807   -6858.7199   -666.34225     102002.7      46.7237      46.7237      46.7237 
  444000    89.467278   -7329.8027   -6868.4377   -586.45917     102002.7      46.7237      46.7237      46.7237 
  445000    92.475298   -7329.8624   -6852.9857   -746.31701     102002.7      46.7237      46.7237      46.7237 
  446000    89.669878   -7336.3324   -6873.9226   -829.72695     102002.7      46.7237      46.7237      46.7237 
  447000    87.198793   -7330.0088   -6880.3419   -611.65303     102002.7      46.7237      46.7237      46.7237 
  448000    89.298597   -7319.3164   -6858.8213   -679.29644     102002.7      46.7237      46.7237      46.7237 
  449000     93.41327   -7311.0323   -6829.3186     -816.091     102002.7      46.7237      46.7237      46.7237 
  450000    89.766405   -7333.0063   -6870.0987   -589.27836     102002.7      46.7237      46.7237      46.7237 
  451000     92.63019   -7312.9859   -6835.3104   -676.69386     102002.7      46.7237      46.7237      46.7237 
  452000    88.915114   -7328.5545    -6870.037   -836.96125     102002.7      46.7237      46.7237      46.7237 
  453000    94.185927   -7341.2134   -6855.5153   -804.26297     102002.7      46.7237      46.7237      46.7237 
  454000    94.880431   -7333.4095   -6844.1299     -861.992     102002.7      46.7237      46.7237      46.7237 
  455000    92.587784   -7339.0528    -6861.596   -830.01939     102002.7      46.7237      46.7237      46.7237 
  456000    90.708145   -7339.1166   -6871.3527   -620.33987     102002.7      46.7237      46.7237      46.7237 
  457000    90.732495   -7353.4914   -6885.6019   -541.62177     102002.7      46.7237      46.7237      46.7237 
  458000    91.710529   -7331.9496   -6859.0166   -878.25354     102002.7      46.7237      46.7237      46.7237 
  459000    88.416013   -7341.5181   -6885.5742   -938.94587     102002.7      46.7237      46.7237      46.7237 
  460000    89.848085   -7329.1246   -6865.7958   -797.33947     102002.7      46.7237      46.7237      46.7237 
  461000     90.56514   -7324.2792   -6857.2528   -621.07155     102002.7      46.7237      46.7237      46.7237 
  462000    89.999836   -7330.1729   -6866.0616   -794.95833     102002.7      46.7237      46.7237      46.7237 
  463000    91.466446   -7306.8174   -6835.1431   -808.72898     102002.7      46.7237      46.7237      46.7237 
  464000    89.143395   -7334.4591   -6874.7643   -621.26206     102002.7      46.7237      46.7237      46.7237 
  465000    92.660588   -7329.0194   -6851.1872   -639.13412     102002.7      46.7237      46.7237      46.7237 
  466000     89.34334   -7331.3015   -6870.5756    -724.4205     102002.7      46.7237      46.7237      46.7237 
  467000    93.378157   -7315.3517   -6833.8191   -587.76777     102002.7      46.7237      46.7237      46.7237 
  468000    88.241231   -7324.1497   -6869.1072    -787.9823     102002.7      46.7237      46.7237      46.7237 
  469000    92.729482   -7338.4812   -6860.2937   -542.79777     102002.7      46.7237      46.7237      46.7237 
  470000    90.728353   -7317.3481     -6849.48   -732.31681     102002.7      46.7237      46.7237      46.7237 
  471000    91.270265   -7338.9063   -6868.2437   -438.88544     102002.7      46.7237      46.7237      46.7237 
  472000    92.567384   -7332.4725   -6855.1208   -578.95692     102002.7      46.7237      46.7237      46.7237 
  473000    92.473297   -7325.5437   -6848.6772   -583.55952     102002.7      46.7237      46.7237      46.7237 
  474000    91.786496   -7336.0331   -6862.7084   -584.45317     102002.7      46.7237      46.7237      46.7237 
  475000    90.578754    -7330.561   -6863.4644   -583.64969     102002.7      46.7237      46.7237      46.7237 
  476000    89.631347   -7321.0939   -6858.8829   -765.90869     102002.7      46.7237      46.7237      46.7237 
  477000    92.183458   -7325.8606   -6850.4888   -456.38342     102002.7      46.7237      46.7237      46.7237 
  478000    87.233517   -7341.4046   -6891.5587   -834.23088     102002.7      46.7237      46.7237      46.7237 
  479000    91.058847   -7330.1362   -6860.5638   -630.81791     102002.7      46.7237      46.7237      46.7237 
  480000    92.149231   -7324.2962   -6849.1009   -767.16143     102002.7      46.7237      46.7237      46.7237 
  481000    90.005586   -7325.6923   -6861.5514   -839.02175     102002.7      46.7237      46.7237      46.7237 
  482000    88.913391   -7333.2922   -6874.7835   -687.62431     102002.7      46.7237      46.7237      46.7237 
  483000    94.485112   -7329.6535   -6842.4125   -846.06586     102002.7      46.7237      46.7237      46.7237 
  484000    90.022722   -7332.8386   -6868.6094   -697.21212     102002.7      46.7237      46.7237      46.7237 
  485000    86.779894   -7335.8457    -6888.339   -940.99082     102002.7      46.7237      46.7237      46.7237 
  486000    94.559797   -7341.8543   -6854.2282   -663.79806     102002.7      46.7237      46.7237      46.7237 
  487000    90.348859   -7348.0788   -6882.1677   -733.05533     102002.7      46.7237      46.7237      46.7237 
  488000    91.788815   -7336.6016   -6863.2649   -776.13104     102002.7      46.7237      46.7237      46.7237 
  489000    91.796988   -7305.2599   -6831.8811   -658.73558     102002.7      46.7237      46.7237      46.7237 
  490000    92.974246   -7345.3286   -6865.8789   -880.73353     102002.7      46.7237      46.7237      46.7237 
  491000    91.480318   -7329.2047   -6857.4589    -519.4118     102002.7      46.7237      46.7237      46.7237 
  492000    92.471842   -7327.3258   -6850.4669   -613.04385     102002.7      46.7237      46.7237      46.7237 
  493000    87.722805   -7337.6737   -6885.3047   -713.81968     102002.7      46.7237      46.7237      46.7237 
  494000    93.628165   -7336.9915   -6854.1697   -720.81245     102002.7      46.7237      46.7237      46.7237 
  495000    89.759012   -7340.4275   -6877.5581   -579.13411     102002.7      46.7237      46.7237      46.7237 
  496000    86.635588   -7338.6884   -6891.9259   -437.51482     102002.7      46.7237      46.7237      46.7237 
  497000    91.344165   -7329.7225   -6858.6788   -672.12876     102002.7      46.7237      46.7237      46.7237 
  498000     89.73969   -7322.5053   -6859.7355   -268.43044     102002.7      46.7237      46.7237      46.7237 
  499000    88.106265   -7331.9926    -6877.646    -444.7334     102002.7      46.7237      46.7237      46.7237 
  500000    92.940631   -7330.4167   -6851.1403   -477.07492     102002.7      46.7237      46.7237      46.7237 
  500503    89.435841   -7336.6614   -6875.4586   -877.87022     102002.7      46.7237      46.7237      46.7237 
Loop time of 1271.54 on 16 procs for 500000 steps with 1731 atoms

Performance: 33.975 ns/day, 0.706 hours/ns, 393.225 timesteps/s
99.8% CPU use with 16 MPI tasks x no OpenMP threads

MPI task timing breakdown:
Section |  min time  |  avg time  |  max time  |%varavg| %total
---------------------------------------------------------------
Pair    | 503.62     | 682.86     | 854.21     | 467.2 | 53.70
Bond    | 165.23     | 173.93     | 181.3      |  36.3 | 13.68
Neigh   | 2.7893     | 2.8012     | 2.8172     |   0.5 |  0.22
Comm    | 226.63     | 398.83     | 576.75     | 613.9 | 31.37
Output  | 0.020545   | 0.020943   | 0.023988   |   0.5 |  0.00
Modify  | 7.3706     | 7.6895     | 8.0033     |   7.2 |  0.60
Other   |            | 5.41       |            |       |  0.43

Nlocal:    108.188 ave 128 max 87 min
Histogram: 3 0 2 1 1 2 1 3 1 2
Nghost:    2199.81 ave 2227 max 2180 min
Histogram: 2 2 3 1 3 1 0 2 1 1
Neighs:    11453.1 ave 15808 max 7800 min
Histogram: 2 3 3 1 1 0 1 1 1 3

Total # of neighbors = 183249
Ave neighs/atom = 105.863
Ave special neighs/atom = 6.65511
Neighbor list builds = 2475
Dangerous builds = 0
Neighbor list info ...
  update every 1 steps, delay 10 steps, check yes
  max neighbors/atom: 2000, page size: 100000
  master list distance cutoff = 16
  ghost atom cutoff = 16
  binsize = 8, bins = 6 6 6
  3 neighbor lists, perpetual/occasional/extra = 3 0 0
  (1) pair buck6d/coul/gauss/dsf, perpetual, skip from (3)
      attributes: half, newton on
      pair build: skip
      stencil: none
      bin: none
  (2) pair lj/cut, perpetual, skip from (3)
      attributes: half, newton on
      pair build: skip
      stencil: none
      bin: none
  (3) neighbor class addition, perpetual
      attributes: half, newton on
      pair build: half/bin/newton
      stencil: half/bin/3d/newton
      bin: standard
Setting up Verlet run ...
  Unit style    : real
  Current step  : 500503
  Time step     : 1
WARNING: Inconsistent image flags (../domain.cpp:786)
Per MPI rank memory allocation (min/avg/max) = 22.87 | 23.27 | 23.33 Mbytes
Step Time TotEng KinEng PotEng E_mol E_pair Temp Pxx Pyy Pzz Pxy Pxz Pyz Cella Cellb Cellc CellAlpha CellBeta CellGamma Volume Press 
  500503       500000   -6875.4586    461.20287   -7336.6614    4224.6676   -11561.329    89.435841   -817.81597   -771.01397   -1044.7807    106.06322    106.62994    10.778501      46.7237      46.7237      46.7237           90           90           90     102002.7   -877.87022 
  501000       500497   -6867.6146    458.40807   -7326.0227    4222.7457   -11548.768    88.893876   -552.50603   -815.17269   -735.68593    34.084938   -227.17168    66.246622      46.7237      46.7237      46.7237           90           90           90     102002.7   -701.12155 
  502000       501497    -6865.167    465.19085   -7330.3579    4200.6655   -11531.023    90.209185   -898.67366   -1044.5501   -1470.8165   -6.1919691    167.01696    120.89307      46.7237      46.7237      46.7237           90           90           90     102002.7   -1138.0134 
  503000       502497   -6839.0296    476.06912   -7315.0988    4230.6571   -11545.756    92.318685   -280.13326   -812.98055   -586.24434    134.51558    -4.674736    45.359493      46.7237      46.7237      46.7237           90           90           90     102002.7   -559.78605 
  504000       503497   -6856.0432    478.42067   -7334.4638    4201.8744   -11536.338    92.774694   -967.82647   -702.15063   -771.97282    283.95376   -81.327139    70.964896      46.7237      46.7237      46.7237           90           90           90     102002.7   -813.98331 
  505000       504497   -6858.9677    473.06485   -7332.0326    4223.2839   -11555.316    91.736101    -642.2458   -230.28791   -759.68551    7.0116816    284.49312   -182.23476      46.7237      46.7237      46.7237           90           90           90     102002.7   -544.07308 
  506000       505497   -6833.4345    483.92723   -7317.3617     4210.777   -11528.139    93.842519   -505.26477    -226.8027   -293.07024   -151.37162   -184.32437    250.83029      46.7237      46.7237      46.7237           90           90           90     102002.7   -341.71257 
  507000       506497   -6868.9972    469.25677    -7338.254    4207.7952   -11546.049    90.997642   -837.85819   -891.72362   -695.63363    -125.2678    86.492441   -23.939135      46.7237      46.7237      46.7237           90           90           90     102002.7   -808.40515 
  508000       507497   -6844.0027    463.60117   -7307.6039      4238.08   -11545.684    89.900917   -118.68336   -405.92279   -665.39958    53.361388    19.268836   -231.14868      46.7237      46.7237      46.7237           90           90           90     102002.7   -396.66858 
  509000       508497   -6861.7131    464.41013   -7326.1232    4228.4603   -11554.584    90.057789   -1190.3678   -1151.4181   -644.82404     109.1405    65.133099   -46.829333      46.7237      46.7237      46.7237           90           90           90     102002.7   -995.53664 
  510000       509497   -6874.6589    453.99805   -7328.6569    4224.8621   -11553.519    88.038692   -826.27695   -77.219509   -182.13062    273.93997   -34.134741   -133.12683      46.7237      46.7237      46.7237           90           90           90     102002.7   -361.87569 
  511000       510497   -6853.3352    475.55374    -7328.889     4202.382   -11531.271    92.218742   -647.14193   -741.46881   -780.16109   -18.512184   -65.565194   -74.251783      46.7237      46.7237      46.7237           90           90           90     102002.7   -722.92394 
  512000       511497   -6883.7543    458.55593   -7342.3102    4210.7414   -11553.052    88.922551   -716.91584     -882.743   -625.70142    166.69808   -165.08198   -21.295086      46.7237      46.7237      46.7237           90           90           90     102002.7   -741.78675 
  513000       512497   -6860.4292    469.56396   -7329.9932    4216.8137   -11546.807    91.057213   -813.09009   -241.54319   -509.41309    81.750359    166.61503    9.7352969      46.7237      46.7237      46.7237           90           90           90     102002.7   -521.34879 
  514000       513497   -6851.8662    481.65511   -7333.5213    4230.2679   -11563.789    93.401911   -683.46194    -574.5017   -775.50159   -28.226925   -30.019427   -160.45508      46.7237      46.7237      46.7237           90           90           90     102002.7   -677.82174 
  515000       514497   -6870.0947     460.7592   -7330.8539    4221.2023   -11552.056    89.349806   -750.35729   -520.50822    -370.8959   -98.804417   -345.56419    34.722037      46.7237      46.7237      46.7237           90           90           90     102002.7    -547.2538 
  516000       515497   -6864.4449     459.2546   -7323.6995    4219.8269   -11543.526    89.058036   -900.42031   -714.03442   -772.05906   -54.545628    6.2773183   -132.85347      46.7237      46.7237      46.7237           90           90           90     102002.7    -795.5046 
  517000       516497   -6841.5741    477.16998   -7318.7441    4246.2262    -11564.97    92.532161   -283.32024    -763.5055   -516.08555    9.0060154   -91.139236   -122.05901      46.7237      46.7237      46.7237           90           90           90     102002.7   -520.97043 
  518000       517497   -6862.4183    469.66131   -7332.0796    4215.3647   -11547.444     91.07609    -1194.164   -772.88892   -720.62647   -119.84273    57.948933   -221.86544      46.7237      46.7237      46.7237           90           90           90     102002.7   -895.89312 
  519000       518497   -6871.0776    461.95639    -7333.034    4229.5884   -11562.622    89.581962   -779.92901   -351.69678    -502.4704     87.10718    59.146509    134.78596      46.7237      46.7237      46.7237           90           90           90     102002.7   -544.69873 
  520000       519497    -6862.615    472.41024   -7335.0252    4202.2867   -11537.312     91.60916   -530.48333   -589.85455   -430.39868    110.55677   -70.615184    -194.7072      46.7237      46.7237      46.7237           90           90           90     102002.7   -516.91219 
  521000       520497   -6861.8655    464.79963   -7326.6651    4214.6374   -11541.303    90.133319   -591.95485   -488.44873   -896.58153   -10.510106   -155.38729    -32.78843      46.7237      46.7237      46.7237           90           90           90     102002.7   -658.99504 
  522000       521497   -6858.6078    458.87671   -7317.4845    4220.2886   -11537.773    88.984755    -682.1731   -404.56147   -207.26673   -34.860055    52.138982    128.63513      46.7237      46.7237      46.7237           90           90           90     102002.7   -431.33377 
  523000       522497   -6865.0894    455.42783   -7320.5172    4239.2217   -11559.739    88.315953    -1149.924   -813.27122   -1205.8442   -31.089156    115.48868   -231.30916      46.7237      46.7237      46.7237           90           90           90     102002.7   -1056.3465 
  524000       523497   -6842.2035    465.24147    -7307.445    4223.1351    -11530.58    90.219001   -542.54255   -606.74323   -187.28907    231.73243   -141.95288    102.24825      46.7237      46.7237      46.7237           90           90           90     102002.7   -445.52495 
  525000       524497   -6861.3917    483.07139   -7344.4631    4198.8838   -11543.347    93.676555   -544.02085   -615.43233   -449.72998   -73.380852   -181.69039   -14.980906      46.7237      46.7237      46.7237           90           90           90     102002.7   -536.39439 
  526000       525497   -6866.5824    462.14019   -7328.7226    4227.7785   -11556.501    89.617605   -817.21185   -798.79789   -922.10296   -120.08426   -125.79915   -69.231719      46.7237      46.7237      46.7237           90           90           90     102002.7   -846.03756 
  527000       526497   -6847.3169    476.49784   -7323.8148    4232.7569   -11556.572    92.401822   -549.98991   -811.42822   -502.61927    47.999714   -92.138883    62.831377      46.7237      46.7237      46.7237           90           90           90     102002.7    -621.3458 
  528000       527497   -6874.9284    465.25824   -7340.1866    4200.1162   -11540.303    90.222252    -938.3685   -570.65882   -588.31046    12.038978    131.25001   -309.10361      46.7237      46.7237      46.7237           90           90           90     102002.7   -699.11259 
  529000       528497   -6844.2379    476.29598   -7320.5338    4213.0999   -11533.634    92.362677   -450.21005   -381.20894   -543.33144    -232.3056    43.314076   -158.41789      46.7237      46.7237      46.7237           90           90           90     102002.7   -458.25014 
  530000       529497   -6865.1016    469.34327   -7334.4449    4216.8045   -11551.249    91.014417   -650.15894   -828.00151   -923.70807   -74.683003    85.304806    119.04222      46.7237      46.7237      46.7237           90           90           90     102002.7   -800.62284 
  531000       530497   -6884.7127    453.46739   -7338.1801    4208.0239   -11546.204    87.935788   -602.44932   -785.48439   -345.46332    138.02682    184.01692    257.32604      46.7237      46.7237      46.7237           90           90           90     102002.7   -577.79901 
  532000       531497   -6852.6816    472.90416   -7325.5857    4228.0365   -11553.622    91.704939   -1035.0358   -709.27171   -503.58941    230.99921    299.73776   -31.676088      46.7237      46.7237      46.7237           90           90           90     102002.7   -749.29896 
  533000       532497   -6881.8623    478.49279   -7360.3551    4194.6261   -11554.981    92.788679   -955.10942   -866.72202   -538.33695    64.912922    106.78735   -64.249838      46.7237      46.7237      46.7237           90           90           90     102002.7    -786.7228 
  534000       533497     -6868.25    474.53366   -7342.7837    4193.8258    -11536.61     92.02093   -422.68445   -850.28512   -821.03609    236.76209    108.97204    37.029903      46.7237      46.7237      46.7237           90           90           90     102002.7   -698.00189 
  535000       534497   -6850.7061    459.21318   -7309.9193    4233.2046   -11543.124    89.050003   -1023.4113   -703.12357   -749.52051    209.77025    144.28197   -153.27979      46.7237      46.7237      46.7237           90           90           90     102002.7    -825.3518 
  536000       535497    -6874.407    458.49455   -7332.9015    4220.0577   -11552.959    88.910648   -876.49062   -407.84158   -892.43219    145.53013   -105.00286   -124.88573      46.7237      46.7237      46.7237           90           90           90     102002.7   -725.58813 
  537000       536497   -6845.0481    479.48918   -7324.5372    4229.0246   -11553.562    92.981898   -771.69662   -855.87293    -1033.931    -90.91092   -96.075477   -168.48295      46.7237      46.7237      46.7237           90           90           90     102002.7   -887.16685 
  538000       537497   -6856.5033    467.73382   -7324.2372    4221.6951   -11545.932    90.702315   -862.87739   -509.38446   -696.33761   -77.914683    212.58201   -7.5480234      46.7237      46.7237      46.7237           90           90           90     102002.7   -689.53315 
  539000       538497   -6884.9668    454.15725    -7339.124    4219.6904   -11558.814    88.069564   -1082.4925   -434.55606   -479.25062    210.86122    183.91532      135.586      46.7237      46.7237      46.7237           90           90           90     102002.7   -665.43306 
  540000       539497   -6861.5671    465.92421   -7327.4913    4224.6186    -11552.11    90.351397   -615.51291   -489.62897   -483.81603   -13.934757    55.135947    -17.98885      46.7237      46.7237      46.7237           90           90           90     102002.7   -529.65264 
  541000       540497   -6868.5957    459.51917   -7328.1149    4221.3248    -11549.44     89.10934   -1112.5382   -523.83671   -450.42956   -13.958827    147.28837   -1.2839215      46.7237      46.7237      46.7237           90           90           90     102002.7   -695.60149 
  542000       541497   -6846.4897    496.78846   -7343.2782    4191.2993   -11534.577    96.336551   -522.01305    -574.9647     -275.877   -95.206606    16.640901   -114.80905      46.7237      46.7237      46.7237           90           90           90     102002.7   -457.61825 
  543000       542497   -6882.6651    457.79459   -7340.4597    4201.8023   -11542.262    88.774913   -319.36994   -329.23395   -801.93113    62.452471   -209.00075   -116.94981      46.7237      46.7237      46.7237           90           90           90     102002.7   -483.51167 
  544000       543497   -6864.4433    474.59139   -7339.0347     4191.632   -11530.667    92.032125   -533.71404   -599.73398   -524.76464    146.88135   -97.656187    113.40285      46.7237      46.7237      46.7237           90           90           90     102002.7   -552.73755 
  545000       544497   -6859.5285    468.41116   -7327.9397    4226.9675   -11554.907    90.833662   -629.49889   -276.08272   -511.10957    17.691355    6.3820306   -162.09074      46.7237      46.7237      46.7237           90           90           90     102002.7   -472.23039 
  546000       545497   -6877.5689    475.69133   -7353.2603    4198.2093    -11551.47    92.245424   -692.77949   -198.73881   -831.23453    -171.3301    48.696101    27.822436      46.7237      46.7237      46.7237           90           90           90     102002.7   -574.25094 
  547000       546497   -6862.6385    470.82738   -7333.4658    4203.6023   -11537.068    91.302213    5.8125556   -790.18637   -539.41469   -69.988365    128.71935    29.924177      46.7237      46.7237      46.7237           90           90           90     102002.7   -441.26284 
  548000       547497   -6861.4185    470.33755    -7331.756    4215.8523   -11547.608    91.207226   -749.92674    -883.9614    -782.9799   -17.548111    101.34818   -234.75385      46.7237      46.7237      46.7237           90           90           90     102002.7   -805.62268 
  549000       548497   -6860.1416    465.00773   -7325.1493    4227.1693   -11552.319    90.173675   -728.31456    -927.9052   -1253.8684   -61.486244     117.6615    -107.2872      46.7237      46.7237      46.7237           90           90           90     102002.7    -970.0294 
  550000       549497   -6881.1876    461.35635    -7342.544     4209.411   -11551.955    89.465604   -638.28218   -238.28567   -917.81508   -112.13419   -114.70458    123.60163      46.7237      46.7237      46.7237           90           90           90     102002.7   -598.12764 
  551000       550497    -6856.026    467.93848   -7323.9645    4217.8573   -11541.822    90.742002   -631.08283    -500.3879     -728.618    163.76146   -37.558643    4.0683501      46.7237      46.7237      46.7237           90           90           90     102002.7   -620.02958 
  552000       551497    -6859.525    469.84522   -7329.3702    4215.0725   -11544.443    91.111754   -544.40447   -165.65919   -284.65856     121.6771    16.278137    117.21758      46.7237      46.7237      46.7237           90           90           90     102002.7   -331.57407 
  553000       552497   -6876.0908    467.13284   -7343.2236    4197.3189   -11540.543    90.585773   -752.88026   -265.04411    -285.5625    243.40987   -23.176433   -70.459139      46.7237      46.7237      46.7237           90           90           90     102002.7   -434.49562 
  554000       553497   -6852.5789    468.42132   -7321.0002    4217.0955   -11538.096    90.835633   -256.96225    -426.5492   -446.16776    69.444344   -143.71727   -80.466341      46.7237      46.7237      46.7237           90           90           90     102002.7   -376.55974 
  555000       554497   -6863.0925    472.09537   -7335.1879    4215.5337   -11550.722      91.5481   -667.42421   -792.62247    -613.3185   -246.44309   -172.26377   -84.996923      46.7237      46.7237      46.7237           90           90           90     102002.7   -691.12173 
[...]
  936000       935497   -6848.4818    457.41858   -7305.9004    4253.9548   -11559.855    88.701997   -1034.0671   -648.34529   -1151.7417    18.182592   -124.43893   -17.573672      46.7237      46.7237      46.7237           90           90           90     102002.7   -944.71802 
  937000       936497   -6862.2488    476.87547   -7339.1243    4203.8121   -11542.936    92.475051   -509.85916   -579.14827   -266.83374    3.4237282    114.88989    -15.56093      46.7237      46.7237      46.7237           90           90           90     102002.7   -451.94706 
  938000       937497   -6887.4842    449.96892   -7337.4532    4208.8381   -11546.291    87.257369   -723.56441   -546.33006   -1076.1482    130.24478   -64.683991    108.41752      46.7237      46.7237      46.7237           90           90           90     102002.7   -782.01421 
  939000       938497   -6848.6643    473.72448   -7322.3888    4222.7672   -11545.156    91.864016   -587.48059   -165.07445   -363.71196   -114.12348  -0.55460991   -58.521067      46.7237      46.7237      46.7237           90           90           90     102002.7     -372.089 
  940000       939497   -6876.5171    463.17058   -7339.6877    4215.3767   -11555.064    89.817417   -946.00934   -898.86501   -629.41696    44.034055    46.217898    115.67588      46.7237      46.7237      46.7237           90           90           90     102002.7   -824.76377 
  941000       940497   -6870.5317    462.11855   -7332.6502    4209.2881   -11541.938    89.613408   -848.86015   -956.90443    -1011.371    84.138101    232.27913    244.42647      46.7237      46.7237      46.7237           90           90           90     102002.7   -939.04519 
  942000       941497    -6874.213    467.06546   -7341.2785    4188.8212     -11530.1    90.572707   -744.69605   -720.48208   -878.39788   -1.3078963    49.793639    159.80328      46.7237      46.7237      46.7237           90           90           90     102002.7     -781.192 
  943000       942497   -6856.8446     477.6992   -7334.5438     4219.711   -11554.255    92.634788   -802.81643   -654.42609   -739.19598    276.51747   -62.280698    195.71044      46.7237      46.7237      46.7237           90           90           90     102002.7   -732.14617 
  944000       943497   -6868.5178    458.44177   -7326.9596    4215.0009    -11541.96    88.900413   -787.11182   -732.08773   -1024.8555    23.943415    258.09824    63.490934      46.7237      46.7237      46.7237           90           90           90     102002.7   -848.01834 
  945000       944497   -6865.3089    469.36033   -7334.6692    4220.0182   -11554.687    91.017724   -741.25658   -898.53383   -829.35463   -167.54919    214.33477    193.64384      46.7237      46.7237      46.7237           90           90           90     102002.7   -823.04835 
  946000       945497   -6863.1256    473.11321   -7336.2388    4199.1521   -11535.391    91.745478   -1065.6204   -646.23486   -662.65202   -278.37849   -149.25833   -154.59976      46.7237      46.7237      46.7237           90           90           90     102002.7   -791.50242 
  947000       946497   -6859.4586    473.01925   -7332.4779    4212.3487   -11544.827    91.727258     -619.858   -714.59598   -510.30394    208.66827    40.699239   -26.282024      46.7237      46.7237      46.7237           90           90           90     102002.7    -614.9193 
  948000       947497   -6870.3368    471.45474   -7341.7916    4215.3714   -11557.163    91.423869   -551.11919   -617.93604   -1091.8012    21.737547   -169.70457   -111.05325      46.7237      46.7237      46.7237           90           90           90     102002.7   -753.61882 
  949000       948497   -6876.9756    457.36255   -7334.3382    4204.0327   -11538.371    88.691132   -657.76071   -683.01769   -1046.2156   -186.97421    38.856464   -147.79431      46.7237      46.7237      46.7237           90           90           90     102002.7   -795.66468 
  950000       949497   -6848.7733    466.12932   -7314.9026    4213.9819   -11528.885    90.391173   -638.82893   -809.98546   -1033.3995   -37.968464   -27.927836   -147.66334      46.7237      46.7237      46.7237           90           90           90     102002.7   -827.40462 
  951000       950497   -6865.3018    465.23993   -7330.5417    4212.7498   -11543.292    90.218702   -715.67148   -570.42973   -434.68982    20.591995    174.08046   -304.43651      46.7237      46.7237      46.7237           90           90           90     102002.7   -573.59701 
  952000       951497   -6859.4887    478.79281   -7338.2816    4229.8946   -11568.176    92.846859    -752.8771   -584.29226   -456.81734    109.94704    61.128899   -100.92307      46.7237      46.7237      46.7237           90           90           90     102002.7   -597.99557 
  953000       952497   -6859.8248    459.52324    -7319.348    4224.1886   -11543.537     89.11013    -834.8263   -371.46187   -530.91281   -126.99777   -91.478158   -126.39653      46.7237      46.7237      46.7237           90           90           90     102002.7   -579.06699 
  954000       953497   -6854.2941    485.89894    -7340.193     4204.312   -11544.505    94.224871   -336.22486   -411.72237   -496.90435    81.075673    24.924561   -225.56393      46.7237      46.7237      46.7237           90           90           90     102002.7   -414.95053 
  955000       954497   -6865.1715    468.81169   -7333.9832    4203.7458   -11537.729    90.911334   -767.83715   -1058.1744   -451.38563   -91.955377   -51.537698    97.306573      46.7237      46.7237      46.7237           90           90           90     102002.7    -759.1324 
  956000       955497   -6864.9287    466.49888   -7331.4275    4241.6369   -11573.064    90.462837   -680.71444   -605.92621    -811.2473   -153.19674      88.3812   -83.965923      46.7237      46.7237      46.7237           90           90           90     102002.7   -699.29598 
  957000       956497   -6851.9583    475.54706   -7327.5054    4209.7492   -11537.255    92.217448   -517.37385   -946.53298   -494.26661     44.41195   -223.80652   -9.0367406      46.7237      46.7237      46.7237           90           90           90     102002.7   -652.72448 
  958000       957497   -6861.7521    469.91992    -7331.672    4218.3458   -11550.018    91.126239   -598.94625   -431.71848   -527.12756   -126.18375    101.34966    140.43314      46.7237      46.7237      46.7237           90           90           90     102002.7   -519.26409 
  959000       958497   -6851.7033    459.64378    -7311.347    4235.1599   -11546.507    89.133504   -773.58329   -733.74453   -477.19712     49.75431   -65.462115   -158.00882      46.7237      46.7237      46.7237           90           90           90     102002.7   -661.50832 
  960000       959497   -6862.8305    465.42586   -7328.2564    4212.6884   -11540.945    90.254757   -707.69935   -532.40917   -846.89629    136.53337   -98.464181    146.04759      46.7237      46.7237      46.7237           90           90           90     102002.7   -695.66827 
  961000       960497   -6827.4293    489.68691   -7317.1162    4225.3994   -11542.516    94.959429   -791.40872   -1100.4492   -771.98816   -1.8015193     37.49566    43.397506      46.7237      46.7237      46.7237           90           90           90     102002.7   -887.94869 
  962000       961497   -6863.1591    461.08176   -7324.2409    4209.5691    -11533.81    89.412356   -329.12621   -1191.4419   -618.19735   -13.049088    58.454461     308.8912      46.7237      46.7237      46.7237           90           90           90     102002.7   -712.92181 
  963000       962497   -6871.5933    458.53817   -7330.1314    4215.5337   -11545.665    88.919107   -665.75218   -1126.3263   -455.72948    73.481402   -46.435211    85.193789      46.7237      46.7237      46.7237           90           90           90     102002.7   -749.26932 
  964000       963497   -6846.2027    475.93693   -7322.1396    4212.3487   -11534.488     92.29305   -871.29991   -823.07448   -690.06544    11.102109    93.531508    15.714174      46.7237      46.7237      46.7237           90           90           90     102002.7   -794.81328 
  965000       964497   -6871.9083    457.74913   -7329.6574    4227.6154   -11557.273    88.766096   -633.00743   -1053.9437   -505.21173    189.98556   -42.596573   -77.085503      46.7237      46.7237      46.7237           90           90           90     102002.7   -730.72096 
  966000       965497    -6871.331    450.80173   -7322.1328    4221.4844   -11543.617    87.418866    -934.0623    -1083.813   -1007.2654   -23.083822   -81.944924    281.80813      46.7237      46.7237      46.7237           90           90           90     102002.7   -1008.3802 
  967000       966497    -6846.398    468.89283   -7315.2909    4236.2358   -11551.527    90.927068   -946.60626   -691.62213   -1115.8784   -86.788788    209.09231    49.473853      46.7237      46.7237      46.7237           90           90           90     102002.7    -918.0356 
  968000       967497   -6877.1559    461.06702   -7338.2229    4189.3719   -11527.595    89.409497   -219.33794   -1151.4595   -918.46442    -67.85219   -156.07724   -57.279836      46.7237      46.7237      46.7237           90           90           90     102002.7   -763.08729 
  969000       968497   -6853.4626    472.22987   -7325.6925    4223.8115   -11549.504    91.574183    -735.3012   -1361.2735   -762.71582    110.49332    53.482389   -27.767036      46.7237      46.7237      46.7237           90           90           90     102002.7   -953.09684 
  970000       969497   -6873.1334     465.5383   -7338.6717    4207.1973   -11545.869    90.276562   -1014.0694   -938.39066   -912.18219   -5.6355384   -109.23189    3.7401688      46.7237      46.7237      46.7237           90           90           90     102002.7   -954.88075 
  971000       970497   -6859.1468    472.47693   -7331.6238    4226.7795   -11558.403    91.622092   -536.79353   -1045.2358   -1017.6677    137.36878    -8.281952   -17.736246      46.7237      46.7237      46.7237           90           90           90     102002.7   -866.56567 
  972000       971497   -6864.3631    481.25852   -7345.6216     4203.994   -11549.616    93.325007   -718.49665   -549.91871   -850.08504   -36.400515   -153.44922    102.38296      46.7237      46.7237      46.7237           90           90           90     102002.7    -706.1668 
  973000       972497   -6882.4571    444.95231   -7327.4094    4228.6213   -11556.031    86.284554   -367.33864   -938.06361   -891.85299   -9.2206449    179.34461     136.2094      46.7237      46.7237      46.7237           90           90           90     102002.7   -732.41841 
  974000       973497   -6861.5476    471.22026   -7332.7679    4204.5316   -11537.299      91.3784   -43.215968   -371.39658   -851.88801   -4.5187438   -233.52358    175.07412      46.7237      46.7237      46.7237           90           90           90     102002.7   -422.16685 
  975000       974497   -6849.6529    477.22799   -7326.8809    4232.5295    -11559.41    92.543412   -582.28039   -144.95215   -939.31805    -102.1218   -29.202597   -28.358831      46.7237      46.7237      46.7237           90           90           90     102002.7   -555.51686 
  976000       975497   -6863.2992    464.29835   -7327.5975    4217.4102   -11545.008    90.036112   -477.50918   -659.75427   -580.16066    15.800943    53.115128    175.35253      46.7237      46.7237      46.7237           90           90           90     102002.7    -572.4747 
  977000       976497   -6845.2831     487.5284   -7332.8115     4214.438   -11547.249    94.540853   -563.52696   -638.18826   -583.33044   -106.33686   -234.50052    52.478976      46.7237      46.7237      46.7237           90           90           90     102002.7   -595.01522 
  978000       977497   -6866.1488    462.55973   -7328.7085     4216.548   -11545.256    89.698962   -502.34214   -784.53978   -298.77042   -5.3012585     205.8665    44.523113      46.7237      46.7237      46.7237           90           90           90     102002.7   -528.55078 
  979000       978497   -6842.6172    476.22814   -7318.8454    4221.7669   -11540.612    92.349522   -375.77578   -115.80982   -444.70589    261.59094   -150.80119    24.209587      46.7237      46.7237      46.7237           90           90           90     102002.7   -312.09716 
  980000       979497   -6854.6529    466.31499   -7320.9679    4229.7513   -11550.719    90.427177    -821.5047   -595.58265   -459.46611   -19.798614   -29.236025    -126.3823      46.7237      46.7237      46.7237           90           90           90     102002.7   -625.51782 
  981000       980497   -6848.5197    468.83431    -7317.354    4214.4562    -11531.81    90.915721   -610.59246   -355.23735   -571.03817   -210.14106   -54.533699   -161.85735      46.7237      46.7237      46.7237           90           90           90     102002.7   -512.28933 
  982000       981497   -6868.1025    459.60153   -7327.7041    4211.4667   -11539.171    89.125311   -480.71261   -319.59576    -595.3099     106.3898    69.631012   -223.80904      46.7237      46.7237      46.7237           90           90           90     102002.7   -465.20609 
  983000       982497    -6865.866    461.12223   -7326.9882    4225.9807   -11552.969    89.420204   -627.97785   -318.50154   -264.01447   -39.929806    10.378051   -89.816076      46.7237      46.7237      46.7237           90           90           90     102002.7   -403.49795 
  984000       983497   -6847.3365    468.57923   -7315.9157    4234.7348    -11550.65    90.866255   -790.03499   -601.09554   -699.06522   -45.600977    177.27324   -91.554223      46.7237      46.7237      46.7237           90           90           90     102002.7   -696.73192 
  985000       984497   -6867.5377    467.92178   -7335.4594    4210.0833   -11545.543    90.738764   -460.51759   -860.13696   -526.73211   -89.798566   -25.047382    9.6576136      46.7237      46.7237      46.7237           90           90           90     102002.7   -615.79556 
  986000       985497   -6854.4469    464.88983   -7319.3368    4241.8627   -11561.199    90.150811   -528.54271   -577.29322   -227.19108    110.79239    70.287021   -45.873669      46.7237      46.7237      46.7237           90           90           90     102002.7   -444.34234 
  987000       986497   -6876.7106    473.01866   -7349.7293     4189.057   -11538.786    91.727143   -612.05555   -467.26924   -283.18021    -176.7106    4.9672519    46.305025      46.7237      46.7237      46.7237           90           90           90     102002.7   -454.16833 
  988000       987497   -6872.1484    470.10472   -7342.2531    4216.0691   -11558.322    91.162076   -150.03001   -612.01352   -642.11932   -56.520632    53.113967    216.90325      46.7237      46.7237      46.7237           90           90           90     102002.7   -468.05428 
  989000       988497   -6848.4012    484.20332   -7332.6046    4206.4724   -11539.077    93.896058   -501.95442   -991.78814   -302.43933    66.628094    35.161566   -73.660775      46.7237      46.7237      46.7237           90           90           90     102002.7    -598.7273 
  990000       989497   -6866.8054    465.94638   -7332.7518     4203.124   -11535.876    90.355696    -703.2145   -695.13631   -370.21626   -89.213317    120.32526    283.88624      46.7237      46.7237      46.7237           90           90           90     102002.7   -589.52236 
  991000       990497   -6858.8471    479.21842   -7338.0655    4222.3991   -11560.465    92.929393   -791.83751   -660.43054   -973.87267    30.059457     37.30272   -46.331725      46.7237      46.7237      46.7237           90           90           90     102002.7   -808.71357 
  992000       991497   -6879.8295    455.33104   -7335.1605    4204.4842   -11539.645    88.297184   -324.91819    -798.9095   -434.84002    36.807324   -76.772862   -175.44366      46.7237      46.7237      46.7237           90           90           90     102002.7    -519.5559 
  993000       992497    -6832.987    480.86336   -7313.8504    4230.7653   -11544.616    93.248376   -752.30443   -705.52479   -596.01298    131.60868    5.2983569     35.81625      46.7237      46.7237      46.7237           90           90           90     102002.7   -684.61407 
  994000       993497   -6863.4409    468.33093   -7331.7718    4225.1474   -11556.919    90.818105   -647.65439   -632.27035   -303.80759    167.28279   -19.180585    2.7987565      46.7237      46.7237      46.7237           90           90           90     102002.7   -527.91078 
  995000       994497   -6867.5085    470.85513   -7338.3636    4209.7594   -11548.123    91.307594   -518.06364    -730.3954   -503.08058   -129.30809    30.213492    4.3011489      46.7237      46.7237      46.7237           90           90           90     102002.7   -583.84654 
  996000       995497   -6862.2046    470.05601   -7332.2606    4224.1561   -11556.417    91.152631   -896.54524    -727.4614   -581.36929   -3.4016119    241.12566   -111.31087      46.7237      46.7237      46.7237           90           90           90     102002.7   -735.12531 
  997000       996497   -6861.0306    470.29318   -7331.3238    4209.8756   -11541.199    91.198623   -724.55789   -960.28887   -988.78466    117.46249    -69.00413    21.638152      46.7237      46.7237      46.7237           90           90           90     102002.7   -891.21047 
  998000       997497   -6857.6644    466.70065    -7324.365    4227.5939   -11551.959    90.501963   -596.94681   -821.31144   -650.26808   -63.557963   -45.863409    238.38695      46.7237      46.7237      46.7237           90           90           90     102002.7   -689.50878 
  999000       998497   -6879.4964    464.80133   -7344.2978    4196.0793   -11540.377    90.133651   -617.54191   -506.89911   -648.43146     8.040177    90.445703    69.127135      46.7237      46.7237      46.7237           90           90           90     102002.7   -590.95749 
 1000000       999497   -6853.9411    476.98703   -7330.9282    4220.0583   -11550.986    92.496685   -899.37343   -458.84154   -904.07765    74.374864   -149.43312    32.116666      46.7237      46.7237      46.7237           90           90           90     102002.7   -754.09754 
 1000503      1000000   -6852.8985    469.59799   -7322.4965    4220.8271   -11543.324    91.063812   -429.62788   -431.07779   -438.91142   -61.738001    138.00503    72.887787      46.7237      46.7237      46.7237           90           90           90     102002.7    -433.2057 
Loop time of 1412.78 on 16 procs for 500000 steps with 1731 atoms

Performance: 30.578 ns/day, 0.785 hours/ns, 353.912 timesteps/s
99.8% CPU use with 16 MPI tasks x no OpenMP threads

MPI task timing breakdown:
Section |  min time  |  avg time  |  max time  |%varavg| %total
---------------------------------------------------------------
Pair    | 571.5      | 765.38     | 954.95     | 473.4 | 54.18
Bond    | 173.05     | 183.26     | 191.08     |  38.3 | 12.97
Neigh   | 2.6798     | 2.6917     | 2.7072     |   0.5 |  0.19
Comm    | 243.28     | 434.15     | 624.71     | 626.3 | 30.73
Output  | 0.096307   | 0.10138    | 0.1018     |   0.4 |  0.01
Modify  | 21.459     | 21.852     | 22.162     |   5.1 |  1.55
Other   |            | 5.342      |            |       |  0.38

Nlocal:    108.188 ave 144 max 77 min
Histogram: 1 1 3 2 3 2 0 1 2 1
Nghost:    2199.81 ave 2238 max 2163 min
Histogram: 2 1 1 1 3 2 2 3 0 1
Neighs:    11447 ave 16765 max 7223 min
Histogram: 2 2 3 1 1 1 2 2 1 1

Total # of neighbors = 183152
Ave neighs/atom = 105.807
Ave special neighs/atom = 6.65511
Neighbor list builds = 2384
Dangerous builds = 0
Total wall time: 0:44:47
