LAMMPS (30 Mar 2018)
Reading data file ...
  orthogonal box = (0 0 0) to (46.7237 46.7237 46.7237)
  2 by 2 by 4 MPI processor grid
  reading atoms ...
  2082 atoms
  scanning bonds ...
  5 = max bonds/atom
  scanning angles ...
  10 = max angles/atom
  scanning dihedrals ...
  32 = max dihedrals/atom
  scanning impropers ...
  3 = max impropers/atom
  reading bonds ...
  2064 bonds
  reading angles ...
  3696 angles
  reading dihedrals ...
  6240 dihedrals
  reading impropers ...
  1008 impropers
Finding 1-2 1-3 1-4 neighbors ...
  special bond factors lj:   0          0          0         
  special bond factors coul: 0          0          0         
  5 = max # of 1-2 neighbors
  8 = max # of 1-3 neighbors
  20 = max # of 1-4 neighbors
  19 = max # of special neighbors
Finding 1-2 1-3 1-4 neighbors ...
  special bond factors lj:   0          0          1         
  special bond factors coul: 1          1          1         
  5 = max # of 1-2 neighbors
  8 = max # of 1-3 neighbors
  19 = max # of special neighbors
WARNING: Using 'neigh_modify every 1 delay 0 check yes' setting during minimization (../min.cpp:168)
Neighbor list info ...
  update every 1 steps, delay 0 steps, check yes
  max neighbors/atom: 2000, page size: 100000
  master list distance cutoff = 16
  ghost atom cutoff = 16
  binsize = 8, bins = 6 6 6
  3 neighbor lists, perpetual/occasional/extra = 3 0 0
  (1) pair buck6d/coul/gauss/dsf, perpetual, skip from (3)
      attributes: half, newton on
      pair build: skip
      stencil: none
      bin: none
  (2) pair lj/cut, perpetual, skip from (3)
      attributes: half, newton on
      pair build: skip
      stencil: none
      bin: none
  (3) neighbor class addition, perpetual
      attributes: half, newton on
      pair build: half/bin/newton
      stencil: half/bin/3d/newton
      bin: standard
Setting up cg style minimization ...
  Unit style    : real
  Current step  : 0
WARNING: Inconsistent image flags (../domain.cpp:786)
Per MPI rank memory allocation (min/avg/max) = 22.92 | 23.37 | 23.81 Mbytes
Step Temp E_pair E_mol TotEng Press 
       0            0   -12663.642    6482.8914   -6180.7501    6091.0372 
     501            0   -12763.598    3735.2727   -9028.3256   -697.15544 
Loop time of 3.0387 on 16 procs for 501 steps with 2082 atoms

99.8% CPU use with 16 MPI tasks x no OpenMP threads

Minimization stats:
  Stopping criterion = max force evaluations
  Energy initial, next-to-last, final = 
        -6180.75008066     -9028.28303532     -9028.32557224
  Force two-norm initial, final = 2574 9.37945
  Force max component initial, final = 151.876 1.6164
  Final line search alpha, max atom move = 0.00516628 0.0083508
  Iterations, force evaluations = 501 1001

MPI task timing breakdown:
Section |  min time  |  avg time  |  max time  |%varavg| %total
---------------------------------------------------------------
Pair    | 1.4967     | 1.8716     | 2.2928     |  20.8 | 61.59
Bond    | 0.27818    | 0.35954    | 0.44215    |   6.2 | 11.83
Neigh   | 0.022877   | 0.023031   | 0.023265   |   0.1 |  0.76
Comm    | 0.34925    | 0.74583    | 1.1355     |  32.4 | 24.54
Output  | 0          | 0          | 0          |   0.0 |  0.00
Modify  | 0          | 0          | 0          |   0.0 |  0.00
Other   |            | 0.03869    |            |       |  1.27

Nlocal:    130.125 ave 146 max 116 min
Histogram: 1 2 1 2 2 1 4 2 0 1
Nghost:    2529 ave 2543 max 2509 min
Histogram: 1 0 1 2 2 3 1 2 1 3
Neighs:    11453.3 ave 15394 max 7675 min
Histogram: 1 4 1 1 1 1 2 2 2 1

Total # of neighbors = 183253
Ave neighs/atom = 88.0178
Ave special neighs/atom = 5.53314
Neighbor list builds = 14
Dangerous builds = 0
Neighbor list info ...
  update every 1 steps, delay 10 steps, check yes
  max neighbors/atom: 2000, page size: 100000
  master list distance cutoff = 16
  ghost atom cutoff = 16
  binsize = 8, bins = 6 6 6
  3 neighbor lists, perpetual/occasional/extra = 3 0 0
  (1) pair buck6d/coul/gauss/dsf, perpetual, skip from (3)
      attributes: half, newton on
      pair build: skip
      stencil: none
      bin: none
  (2) pair lj/cut, perpetual, skip from (3)
      attributes: half, newton on
      pair build: skip
      stencil: none
      bin: none
  (3) neighbor class addition, perpetual
      attributes: half, newton on
      pair build: half/bin/newton
      stencil: half/bin/3d/newton
      bin: standard
Setting up Verlet run ...
  Unit style    : real
  Current step  : 501
  Time step     : 1
WARNING: Inconsistent image flags (../domain.cpp:786)
Per MPI rank memory allocation (min/avg/max) = 22.56 | 22.63 | 22.69 Mbytes
Step Temp PotEng TotEng Press Volume Lx Ly Lz 
     501           91   -9028.3256   -8463.8466   -444.18548     102002.7      46.7237      46.7237      46.7237 
    1000    77.595965   -8524.3359    -8043.003   -693.40464     102002.7      46.7237      46.7237      46.7237 
    2000    94.391772    -8447.884   -7862.3657   -549.96917     102002.7      46.7237      46.7237      46.7237 
    3000    90.386059    -8429.779   -7869.1083   -867.57866     102002.7      46.7237      46.7237      46.7237 
    4000    89.676819   -8422.5076   -7866.2364   -647.87424     102002.7      46.7237      46.7237      46.7237 
    5000    90.677961   -8449.3061   -7886.8247   -894.05928     102002.7      46.7237      46.7237      46.7237 
    6000    87.973842   -8437.7585   -7892.0509   -566.24242     102002.7      46.7237      46.7237      46.7237 
    7000    91.318774   -8439.4761   -7873.0197   -791.51969     102002.7      46.7237      46.7237      46.7237 
    8000    91.359365   -8432.3465   -7865.6384   -775.77821     102002.7      46.7237      46.7237      46.7237 
    9000    92.278351   -8438.8687     -7866.46   -648.13476     102002.7      46.7237      46.7237      46.7237 
   10000    93.841879    -8439.707   -7857.5997   -919.27507     102002.7      46.7237      46.7237      46.7237 
   11000    90.633363   -8429.4859   -7867.2811   -591.69026     102002.7      46.7237      46.7237      46.7237 
   12000    90.337973   -8443.1831   -7882.8107   -908.17236     102002.7      46.7237      46.7237      46.7237 
   13000     90.28902   -8425.4469   -7865.3782   -945.82087     102002.7      46.7237      46.7237      46.7237 
   14000    93.745823   -8443.7288   -7862.2173   -760.58125     102002.7      46.7237      46.7237      46.7237 
   15000    91.685616    -8426.965   -7858.2331   -961.61547     102002.7      46.7237      46.7237      46.7237 
   16000    92.174341   -8425.9925    -7854.229   -793.65669     102002.7      46.7237      46.7237      46.7237 
   17000    89.972164   -8442.9339   -7884.8306   -787.11102     102002.7      46.7237      46.7237      46.7237 
   18000    92.278084   -8438.0403   -7865.6333   -758.97804     102002.7      46.7237      46.7237      46.7237 
   19000    92.439107   -8424.5417   -7851.1359   -533.26854     102002.7      46.7237      46.7237      46.7237 
   20000    92.317599   -8428.6571    -7856.005   -649.83247     102002.7      46.7237      46.7237      46.7237 
   21000    91.618663   -8449.4095   -7881.0929   -699.75004     102002.7      46.7237      46.7237      46.7237 
   22000    89.678917   -8418.9023   -7862.6181   -769.05148     102002.7      46.7237      46.7237      46.7237 
   23000    86.578084   -8440.9913   -7903.9418   -718.62312     102002.7      46.7237      46.7237      46.7237 
   24000    89.984047   -8432.5285   -7874.3515   -717.06505     102002.7      46.7237      46.7237      46.7237 
   25000    90.808339   -8453.4441    -7890.154    -776.7932     102002.7      46.7237      46.7237      46.7237 
   26000    91.535048   -8438.0908   -7870.2929   -723.52543     102002.7      46.7237      46.7237      46.7237 
   27000    91.537873    -8418.142   -7850.3265   -692.73667     102002.7      46.7237      46.7237      46.7237 
   28000    89.645366    -8441.087   -7885.0109     -612.041     102002.7      46.7237      46.7237      46.7237 
   29000    91.663845   -8451.9605   -7883.3637   -721.53252     102002.7      46.7237      46.7237      46.7237 
   30000    93.641411   -8438.6876   -7857.8237    -880.8351     102002.7      46.7237      46.7237      46.7237 
   31000    89.634183   -8461.8699   -7905.8632   -578.28916     102002.7      46.7237      46.7237      46.7237 
   32000    89.716695   -8431.9806    -7875.462   -977.17629     102002.7      46.7237      46.7237      46.7237 
   33000    91.096193   -8452.8517    -7887.776   -699.19553     102002.7      46.7237      46.7237      46.7237 
   34000    89.565879   -8454.0359   -7898.4529    -689.8516     102002.7      46.7237      46.7237      46.7237 
   35000    92.384853    -8440.127   -7867.0577   -648.44585     102002.7      46.7237      46.7237      46.7237 
   36000    90.109167   -8460.6834   -7901.7303   -431.99129     102002.7      46.7237      46.7237      46.7237 
   37000    92.014611   -8431.4203   -7860.6476   -698.57331     102002.7      46.7237      46.7237      46.7237 
   38000    92.278154   -8450.8849   -7878.4775    -465.8045     102002.7      46.7237      46.7237      46.7237 
   39000    91.929271   -8439.5234   -7869.2801   -788.31859     102002.7      46.7237      46.7237      46.7237 
   40000    89.811536   -8456.2643   -7899.1574   -664.08532     102002.7      46.7237      46.7237      46.7237 
   41000    90.111314   -8431.4671   -7872.5007   -855.40396     102002.7      46.7237      46.7237      46.7237 
   42000    91.698102    -8440.336   -7871.5266   -860.85346     102002.7      46.7237      46.7237      46.7237 
   43000    91.245861   -8436.6548   -7870.6507   -725.84484     102002.7      46.7237      46.7237      46.7237 
   44000     92.82848   -8442.0861   -7866.2649   -887.59363     102002.7      46.7237      46.7237      46.7237 
   45000    92.282936   -8435.1339   -7862.6968   -919.05137     102002.7      46.7237      46.7237      46.7237 
   46000    91.170544   -8424.6523   -7859.1154   -796.91706     102002.7      46.7237      46.7237      46.7237 
   47000    90.097866   -8444.2368   -7885.3538   -743.30435     102002.7      46.7237      46.7237      46.7237 
   48000    89.848111   -8428.0734   -7870.7397   -805.37326     102002.7      46.7237      46.7237      46.7237 
   49000    89.025358   -8425.4517   -7873.2216   -763.80398     102002.7      46.7237      46.7237      46.7237 
   50000    90.750043     -8455.87   -7892.9415   -554.24633     102002.7      46.7237      46.7237      46.7237 
   51000    95.302177   -8443.8839   -7852.7182   -628.91961     102002.7      46.7237      46.7237      46.7237 
   52000    89.734337    -8423.005    -7866.377   -639.18367     102002.7      46.7237      46.7237      46.7237 
   53000    91.467205   -8452.9501    -7885.573   -930.60713     102002.7      46.7237      46.7237      46.7237 
   54000    91.692771   -8432.5172   -7863.7409     -920.261     102002.7      46.7237      46.7237      46.7237 
   55000    90.377974   -8446.8812   -7886.2607   -482.19297     102002.7      46.7237      46.7237      46.7237 
   56000    92.408061   -8431.3364   -7858.1231   -763.89157     102002.7      46.7237      46.7237      46.7237 
   57000    93.394886   -8437.6402   -7858.3056   -319.16059     102002.7      46.7237      46.7237      46.7237 
   58000    90.423801   -8446.3314   -7885.4267   -570.39089     102002.7      46.7237      46.7237      46.7237 
   59000    91.200363   -8439.6328   -7873.9109   -737.17408     102002.7      46.7237      46.7237      46.7237 
   60000     90.48612   -8440.1264   -7878.8351   -542.12983     102002.7      46.7237      46.7237      46.7237 
   61000    94.014932   -8455.2694   -7872.0885    -767.7455     102002.7      46.7237      46.7237      46.7237 
   62000    89.330735   -8446.3036   -7892.1792   -642.79303     102002.7      46.7237      46.7237      46.7237 
   63000    89.216163   -8460.6094   -7907.1956   -736.90252     102002.7      46.7237      46.7237      46.7237 
   64000     91.63498   -8432.1478     -7863.73   -888.74549     102002.7      46.7237      46.7237      46.7237 
   65000    89.580064   -8448.3029   -7892.6318   -712.86249     102002.7      46.7237      46.7237      46.7237 
   66000    89.959662   -8431.9556   -7873.9299   -917.97309     102002.7      46.7237      46.7237      46.7237 
   67000    92.862179   -8452.9127   -7876.8825   -615.49015     102002.7      46.7237      46.7237      46.7237 
   68000    91.018716   -8435.2458   -7870.6507   -679.06802     102002.7      46.7237      46.7237      46.7237 
   69000    92.683791   -8421.4443   -7846.5206   -750.04838     102002.7      46.7237      46.7237      46.7237 
   70000    91.448093   -8451.3512   -7884.0927   -555.21315     102002.7      46.7237      46.7237      46.7237 
   71000    91.733662   -8420.3447   -7851.3148   -860.19671     102002.7      46.7237      46.7237      46.7237 
   72000     89.03289   -8435.1962   -7882.9193   -694.11767     102002.7      46.7237      46.7237      46.7237 
   73000    91.815128   -8425.0768   -7855.5416   -713.51693     102002.7      46.7237      46.7237      46.7237 
   74000    88.983459   -8437.3833   -7885.4131   -875.98218     102002.7      46.7237      46.7237      46.7237 
   75000    90.666703   -8442.2422   -7879.8307    -634.7605     102002.7      46.7237      46.7237      46.7237 
   76000    92.029881   -8434.9813   -7864.1139   -550.72133     102002.7      46.7237      46.7237      46.7237 
   77000    89.360066   -8459.1695   -7904.8632   -870.23604     102002.7      46.7237      46.7237      46.7237 
   78000     88.59774   -8437.8613   -7888.2837   -721.57296     102002.7      46.7237      46.7237      46.7237 
   79000     89.40543    -8444.556   -7889.9683   -899.56021     102002.7      46.7237      46.7237      46.7237 
   80000    94.330438   -8415.6078   -7830.4699   -479.29428     102002.7      46.7237      46.7237      46.7237 
   81000      90.1723    -8444.639   -7885.2943   -698.62888     102002.7      46.7237      46.7237      46.7237 
   82000    89.433403   -8415.8393    -7861.078   -604.42061     102002.7      46.7237      46.7237      46.7237 
   83000    90.817157   -8433.3775   -7870.0327   -804.84202     102002.7      46.7237      46.7237      46.7237 
   84000    94.257898   -8442.6982   -7858.0103   -935.13806     102002.7      46.7237      46.7237      46.7237 
   85000    90.409217   -8446.6656   -7885.8513   -617.08902     102002.7      46.7237      46.7237      46.7237 
   86000    91.430019   -8432.2352   -7865.0888   -798.38476     102002.7      46.7237      46.7237      46.7237 
   87000     90.78215   -8451.6528   -7888.5251    -848.5628     102002.7      46.7237      46.7237      46.7237 
   88000     91.36053   -8429.5551   -7862.8398   -603.42342     102002.7      46.7237      46.7237      46.7237 
   89000    92.777463   -8421.7628   -7846.2581   -930.29254     102002.7      46.7237      46.7237      46.7237 
   90000    92.311223   -8453.7664   -7881.1538   -793.08319     102002.7      46.7237      46.7237      46.7237 
   91000    90.461855   -8424.4563   -7863.3155   -927.35519     102002.7      46.7237      46.7237      46.7237 
   92000    89.932113   -8440.4901   -7882.6353   -714.11878     102002.7      46.7237      46.7237      46.7237 
   93000    93.892761   -8442.3895   -7859.9665   -1040.7368     102002.7      46.7237      46.7237      46.7237 
   94000     88.18894   -8419.8965   -7872.8547   -934.46102     102002.7      46.7237      46.7237      46.7237 
   95000    92.918996   -8418.2187   -7841.8361   -634.25019     102002.7      46.7237      46.7237      46.7237 
   96000    89.552248    -8435.152   -7879.6535   -785.56568     102002.7      46.7237      46.7237      46.7237 
   97000    88.683895   -8436.3699   -7886.2579   -786.10402     102002.7      46.7237      46.7237      46.7237 
   98000    90.515782   -8425.8272   -7864.3519   -666.32173     102002.7      46.7237      46.7237      46.7237 
   99000    92.102476   -8413.5705   -7842.2528   -910.83167     102002.7      46.7237      46.7237      46.7237 
  100000     91.03511   -8438.1909   -7873.4942   -689.93252     102002.7      46.7237      46.7237      46.7237 
  101000     89.09934   -8442.7479   -7890.0588   -814.93365     102002.7      46.7237      46.7237      46.7237 
  102000    95.834003   -8428.0651   -7833.6005   -669.42255     102002.7      46.7237      46.7237      46.7237 
  103000    92.358583   -8441.7805   -7868.8742   -690.76787     102002.7      46.7237      46.7237      46.7237 
  104000    93.114145   -8416.1015   -7838.5083   -870.11711     102002.7      46.7237      46.7237      46.7237 
  105000    91.423515   -8446.2032   -7879.0971   -561.39379     102002.7      46.7237      46.7237      46.7237 
  106000    92.960382    -8439.491   -7862.8516   -836.24287     102002.7      46.7237      46.7237      46.7237 
  107000    95.309121   -8427.3888   -7836.1801   -651.30104     102002.7      46.7237      46.7237      46.7237 
  108000     89.56697    -8441.412   -7885.8222   -497.29293     102002.7      46.7237      46.7237      46.7237 
  109000    89.638647   -8437.6171   -7881.5827   -805.24272     102002.7      46.7237      46.7237      46.7237 
  110000    89.880585   -8432.8591   -7875.3239   -656.48868     102002.7      46.7237      46.7237      46.7237 
  111000    92.891217   -8429.4963    -7853.286   -949.26043     102002.7      46.7237      46.7237      46.7237 
  112000    88.232109   -8432.7882   -7885.4786   -1104.8887     102002.7      46.7237      46.7237      46.7237 
  113000    92.090296   -8431.9857   -7860.7436   -619.55084     102002.7      46.7237      46.7237      46.7237 
  114000    93.471384   -8450.7168   -7870.9076   -963.78598     102002.7      46.7237      46.7237      46.7237 
  115000    87.914951   -8413.5568   -7868.2146   -949.27572     102002.7      46.7237      46.7237      46.7237 
  116000    90.665584    -8419.589   -7857.1844   -711.93569     102002.7      46.7237      46.7237      46.7237 
  117000    91.443702   -8417.3073    -7850.076   -868.04726     102002.7      46.7237      46.7237      46.7237 
  118000    90.652291   -8425.0602   -7862.7381   -812.87916     102002.7      46.7237      46.7237      46.7237 
  119000    88.067409   -8433.3904   -7887.1025   -744.88285     102002.7      46.7237      46.7237      46.7237 
  120000    91.731323   -8421.8533   -7852.8379   -896.07373     102002.7      46.7237      46.7237      46.7237 
  121000    90.977154   -8443.7168   -7879.3795   -818.43719     102002.7      46.7237      46.7237      46.7237 
  122000    92.031957    -8438.349   -7867.4687   -826.75017     102002.7      46.7237      46.7237      46.7237 
  123000    91.404391   -8417.0291   -7850.0416   -786.18392     102002.7      46.7237      46.7237      46.7237 
  124000    90.192468   -8431.2386   -7871.7688   -624.94902     102002.7      46.7237      46.7237      46.7237 
  125000    88.825279   -8423.8561   -7872.8671   -781.52946     102002.7      46.7237      46.7237      46.7237 
  126000    91.597144   -8424.1119   -7855.9288   -787.51485     102002.7      46.7237      46.7237      46.7237 
  127000    89.918606   -8457.9437   -7900.1726   -1079.7372     102002.7      46.7237      46.7237      46.7237 
  128000    92.202794   -8433.2016   -7861.2616    -1072.646     102002.7      46.7237      46.7237      46.7237 
  129000    92.535963    -8448.989   -7874.9823    -999.1878     102002.7      46.7237      46.7237      46.7237 
  130000    92.053888   -8415.5419   -7844.5256   -814.17238     102002.7      46.7237      46.7237      46.7237 
  131000    92.927069   -8426.2421   -7849.8094   -777.29173     102002.7      46.7237      46.7237      46.7237 
  132000    90.365559   -8435.8249   -7875.2814   -848.33693     102002.7      46.7237      46.7237      46.7237 
  133000    92.793511   -8430.2877   -7854.6834   -639.12953     102002.7      46.7237      46.7237      46.7237 
  134000    92.732035     -8428.07   -7852.8471   -723.75025     102002.7      46.7237      46.7237      46.7237 
  135000    90.772859    -8419.354    -7856.284   -767.39581     102002.7      46.7237      46.7237      46.7237 
  136000    92.564689   -8422.9776   -7848.7928   -815.67201     102002.7      46.7237      46.7237      46.7237 
  137000    89.619519   -8417.4265   -7861.5108   -1069.6952     102002.7      46.7237      46.7237      46.7237 
  138000    87.753284   -8428.1528   -7883.8134   -973.32133     102002.7      46.7237      46.7237      46.7237 
  139000     92.50435   -8428.3319   -7854.5214   -980.50606     102002.7      46.7237      46.7237      46.7237 
  140000    90.850868   -8412.8171   -7849.2632   -754.87082     102002.7      46.7237      46.7237      46.7237 
  141000    90.119501   -8419.9948   -7860.9776   -917.05178     102002.7      46.7237      46.7237      46.7237 
  142000    92.221898   -8435.1549   -7863.0964   -734.43127     102002.7      46.7237      46.7237      46.7237 
  143000    93.536166   -8433.8583   -7853.6473   -743.13836     102002.7      46.7237      46.7237      46.7237 
  144000    89.619533   -8445.0611   -7889.1452   -617.90476     102002.7      46.7237      46.7237      46.7237 
  145000      90.1224   -8410.8059   -7851.7707   -1004.7306     102002.7      46.7237      46.7237      46.7237 
  146000    88.252155   -8428.1592   -7880.7253   -499.39543     102002.7      46.7237      46.7237      46.7237 
  147000    91.801558    -8431.114   -7861.6629   -717.61667     102002.7      46.7237      46.7237      46.7237 
  148000    90.501601   -8436.9429   -7875.5555   -897.87283     102002.7      46.7237      46.7237      46.7237 
  149000     91.02607    -8444.303   -7879.6623   -726.61778     102002.7      46.7237      46.7237      46.7237 
  150000    90.790248   -8425.9953   -7862.8174   -899.09554     102002.7      46.7237      46.7237      46.7237 
  151000    92.124215   -8406.2129   -7834.7603   -837.86241     102002.7      46.7237      46.7237      46.7237 
  152000    90.030631   -8401.3279    -7842.862   -858.98357     102002.7      46.7237      46.7237      46.7237 
  153000    91.083832   -8430.3925   -7865.3935   -950.97364     102002.7      46.7237      46.7237      46.7237 
  154000    88.367764   -8432.7178   -7884.5668   -764.94231     102002.7      46.7237      46.7237      46.7237 
  155000     90.75221    -8431.398   -7868.4561   -656.57795     102002.7      46.7237      46.7237      46.7237 
  156000     90.57726   -8444.6397   -7882.7831   -976.05957     102002.7      46.7237      46.7237      46.7237 
  157000    90.419162   -8427.3942   -7866.5182   -604.03602     102002.7      46.7237      46.7237      46.7237 
  158000    91.803815   -8422.1957   -7852.7306   -1090.8277     102002.7      46.7237      46.7237      46.7237 
  159000    88.492218   -8434.1513   -7885.2282   -698.55137     102002.7      46.7237      46.7237      46.7237 
  160000    91.808152   -8421.1315   -7851.6395   -921.90735     102002.7      46.7237      46.7237      46.7237 
  161000    90.990163   -8424.8228   -7860.4049   -1022.0537     102002.7      46.7237      46.7237      46.7237 
  162000    90.772632   -8424.3411   -7861.2725   -631.46451     102002.7      46.7237      46.7237      46.7237 
  163000      90.1787   -8423.1131   -7863.7287   -1165.1715     102002.7      46.7237      46.7237      46.7237 
  164000    91.837942   -8424.4783   -7854.8015   -967.54539     102002.7      46.7237      46.7237      46.7237 
  165000    91.132916   -8444.2868   -7878.9834   -792.38378     102002.7      46.7237      46.7237      46.7237 
  166000     90.60697   -8417.7226   -7855.6816   -1094.8245     102002.7      46.7237      46.7237      46.7237 
  167000    91.066418    -8419.407    -7854.516   -788.46696     102002.7      46.7237      46.7237      46.7237 
  168000    88.961928   -8439.6555   -7887.8188   -1111.4277     102002.7      46.7237      46.7237      46.7237 
  169000    90.763924   -8428.4491   -7865.4345   -703.44083     102002.7      46.7237      46.7237      46.7237 
  170000    91.596193   -8436.1027   -7867.9255   -875.39465     102002.7      46.7237      46.7237      46.7237 
  171000    91.681451   -8433.5069   -7864.8009    -811.4084     102002.7      46.7237      46.7237      46.7237 
  172000    91.325167   -8432.9803   -7866.4843    -808.8061     102002.7      46.7237      46.7237      46.7237 
  173000    90.545163   -8444.1849   -7882.5273   -690.95531     102002.7      46.7237      46.7237      46.7237 
  174000    92.923274   -8420.0596   -7843.6505   -925.90715     102002.7      46.7237      46.7237      46.7237 
  175000    90.961352   -8430.1627   -7865.9234   -585.57643     102002.7      46.7237      46.7237      46.7237 
  176000    92.655618    -8427.583   -7852.8341    -901.5011     102002.7      46.7237      46.7237      46.7237 
  177000    91.113044   -8423.7703   -7858.5901   -812.70392     102002.7      46.7237      46.7237      46.7237 
  178000    92.631096   -8436.9176   -7862.3209   -580.03765     102002.7      46.7237      46.7237      46.7237 
  179000    90.549464    -8442.847   -7881.1627   -819.31126     102002.7      46.7237      46.7237      46.7237 
  180000    91.725722   -8444.3311   -7875.3504    -798.9407     102002.7      46.7237      46.7237      46.7237 
  181000    88.168197   -8422.2026   -7875.2895   -594.00322     102002.7      46.7237      46.7237      46.7237 
  182000    90.535607   -8411.7217   -7850.1234   -640.94412     102002.7      46.7237      46.7237      46.7237 
  183000    91.609257   -8423.8088   -7855.5506   -823.98183     102002.7      46.7237      46.7237      46.7237 
  184000    91.850401   -8420.0623   -7850.3082   -699.65641     102002.7      46.7237      46.7237      46.7237 
  185000    92.908714   -8432.9818   -7856.6629   -947.71286     102002.7      46.7237      46.7237      46.7237 
  186000    92.238971   -8434.2335   -7862.0691   -823.61507     102002.7      46.7237      46.7237      46.7237 
  187000    94.211611    -8425.159   -7840.7582   -879.28897     102002.7      46.7237      46.7237      46.7237 
  188000     92.54714   -8410.5678   -7836.4918   -733.67178     102002.7      46.7237      46.7237      46.7237 
  189000    91.621383    -8419.132   -7850.7985   -576.45658     102002.7      46.7237      46.7237      46.7237 
  190000    85.954813   -8424.8906   -7891.7072   -529.76832     102002.7      46.7237      46.7237      46.7237 
  191000    92.395511   -8435.8329   -7862.6975   -538.68211     102002.7      46.7237      46.7237      46.7237 
  192000    90.243841    -8434.077   -7874.2885   -563.74191     102002.7      46.7237      46.7237      46.7237 
  193000    91.364662   -8434.0828   -7867.3418   -708.37299     102002.7      46.7237      46.7237      46.7237 
  194000    91.159182   -8443.5508   -7878.0844   -635.05865     102002.7      46.7237      46.7237      46.7237 
  195000    91.359943   -8424.6365   -7857.9247   -1044.5987     102002.7      46.7237      46.7237      46.7237 
  196000    88.789269   -8414.0325   -7863.2668   -919.98705     102002.7      46.7237      46.7237      46.7237 
  197000    92.465437   -8409.6244   -7836.0552   -744.71809     102002.7      46.7237      46.7237      46.7237 
  198000    93.016905   -8443.8737   -7866.8837   -843.00381     102002.7      46.7237      46.7237      46.7237 
  199000    91.850845   -8424.1482   -7854.3914    -539.5571     102002.7      46.7237      46.7237      46.7237 
  200000    86.979695    -8421.111   -7881.5702   -857.26291     102002.7      46.7237      46.7237      46.7237 
  201000    90.860857   -8437.1839   -7873.5681   -780.65277     102002.7      46.7237      46.7237      46.7237 
  202000    91.066434   -8421.7292   -7856.8381   -705.33241     102002.7      46.7237      46.7237      46.7237 
  203000    93.697928   -8412.5327   -7831.3183   -738.61978     102002.7      46.7237      46.7237      46.7237 
  204000    91.509468     -8423.06   -7855.4207   -676.13004     102002.7      46.7237      46.7237      46.7237 
  205000    88.599867   -8432.6148    -7883.024   -850.41582     102002.7      46.7237      46.7237      46.7237 
  206000    89.066739   -8415.4094   -7862.9226   -945.42355     102002.7      46.7237      46.7237      46.7237 
  207000    91.093689   -8447.1626   -7882.1025   -788.12896     102002.7      46.7237      46.7237      46.7237 
  208000    91.989886   -8404.8739   -7834.2546   -883.80545     102002.7      46.7237      46.7237      46.7237 
  209000    90.622173   -8422.8431   -7860.7078   -660.99488     102002.7      46.7237      46.7237      46.7237 
  210000    93.913081   -8413.2983   -7830.7492   -706.71349     102002.7      46.7237      46.7237      46.7237 
  211000    91.698329   -8440.1025   -7871.2918   -667.85665     102002.7      46.7237      46.7237      46.7237 
  212000    91.479999    -8429.752   -7862.2955   -930.02497     102002.7      46.7237      46.7237      46.7237 
  213000    90.423054   -8414.5124   -7853.6123   -883.89003     102002.7      46.7237      46.7237      46.7237 
  214000    92.572501   -8406.8674   -7832.6341   -909.54191     102002.7      46.7237      46.7237      46.7237 
  215000    89.746023   -8442.2806   -7885.5802   -843.06017     102002.7      46.7237      46.7237      46.7237 
  216000    88.853981   -8416.9824   -7865.8153   -1015.7166     102002.7      46.7237      46.7237      46.7237 
  217000    91.360689   -8429.1675   -7862.4512   -927.85229     102002.7      46.7237      46.7237      46.7237 
  218000    90.932328   -8445.2733   -7881.2141   -569.10581     102002.7      46.7237      46.7237      46.7237 
  219000    89.266602   -8431.5242   -7877.7976   -669.96499     102002.7      46.7237      46.7237      46.7237 
  220000    92.163431   -8432.7925   -7861.0967   -646.20878     102002.7      46.7237      46.7237      46.7237 
  221000    91.044027   -8429.0321     -7864.28   -651.47671     102002.7      46.7237      46.7237      46.7237 
  222000    89.054085   -8436.9073    -7884.499   -915.48242     102002.7      46.7237      46.7237      46.7237 
  223000    91.045944   -8413.4579    -7848.694    -581.3796     102002.7      46.7237      46.7237      46.7237 
  224000    89.798392    -8438.068   -7881.0427   -746.11255     102002.7      46.7237      46.7237      46.7237 
  225000    90.032754   -8437.8265   -7879.3474    -1031.703     102002.7      46.7237      46.7237      46.7237 
  226000    91.793484   -8421.4285   -7852.0275   -858.30225     102002.7      46.7237      46.7237      46.7237 
  227000    91.593452   -8429.7917   -7861.6314   -847.55239     102002.7      46.7237      46.7237      46.7237 
  228000    89.224262   -8436.4412   -7882.9772   -726.47607     102002.7      46.7237      46.7237      46.7237 
  229000    92.119154   -8427.9856   -7856.5644   -1067.1326     102002.7      46.7237      46.7237      46.7237 
  230000    91.614285   -8433.5712   -7865.2818   -831.21688     102002.7      46.7237      46.7237      46.7237 
  231000    92.384075   -8428.8752   -7855.8107   -793.77258     102002.7      46.7237      46.7237      46.7237 
  232000    93.475463   -8425.3358   -7845.5013    -1058.222     102002.7      46.7237      46.7237      46.7237 
  233000    87.728258   -8479.1779   -7934.9938   -650.41503     102002.7      46.7237      46.7237      46.7237 
  234000    89.312535   -8424.2829   -7870.2714   -1082.6366     102002.7      46.7237      46.7237      46.7237 
  235000    91.979329   -8445.3732   -7874.8193   -788.84782     102002.7      46.7237      46.7237      46.7237 
  236000    92.498426   -8418.7808    -7845.007   -640.43175     102002.7      46.7237      46.7237      46.7237 
  237000    90.231168   -8440.7433   -7881.0334    -987.5721     102002.7      46.7237      46.7237      46.7237 
  238000    90.129048   -8435.6804    -7876.604   -586.94846     102002.7      46.7237      46.7237      46.7237 
  239000    91.378292   -8442.9719   -7876.1463   -691.98646     102002.7      46.7237      46.7237      46.7237 
  240000    92.061227   -8412.2889   -7841.2271    -642.6031     102002.7      46.7237      46.7237      46.7237 
  241000     89.70597   -8411.1807   -7854.7287   -647.17387     102002.7      46.7237      46.7237      46.7237 
  242000    90.566365   -8430.5363   -7868.7472   -1022.1389     102002.7      46.7237      46.7237      46.7237 
  243000    88.889361   -8417.7459   -7866.3594   -880.30148     102002.7      46.7237      46.7237      46.7237 
  244000    91.451895   -8440.0268   -7872.7447   -754.48617     102002.7      46.7237      46.7237      46.7237 
  245000     93.52112   -8443.5109   -7863.3932   -764.53945     102002.7      46.7237      46.7237      46.7237 
  246000    89.763643   -8430.9494   -7874.1397   -664.76725     102002.7      46.7237      46.7237      46.7237 
  247000    90.389919   -8419.6956    -7859.001   -630.19105     102002.7      46.7237      46.7237      46.7237 
  248000    90.318144    -8442.607   -7882.3577   -895.74879     102002.7      46.7237      46.7237      46.7237 
  249000    93.425294   -8422.8783   -7843.3551   -505.16619     102002.7      46.7237      46.7237      46.7237 
  250000    90.190775   -8443.9681   -7884.5088   -892.52294     102002.7      46.7237      46.7237      46.7237 
  251000    88.103669   -8434.7529     -7888.24     -618.295     102002.7      46.7237      46.7237      46.7237 
  252000    91.469237   -8437.8342   -7870.4445   -909.44575     102002.7      46.7237      46.7237      46.7237 
  253000    91.581515   -8430.9207   -7862.8345   -733.86885     102002.7      46.7237      46.7237      46.7237 
  254000    92.154184   -8448.1894    -7876.551   -859.29853     102002.7      46.7237      46.7237      46.7237 
  255000    91.968353   -8427.9748    -7857.489   -771.59941     102002.7      46.7237      46.7237      46.7237 
  256000    91.440506   -8441.8594    -7874.648   -847.35356     102002.7      46.7237      46.7237      46.7237 
  257000    91.751249   -8440.9739   -7871.8349   -516.41274     102002.7      46.7237      46.7237      46.7237 
  258000    91.212975   -8447.0312   -7881.2311   -715.38303     102002.7      46.7237      46.7237      46.7237 
  259000    91.108789   -8428.3418   -7863.1879   -795.19524     102002.7      46.7237      46.7237      46.7237 
  260000    89.781882   -8436.3044   -7879.3814   -818.55211     102002.7      46.7237      46.7237      46.7237 
  261000    91.741349   -8434.4068   -7865.3292   -938.76542     102002.7      46.7237      46.7237      46.7237 
  262000    92.846967   -8428.3182   -7852.3824   -605.50285     102002.7      46.7237      46.7237      46.7237 
  263000     90.57379   -8437.0362   -7875.2011   -1011.0247     102002.7      46.7237      46.7237      46.7237 
  264000     93.63519   -8431.8188   -7850.9935   -839.84013     102002.7      46.7237      46.7237      46.7237 
  265000     92.88465   -8436.2399   -7860.0703   -789.35788     102002.7      46.7237      46.7237      46.7237 
  266000    92.293451    -8441.093   -7868.5907   -914.14775     102002.7      46.7237      46.7237      46.7237 
  267000    88.090331   -8414.8835   -7868.4534   -863.03477     102002.7      46.7237      46.7237      46.7237 
  268000    92.028274   -8422.6727   -7851.8152   -747.91658     102002.7      46.7237      46.7237      46.7237 
  269000    92.313183   -8412.4355   -7839.8107   -816.57073     102002.7      46.7237      46.7237      46.7237 
  270000    85.936856   -8434.5654   -7901.4935   -668.96344     102002.7      46.7237      46.7237      46.7237 
  271000    92.717673   -8423.7312   -7848.5974   -917.09244     102002.7      46.7237      46.7237      46.7237 
  272000    93.837174   -8436.4816   -7854.4034   -797.03003     102002.7      46.7237      46.7237      46.7237 
  273000    91.408692   -8416.0465   -7849.0324   -1087.4809     102002.7      46.7237      46.7237      46.7237 
  274000    90.844898   -8431.4652   -7867.9483   -821.75206     102002.7      46.7237      46.7237      46.7237 
  275000    91.417432   -8437.7738   -7870.7054   -703.65952     102002.7      46.7237      46.7237      46.7237 
  276000    90.956478   -8433.5344   -7869.3254   -844.20128     102002.7      46.7237      46.7237      46.7237 
  277000    91.044269   -8436.4301   -7871.6765   -866.94937     102002.7      46.7237      46.7237      46.7237 
  278000    93.689406   -8404.1855    -7823.024   -896.81228     102002.7      46.7237      46.7237      46.7237 
  279000     91.60401   -8424.7774   -7856.5517   -790.45052     102002.7      46.7237      46.7237      46.7237 
  280000    89.726957   -8434.1152    -7877.533   -586.20343     102002.7      46.7237      46.7237      46.7237 
  281000    89.397314    -8441.988   -7887.4506   -644.68709     102002.7      46.7237      46.7237      46.7237 
  282000     90.63316    -8437.594   -7875.3905   -955.98231     102002.7      46.7237      46.7237      46.7237 
  283000    92.325256   -8431.9543   -7859.2547   -1025.5506     102002.7      46.7237      46.7237      46.7237 
  284000    92.078605   -8426.7367    -7855.567   -951.41416     102002.7      46.7237      46.7237      46.7237 
  285000    88.656364   -8460.3341   -7910.3929   -863.35694     102002.7      46.7237      46.7237      46.7237 
  286000    90.976399   -8414.5748   -7850.2422   -843.83727     102002.7      46.7237      46.7237      46.7237 
  287000     88.09474   -8435.4017   -7888.9443   -938.32212     102002.7      46.7237      46.7237      46.7237 
  288000    89.874117    -8428.259    -7870.764   -751.39772     102002.7      46.7237      46.7237      46.7237 
  289000    92.762474   -8417.2234   -7841.8117   -898.62386     102002.7      46.7237      46.7237      46.7237 
  290000    90.087876   -8425.4718   -7866.6507   -868.79594     102002.7      46.7237      46.7237      46.7237 
  291000    94.231091   -8438.1222   -7853.6006   -683.70802     102002.7      46.7237      46.7237      46.7237 
  292000    90.808348   -8441.4053   -7878.1151   -620.56779     102002.7      46.7237      46.7237      46.7237 
  293000    92.956889   -8418.2693   -7841.6516   -479.94818     102002.7      46.7237      46.7237      46.7237 
  294000    93.717204   -8439.6023   -7858.2683   -849.40167     102002.7      46.7237      46.7237      46.7237 
  295000    89.807822   -8428.7226   -7871.6387   -768.06251     102002.7      46.7237      46.7237      46.7237 
  296000    89.379137   -8423.2506   -7868.8259   -656.44374     102002.7      46.7237      46.7237      46.7237 
  297000    91.133985   -8430.0299   -7864.7198   -801.16467     102002.7      46.7237      46.7237      46.7237 
  298000    90.203154   -8426.6794   -7867.1433   -744.17775     102002.7      46.7237      46.7237      46.7237 
  299000    91.258974   -8438.0336   -7871.9481    -736.0401     102002.7      46.7237      46.7237      46.7237 
  300000    91.769959   -8412.8262   -7843.5711   -886.52823     102002.7      46.7237      46.7237      46.7237 
  301000    89.913887   -8420.7102   -7862.9685   -977.51525     102002.7      46.7237      46.7237      46.7237 
  302000    91.467113   -8418.0025    -7850.626   -996.55102     102002.7      46.7237      46.7237      46.7237 
  303000    90.147944   -8440.7089   -7881.5153   -1010.5028     102002.7      46.7237      46.7237      46.7237 
  304000     91.33767    -8439.888   -7873.3144    -917.8776     102002.7      46.7237      46.7237      46.7237 
  305000    95.934442   -8451.2389   -7856.1513    -968.0248     102002.7      46.7237      46.7237      46.7237 
  306000    92.516566    -8425.265   -7851.3787   -820.87721     102002.7      46.7237      46.7237      46.7237 
  307000    88.621457   -8423.7255   -7874.0008   -805.81928     102002.7      46.7237      46.7237      46.7237 
  308000    91.660742   -8438.7719   -7870.1943   -697.29009     102002.7      46.7237      46.7237      46.7237 
  309000    89.946107   -8428.7083   -7870.7667   -866.01088     102002.7      46.7237      46.7237      46.7237 
  310000    88.696276   -8412.2385   -7862.0496   -860.02746     102002.7      46.7237      46.7237      46.7237 
  311000    88.859427   -8427.2713   -7876.0705   -986.05109     102002.7      46.7237      46.7237      46.7237 
  312000    90.736949   -8427.4256   -7864.5783   -981.48703     102002.7      46.7237      46.7237      46.7237 
  313000    94.623773   -8414.2181   -7827.2606   -790.08641     102002.7      46.7237      46.7237      46.7237 
  314000    92.169421   -8421.0924   -7849.3595   -761.55338     102002.7      46.7237      46.7237      46.7237 
  315000     90.31764   -8439.9589   -7879.7126   -919.54279     102002.7      46.7237      46.7237      46.7237 
  316000    94.231352   -8427.1424   -7842.6191   -1013.0097     102002.7      46.7237      46.7237      46.7237 
  317000    92.705165   -8430.5862     -7855.53   -838.54769     102002.7      46.7237      46.7237      46.7237 
  318000    90.229122   -8427.0826   -7867.3854   -700.13933     102002.7      46.7237      46.7237      46.7237 
  319000    91.299496   -8434.9328   -7868.5961   -612.65413     102002.7      46.7237      46.7237      46.7237 
  320000    89.975022   -8416.5438   -7858.4228   -560.26215     102002.7      46.7237      46.7237      46.7237 
  321000    93.396694   -8423.0392   -7843.6933   -414.34127     102002.7      46.7237      46.7237      46.7237 
  322000    90.776639   -8426.4671   -7863.3736   -735.98176     102002.7      46.7237      46.7237      46.7237 
  323000    93.135121   -8422.8252   -7845.1019   -742.24468     102002.7      46.7237      46.7237      46.7237 
  324000    90.759054    -8434.096   -7871.1116   -636.48023     102002.7      46.7237      46.7237      46.7237 
  325000    91.709494   -8408.2149   -7839.3349   -930.55691     102002.7      46.7237      46.7237      46.7237 
  326000    93.146678   -8438.3789   -7860.5839   -576.19828     102002.7      46.7237      46.7237      46.7237 
  327000    88.563077   -8426.7766    -7877.414   -1077.0882     102002.7      46.7237      46.7237      46.7237 
  328000    91.867908   -8424.1297   -7854.2671   -866.06758     102002.7      46.7237      46.7237      46.7237 
  329000    90.056031   -8462.5632   -7903.9398   -799.39431     102002.7      46.7237      46.7237      46.7237 
  330000    91.222979    -8422.364   -7856.5018   -842.34703     102002.7      46.7237      46.7237      46.7237 
  331000    90.939388    -8430.402   -7866.2989   -604.06939     102002.7      46.7237      46.7237      46.7237 
  332000    89.345425   -8423.1641   -7868.9486   -964.66407     102002.7      46.7237      46.7237      46.7237 
  333000    89.306462   -8425.0647   -7871.0909   -865.71512     102002.7      46.7237      46.7237      46.7237 
  334000     91.50191   -8436.0111   -7868.4187   -1031.6274     102002.7      46.7237      46.7237      46.7237 
  335000    89.914827   -8421.1464   -7863.3988   -887.37541     102002.7      46.7237      46.7237      46.7237 
  336000    92.201384   -8407.6585   -7835.7273    -713.4046     102002.7      46.7237      46.7237      46.7237 
  337000    90.075334   -8431.7736   -7873.0304   -801.56679     102002.7      46.7237      46.7237      46.7237 
  338000    92.144577   -8429.6893   -7858.1104   -985.54299     102002.7      46.7237      46.7237      46.7237 
  339000    91.048325    -8433.111   -7868.3322   -898.96375     102002.7      46.7237      46.7237      46.7237 
  340000     93.49718   -8429.8606   -7849.8915   -988.23975     102002.7      46.7237      46.7237      46.7237 
  341000    89.911299   -8432.6099   -7874.8842   -999.51025     102002.7      46.7237      46.7237      46.7237 
  342000    90.835498   -8459.4884   -7896.0299   -965.48319     102002.7      46.7237      46.7237      46.7237 
  343000    90.816187   -8424.5983   -7861.2595   -777.84154     102002.7      46.7237      46.7237      46.7237 
  344000    91.693976   -8438.1699   -7869.3861   -956.15437     102002.7      46.7237      46.7237      46.7237 
  345000    91.747343    -8416.749   -7847.6342   -632.98533     102002.7      46.7237      46.7237      46.7237 
  346000    90.349034   -8445.1024   -7884.6614   -657.78882     102002.7      46.7237      46.7237      46.7237 
  347000    91.972796   -8422.6109   -7852.0976   -707.44887     102002.7      46.7237      46.7237      46.7237 
  348000    91.174166   -8423.6434    -7858.084   -1080.7629     102002.7      46.7237      46.7237      46.7237 
  349000    91.616479   -8428.8508   -7860.5477   -974.77736     102002.7      46.7237      46.7237      46.7237 
  350000    91.301924   -8439.6169   -7873.2651   -944.48975     102002.7      46.7237      46.7237      46.7237 
  351000    92.666398   -8426.2346   -7851.4189   -634.41782     102002.7      46.7237      46.7237      46.7237 
  352000    90.241901   -8426.1279   -7866.3514   -857.10051     102002.7      46.7237      46.7237      46.7237 
  353000    91.413746   -8414.6063   -7847.5609   -689.05945     102002.7      46.7237      46.7237      46.7237 
  354000    88.622617   -8427.7979    -7878.066   -497.08664     102002.7      46.7237      46.7237      46.7237 
  355000    90.557955   -8429.7826   -7868.0457   -1156.4599     102002.7      46.7237      46.7237      46.7237 
  356000    89.935267   -8421.2015   -7863.3271   -789.73874     102002.7      46.7237      46.7237      46.7237 
  357000    91.369586   -8437.9532   -7871.1817   -672.43611     102002.7      46.7237      46.7237      46.7237 
  358000    91.653527   -8424.3454   -7855.8126   -1001.7637     102002.7      46.7237      46.7237      46.7237 
  359000    89.487895   -8445.1493     -7890.05   -734.64982     102002.7      46.7237      46.7237      46.7237 
  360000    91.986198   -8432.2204    -7861.624   -1112.5034     102002.7      46.7237      46.7237      46.7237 
  361000    90.312447   -8414.1679   -7853.9539   -771.14158     102002.7      46.7237      46.7237      46.7237 
  362000    91.215341    -8419.533   -7853.7183   -822.56087     102002.7      46.7237      46.7237      46.7237 
  363000    91.520473   -8406.4143   -7838.7068   -902.12584     102002.7      46.7237      46.7237      46.7237 
  364000    89.599945    -8436.263   -7880.4686   -605.76268     102002.7      46.7237      46.7237      46.7237 
  365000    92.695552   -8433.0491   -7858.0525   -1098.0249     102002.7      46.7237      46.7237      46.7237 
  366000    89.828831    -8403.285   -7846.0709   -993.79481     102002.7      46.7237      46.7237      46.7237 
  367000    88.461283   -8447.0379   -7898.3067   -927.18822     102002.7      46.7237      46.7237      46.7237 
  368000    92.244063   -8435.6355   -7863.4395   -766.49217     102002.7      46.7237      46.7237      46.7237 
  369000    92.041436   -8450.1411    -7879.202   -548.74938     102002.7      46.7237      46.7237      46.7237 
  370000    92.600968   -8438.2256   -7863.8157   -916.44865     102002.7      46.7237      46.7237      46.7237 
  371000    87.812476   -8440.1154   -7895.4088   -716.13166     102002.7      46.7237      46.7237      46.7237 
  372000    91.041094   -8437.0128   -7872.2789   -887.60346     102002.7      46.7237      46.7237      46.7237 
  373000    86.346383   -8428.7437   -7893.1314   -1099.2208     102002.7      46.7237      46.7237      46.7237 
  374000    91.093401   -8416.5989   -7851.5405   -795.47242     102002.7      46.7237      46.7237      46.7237 
  375000    93.181146   -8431.9202   -7853.9115   -923.42667     102002.7      46.7237      46.7237      46.7237 
  376000    92.304396   -8436.2777   -7863.7074   -784.81825     102002.7      46.7237      46.7237      46.7237 
  377000    88.278774   -8437.4923   -7889.8932   -772.90887     102002.7      46.7237      46.7237      46.7237 
  378000    93.336137   -8421.8476   -7842.8774   -623.55742     102002.7      46.7237      46.7237      46.7237 
  379000    94.744173   -8446.1629   -7858.4585   -592.35962     102002.7      46.7237      46.7237      46.7237 
  380000    88.895241   -8421.5202   -7870.0972     -770.774     102002.7      46.7237      46.7237      46.7237 
  381000    91.610038   -8438.6519   -7870.3888   -805.48429     102002.7      46.7237      46.7237      46.7237 
  382000    91.481641   -8426.4881   -7859.0214   -843.73011     102002.7      46.7237      46.7237      46.7237 
  383000    89.729671   -8434.5086   -7877.9096   -575.88398     102002.7      46.7237      46.7237      46.7237 
  384000    91.284813   -8426.8206   -7860.5749   -618.04316     102002.7      46.7237      46.7237      46.7237 
  385000    90.311683   -8445.8468   -7885.6375   -672.20208     102002.7      46.7237      46.7237      46.7237 
  386000    87.681845   -8426.4272    -7882.531   -714.25004     102002.7      46.7237      46.7237      46.7237 
  387000    89.661284   -8416.0232   -7859.8484   -840.19005     102002.7      46.7237      46.7237      46.7237 
  388000    92.859245   -8406.1044   -7830.0924   -719.29558     102002.7      46.7237      46.7237      46.7237 
  389000    91.371553   -8427.9139   -7861.1301   -676.19554     102002.7      46.7237      46.7237      46.7237 
  390000    90.689975   -8449.6925   -7887.1366   -711.66432     102002.7      46.7237      46.7237      46.7237 
  391000    92.309082   -8419.5014   -7846.9021   -588.21913     102002.7      46.7237      46.7237      46.7237 
  392000    92.311383   -8430.0135   -7857.3999   -652.61621     102002.7      46.7237      46.7237      46.7237 
  393000    89.831055   -8421.1784   -7863.9504   -738.01148     102002.7      46.7237      46.7237      46.7237 
  394000    93.400118   -8423.5111    -7844.144   -600.23977     102002.7      46.7237      46.7237      46.7237 
  395000    91.591011   -8432.1629   -7864.0179   -529.70432     102002.7      46.7237      46.7237      46.7237 
  396000    91.856941   -8416.7832   -7846.9886   -419.04812     102002.7      46.7237      46.7237      46.7237 
  397000    90.972335   -8428.7895   -7864.4822   -454.09319     102002.7      46.7237      46.7237      46.7237 
  398000    91.600884   -8433.2957   -7865.0894   -599.54818     102002.7      46.7237      46.7237      46.7237 
  399000    91.335821   -8430.1865   -7863.6244    -614.7832     102002.7      46.7237      46.7237      46.7237 
  400000    92.559641    -8431.125   -7856.9715   -756.21321     102002.7      46.7237      46.7237      46.7237 
  401000    90.269701   -8428.7581   -7868.8092   -775.63542     102002.7      46.7237      46.7237      46.7237 
  402000    91.093885   -8429.2205   -7864.1592   -745.76281     102002.7      46.7237      46.7237      46.7237 
  403000     90.73989   -8433.0529   -7870.1874   -817.26235     102002.7      46.7237      46.7237      46.7237 
  404000    90.990481   -8419.2256   -7854.8056    -850.5684     102002.7      46.7237      46.7237      46.7237 
  405000    94.598813   -8419.1454   -7832.3428   -958.25316     102002.7      46.7237      46.7237      46.7237 
  406000     90.39689   -8423.9415   -7863.2037   -954.56473     102002.7      46.7237      46.7237      46.7237 
  407000    92.851204   -8421.6786   -7845.7165   -582.97869     102002.7      46.7237      46.7237      46.7237 
  408000     92.59436   -8430.9373   -7856.5684   -687.81954     102002.7      46.7237      46.7237      46.7237 
  409000     90.90241   -8404.4656    -7840.592   -849.22045     102002.7      46.7237      46.7237      46.7237 
  410000    89.222621   -8427.4864   -7874.0326   -955.84856     102002.7      46.7237      46.7237      46.7237 
  411000    90.215051   -8402.4402   -7842.8303   -832.33261     102002.7      46.7237      46.7237      46.7237 
  412000    90.532229   -8424.0205   -7862.4431   -748.52827     102002.7      46.7237      46.7237      46.7237 
  413000    90.500615   -8433.1809   -7871.7997   -1067.6088     102002.7      46.7237      46.7237      46.7237 
  414000    94.687997   -8432.5784   -7845.2226   -1097.5394     102002.7      46.7237      46.7237      46.7237 
  415000     88.36097   -8408.4956   -7860.3867   -973.44798     102002.7      46.7237      46.7237      46.7237 
  416000    89.030839   -8431.5078   -7879.2436   -861.60767     102002.7      46.7237      46.7237      46.7237 
  417000    90.502266   -8438.4504   -7877.0589   -783.29702     102002.7      46.7237      46.7237      46.7237 
  418000    91.950683   -8432.9105   -7862.5344   -1029.5222     102002.7      46.7237      46.7237      46.7237 
  419000    88.592879   -8423.2943   -7873.7468   -1122.1084     102002.7      46.7237      46.7237      46.7237 
  420000    92.966019   -8428.1148   -7851.4405   -814.35249     102002.7      46.7237      46.7237      46.7237 
  421000    91.426687   -8431.9631   -7864.8374   -857.17671     102002.7      46.7237      46.7237      46.7237 
  422000    89.430932   -8424.5346   -7869.7886   -855.79408     102002.7      46.7237      46.7237      46.7237 
  423000    91.615712   -8428.0755   -7859.7772   -814.93995     102002.7      46.7237      46.7237      46.7237 
  424000    91.234235   -8419.6822   -7853.7503   -941.17241     102002.7      46.7237      46.7237      46.7237 
  425000    89.988361   -8424.7551   -7866.5514   -874.43085     102002.7      46.7237      46.7237      46.7237 
  426000    89.195683   -8452.9548   -7899.6681     -961.649     102002.7      46.7237      46.7237      46.7237 
  427000    85.856038   -8420.8094   -7888.2387    -783.1367     102002.7      46.7237      46.7237      46.7237 
  428000    91.127281   -8421.0203   -7855.7518   -971.68491     102002.7      46.7237      46.7237      46.7237 
  429000    88.791248   -8430.9384   -7880.1604   -904.19758     102002.7      46.7237      46.7237      46.7237 
  430000    90.139392   -8412.5663   -7853.4258   -924.97269     102002.7      46.7237      46.7237      46.7237 
  431000    91.842432   -8423.6662   -7853.9616   -1269.1641     102002.7      46.7237      46.7237      46.7237 
  432000    91.565418   -8427.0411   -7859.0548   -853.72056     102002.7      46.7237      46.7237      46.7237 
  433000    94.798283   -8434.7868   -7846.7468   -980.46966     102002.7      46.7237      46.7237      46.7237 
  434000    90.453187   -8421.1137   -7860.0266   -881.79429     102002.7      46.7237      46.7237      46.7237 
  435000    91.132076   -8427.6113    -7862.313   -725.58912     102002.7      46.7237      46.7237      46.7237 
  436000    90.340724   -8416.9348   -7856.5453   -1084.9753     102002.7      46.7237      46.7237      46.7237 
  437000    92.413567   -8420.6041   -7847.3567   -699.97792     102002.7      46.7237      46.7237      46.7237 
  438000    92.421139   -8429.7732   -7856.4788   -1015.2373     102002.7      46.7237      46.7237      46.7237 
  439000    89.893953   -8432.7544   -7875.1363   -947.11571     102002.7      46.7237      46.7237      46.7237 
  440000    90.915358   -8446.3053   -7882.3513   -615.40941     102002.7      46.7237      46.7237      46.7237 
  441000    89.086352   -8423.9835    -7871.375   -832.74855     102002.7      46.7237      46.7237      46.7237 
  442000    87.383917    -8413.175   -7871.1268   -811.80063     102002.7      46.7237      46.7237      46.7237 
  443000    90.115247   -8414.7449   -7855.7541   -774.25393     102002.7      46.7237      46.7237      46.7237 
  444000    90.220845   -8410.4395   -7850.7937   -533.40019     102002.7      46.7237      46.7237      46.7237 
  445000    92.064506   -8413.2345   -7842.1524   -859.35173     102002.7      46.7237      46.7237      46.7237 
  446000    92.098682    -8417.822   -7846.5278   -661.71929     102002.7      46.7237      46.7237      46.7237 
  447000    89.621588   -8420.3204   -7864.3918   -820.97804     102002.7      46.7237      46.7237      46.7237 
  448000    90.346013    -8444.259   -7883.8368   -708.56252     102002.7      46.7237      46.7237      46.7237 
  449000    89.305696   -8419.2257   -7865.2566   -706.60795     102002.7      46.7237      46.7237      46.7237 
  450000    89.726969   -8423.0713   -7866.4891   -990.03996     102002.7      46.7237      46.7237      46.7237 
  451000    89.759127   -8400.6553   -7843.8735   -837.70949     102002.7      46.7237      46.7237      46.7237 
  452000    91.839322   -8441.9701   -7872.2847   -689.75526     102002.7      46.7237      46.7237      46.7237 
  453000    92.760016   -8427.6457   -7852.2492   -569.89512     102002.7      46.7237      46.7237      46.7237 
  454000    90.158031   -8424.7637   -7865.5075    -755.5028     102002.7      46.7237      46.7237      46.7237 
  455000    91.027306   -8441.1537   -7876.5054    -631.9986     102002.7      46.7237      46.7237      46.7237 
  456000    92.722465   -8436.6163   -7861.4527   -648.37646     102002.7      46.7237      46.7237      46.7237 
  457000    96.161123    -8425.578   -7829.0842   -658.06899     102002.7      46.7237      46.7237      46.7237 
  458000    92.016121   -8418.2306   -7847.4486   -820.77303     102002.7      46.7237      46.7237      46.7237 
  459000    92.380591   -8424.6846   -7851.6417   -984.75031     102002.7      46.7237      46.7237      46.7237 
  460000    88.045341   -8412.3429   -7866.1918   -708.76996     102002.7      46.7237      46.7237      46.7237 
  461000    88.965675   -8417.4882   -7865.6283   -735.85436     102002.7      46.7237      46.7237      46.7237 
  462000    89.535987    -8430.304   -7874.9063   -873.80389     102002.7      46.7237      46.7237      46.7237 
  463000    91.860196   -8438.5205   -7868.7056   -749.58049     102002.7      46.7237      46.7237      46.7237 
  464000    92.355409   -8409.5998   -7836.7131   -826.59145     102002.7      46.7237      46.7237      46.7237 
  465000    91.617775   -8431.7427   -7863.4317   -887.28463     102002.7      46.7237      46.7237      46.7237 
  466000    90.575063   -8418.3675   -7856.5244   -828.79841     102002.7      46.7237      46.7237      46.7237 
  467000    88.567311    -8430.849   -7881.4602   -947.67257     102002.7      46.7237      46.7237      46.7237 
  468000    92.908255   -8423.6979   -7847.3819   -1117.7705     102002.7      46.7237      46.7237      46.7237 
  469000    92.914536   -8434.4282   -7858.0733   -855.13899     102002.7      46.7237      46.7237      46.7237 
  470000    89.938201   -8411.0864   -7853.1939   -1189.9294     102002.7      46.7237      46.7237      46.7237 
  471000    92.178096   -8412.5883   -7840.8015   -832.67775     102002.7      46.7237      46.7237      46.7237 
  472000     92.28078   -8410.4399   -7838.0161   -877.68264     102002.7      46.7237      46.7237      46.7237 
  473000    89.644345   -8414.6107   -7858.5409   -888.64593     102002.7      46.7237      46.7237      46.7237 
  474000    89.700374   -8421.9862   -7865.5689   -798.75248     102002.7      46.7237      46.7237      46.7237 
  475000    91.096284     -8428.17   -7863.0938   -923.03654     102002.7      46.7237      46.7237      46.7237 
  476000    91.125959   -8417.7736   -7852.5133   -887.49871     102002.7      46.7237      46.7237      46.7237 
  477000    92.317096   -8403.8545   -7831.2055   -905.23145     102002.7      46.7237      46.7237      46.7237 
  478000    92.782288   -8421.0869   -7845.5523   -949.94484     102002.7      46.7237      46.7237      46.7237 
  479000    86.818162   -8415.8906   -7877.3518   -654.49105     102002.7      46.7237      46.7237      46.7237 
  480000    90.404307   -8420.3473   -7859.5635    -896.1732     102002.7      46.7237      46.7237      46.7237 
  481000    88.806488    -8442.155   -7891.2825   -573.55127     102002.7      46.7237      46.7237      46.7237 
  482000     89.89577   -8413.9889   -7856.3595   -886.47482     102002.7      46.7237      46.7237      46.7237 
  483000    92.476945   -8406.5965   -7832.9559   -890.64443     102002.7      46.7237      46.7237      46.7237 
  484000    91.803288   -8427.1932   -7857.7314   -919.65311     102002.7      46.7237      46.7237      46.7237 
  485000    92.411951   -8427.4109   -7854.1735   -690.30009     102002.7      46.7237      46.7237      46.7237 
  486000    92.794387   -8408.0494   -7832.4397   -1045.6878     102002.7      46.7237      46.7237      46.7237 
  487000    93.217863   -8421.2066     -7842.97   -801.06353     102002.7      46.7237      46.7237      46.7237 
  488000    91.816663    -8422.323   -7852.7782   -799.44656     102002.7      46.7237      46.7237      46.7237 
  489000    92.905154   -8420.2759   -7843.9792    -826.0684     102002.7      46.7237      46.7237      46.7237 
  490000    94.665547   -8431.2229   -7844.0063   -544.39468     102002.7      46.7237      46.7237      46.7237 
  491000    90.272163   -8415.1925   -7855.2283   -745.59411     102002.7      46.7237      46.7237      46.7237 
  492000    90.831005   -8409.3988   -7845.9681   -863.57369     102002.7      46.7237      46.7237      46.7237 
  493000    90.322803   -8439.2393    -7878.961   -629.60678     102002.7      46.7237      46.7237      46.7237 
  494000    92.307801   -8428.7039   -7856.1125   -674.04783     102002.7      46.7237      46.7237      46.7237 
  495000    90.755083   -8446.7631   -7883.8033   -898.36982     102002.7      46.7237      46.7237      46.7237 
  496000    90.688912   -8421.8513    -7859.302    -1168.543     102002.7      46.7237      46.7237      46.7237 
  497000    92.466699   -8439.4229   -7865.8458   -591.26474     102002.7      46.7237      46.7237      46.7237 
  498000    93.518282    -8414.316    -7834.216   -672.05387     102002.7      46.7237      46.7237      46.7237 
  499000    92.117076   -8445.0775   -7873.6692   -770.43979     102002.7      46.7237      46.7237      46.7237 
  500000    88.296966   -8400.5132   -7852.8013   -818.78616     102002.7      46.7237      46.7237      46.7237 
  500501     93.33319   -8425.2703   -7846.3184   -1009.6253     102002.7      46.7237      46.7237      46.7237 
Loop time of 1439.1 on 16 procs for 500000 steps with 2082 atoms

Performance: 30.019 ns/day, 0.800 hours/ns, 347.439 timesteps/s
99.8% CPU use with 16 MPI tasks x no OpenMP threads

MPI task timing breakdown:
Section |  min time  |  avg time  |  max time  |%varavg| %total
---------------------------------------------------------------
Pair    | 530.53     | 781.02     | 1029.9     | 624.3 | 54.27
Bond    | 155.45     | 174.32     | 193.12     |  94.6 | 12.11
Neigh   | 6.7224     | 6.7567     | 6.8251     |   1.4 |  0.47
Comm    | 202.38     | 463.46     | 725.94     | 863.3 | 32.20
Output  | 0.019802   | 0.020301   | 0.023295   |   0.6 |  0.00
Modify  | 7.3232     | 8.1399     | 8.9084     |  17.3 |  0.57
Other   |            | 5.38       |            |       |  0.37

Nlocal:    130.125 ave 147 max 114 min
Histogram: 3 1 2 2 0 1 2 1 1 3
Nghost:    2586.88 ave 2605 max 2565 min
Histogram: 1 2 1 1 3 1 0 1 3 3
Neighs:    11456.6 ave 16651 max 7713 min
Histogram: 5 2 0 1 0 3 0 1 3 1

Total # of neighbors = 183306
Ave neighs/atom = 88.0432
Ave special neighs/atom = 5.53314
Neighbor list builds = 3900
Dangerous builds = 0
Neighbor list info ...
  update every 1 steps, delay 10 steps, check yes
  max neighbors/atom: 2000, page size: 100000
  master list distance cutoff = 16
  ghost atom cutoff = 16
  binsize = 8, bins = 6 6 6
  3 neighbor lists, perpetual/occasional/extra = 3 0 0
  (1) pair buck6d/coul/gauss/dsf, perpetual, skip from (3)
      attributes: half, newton on
      pair build: skip
      stencil: none
      bin: none
  (2) pair lj/cut, perpetual, skip from (3)
      attributes: half, newton on
      pair build: skip
      stencil: none
      bin: none
  (3) neighbor class addition, perpetual
      attributes: half, newton on
      pair build: half/bin/newton
      stencil: half/bin/3d/newton
      bin: standard
Setting up Verlet run ...
  Unit style    : real
  Current step  : 500501
  Time step     : 1
WARNING: Inconsistent image flags (../domain.cpp:786)
Per MPI rank memory allocation (min/avg/max) = 23.06 | 23.29 | 23.36 Mbytes
Step Time TotEng KinEng PotEng E_mol E_pair Temp Pxx Pyy Pzz Pxy Pxz Pyz Cella Cellb Cellc CellAlpha CellBeta CellGamma Volume Press 
  500501       500000   -7846.3184    578.95191   -8425.2703    4219.7968   -12645.067     93.33319   -947.58302   -1161.6666   -919.62619   -98.007253    41.409372    115.55258      46.7237      46.7237      46.7237           90           90           90     102002.7   -1009.6253 
  501000       500499   -7868.0702    568.84677    -8436.917    4193.7995   -12630.717    91.704135   -1133.8472    -321.6955   -833.16208   -151.58051   -24.743376    -17.20871      46.7237      46.7237      46.7237           90           90           90     102002.7    -762.9016 
  502000       501499   -7820.9954    581.72355   -8402.7189    4203.9896   -12606.709    93.780007   -751.60436   -376.57595   -371.00116   -105.58663   -60.862705   -27.876752      46.7237      46.7237      46.7237           90           90           90     102002.7   -499.72716 
  503000       502499   -7857.6083    557.70771    -8415.316    4203.4114   -12618.727    89.908399   -985.62818   -458.86934   -598.05314   -2.3123494   -19.245725   -28.574965      46.7237      46.7237      46.7237           90           90           90     102002.7   -680.85022 
  504000       503499   -7836.7386    582.08501   -8418.8236    4207.1829   -12626.007    93.838279   -591.93301   -883.55823   -784.55135      40.7018    111.94136   -44.521066      46.7237      46.7237      46.7237           90           90           90     102002.7   -753.34753 
  505000       504499   -7881.8154    547.05097   -8428.8664    4198.5083   -12627.375     88.19042   -641.54996    -765.5803   -640.35529   0.60216264    120.83035   -193.58935      46.7237      46.7237      46.7237           90           90           90     102002.7   -682.49518 
  506000       505499   -7862.6958    567.53037   -8430.2262    4197.7571   -12627.983    91.491916    -616.1953    -665.8286   -772.69549   -24.634797     38.52168   -66.180722      46.7237      46.7237      46.7237           90           90           90     102002.7   -684.90646 
  507000       506499   -7886.7963     562.9161   -8449.7124     4173.097   -12622.809    90.748048   -298.08686   -703.33369   -566.52278   -105.98627    379.78345   -47.488422      46.7237      46.7237      46.7237           90           90           90     102002.7   -522.64778 
  508000       507499   -7851.3883    556.97516   -8408.3635    4202.5808   -12610.944    89.790304   -633.64659    -691.0164   -412.41796   -46.532576    109.49303    -2.266213      46.7237      46.7237      46.7237           90           90           90     102002.7   -579.02698 
  509000       508499   -7861.9875    560.19849    -8422.186    4207.3604   -12629.546     90.30994   -675.36883    -383.9045   -565.38395   0.13325083    64.640033    12.892024      46.7237      46.7237      46.7237           90           90           90     102002.7   -541.55242 
  510000       509499   -7859.5908     573.3762    -8432.967     4204.963    -12637.93    92.434326   -738.02183   -742.37992   -588.73054   -189.73159    166.78315   -318.16169      46.7237      46.7237      46.7237           90           90           90     102002.7   -689.71076 
  511000       510499   -7846.1997    581.82173   -8428.0214    4192.8165   -12620.838    93.795836   -673.75437    -528.7815   -1005.7347    81.055356    34.024389    109.47092      46.7237      46.7237      46.7237           90           90           90     102002.7   -736.09018 
  512000       511499   -7855.2766    560.66211   -8415.9387    4202.3039   -12618.243     90.38468   -929.66358   -164.40209     -872.985    124.94113   -119.00417    54.047595      46.7237      46.7237      46.7237           90           90           90     102002.7   -655.68355 
  513000       512499    -7868.523    564.51691   -8433.0399     4187.485   -12620.525    91.006115   -1021.2408   -820.61117   -661.26328    185.32189    132.05051    19.567524      46.7237      46.7237      46.7237           90           90           90     102002.7   -834.37174 
  514000       513499   -7856.3597    564.70292   -8421.0627    4220.6914   -12641.754    91.036102    -770.0474   -584.61512     -808.574   -128.00222    28.706033    16.975579      46.7237      46.7237      46.7237           90           90           90     102002.7   -721.07884 
  515000       514499   -7847.0836    577.27029   -8424.3538    4210.5137   -12634.868    93.062095   -727.86825   -602.27938   -1107.3694    16.062601   -154.23587   -159.26817      46.7237      46.7237      46.7237           90           90           90     102002.7   -812.50566 
  516000       515499   -7869.6679    568.47808    -8438.146     4193.275   -12631.421    91.644697   -1252.6242   -501.07775   -964.45586   -13.665053    -133.8858    121.63025      46.7237      46.7237      46.7237           90           90           90     102002.7   -906.05262 
  517000       516499    -7886.843     555.5943   -8442.4373    4197.6786   -12640.116    89.567696   -654.36591   -972.52461    -548.4076     97.95794   -104.52532    311.61265      46.7237      46.7237      46.7237           90           90           90     102002.7   -725.09937 
  518000       517499   -7855.5806    576.06592   -8431.6466    4197.1625   -12628.809    92.867938   -1069.2351   -828.48851   -891.36834     46.76045   -61.537686   -41.902008      46.7237      46.7237      46.7237           90           90           90     102002.7    -929.6973 
  519000       518499   -7869.0523    560.01669    -8429.069    4211.5228   -12640.592    90.280631   -922.75935   -352.04498   -601.00617   -10.987843   -131.55443   -1.2774387      46.7237      46.7237      46.7237           90           90           90     102002.7   -625.27017 
  520000       519499   -7861.5958    569.42639   -8431.0222    4209.6391   -12640.661    91.797575   -1358.3695    -650.4324   -1017.1645   -48.392852    29.573756    196.41152      46.7237      46.7237      46.7237           90           90           90     102002.7   -1008.6555 
  521000       520499   -7863.2148    556.93201   -8420.1468    4204.4726   -12624.619    89.783349     -745.054   -509.56105   -1146.9323   -96.969807   -7.5439938    55.512725      46.7237      46.7237      46.7237           90           90           90     102002.7   -800.51577 
  522000       521499   -7893.6564    545.09682   -8438.7532    4188.9051   -12627.658     87.87539   -1124.9475   -174.15718   -730.83643    115.07645    47.251904    132.43994      46.7237      46.7237      46.7237           90           90           90     102002.7   -676.64703 
  523000       522499   -7859.8371    566.51692    -8426.354    4201.9771   -12628.331    91.328537   -754.07143   -699.41716   -969.87749    13.786415   -139.93755   -125.80545      46.7237      46.7237      46.7237           90           90           90     102002.7    -807.7887 
  524000       523499    -7887.484    557.28926   -8444.7733    4189.2276   -12634.001    89.840941   -252.87509   -316.58016   -381.78606   -289.52544   -40.573469    179.66781      46.7237      46.7237      46.7237           90           90           90     102002.7   -317.08044 
  525000       524499   -7844.8788    578.56645   -8423.4453    4205.8689   -12629.314     93.27105   -871.96695   -710.23859   -946.30562    61.272739   -43.920285   -173.10334      46.7237      46.7237      46.7237           90           90           90     102002.7   -842.83705 
  526000       525499   -7857.3691    574.48225   -8431.8514    4204.9872   -12636.839    92.612633   -732.61881   -892.73738   -712.47702    4.2962743   -51.855972   -31.397293      46.7237      46.7237      46.7237           90           90           90     102002.7   -779.27774 
  527000       526499   -7878.5055    565.44317   -8443.9486    4202.8823   -12646.831    91.155438   -854.94901   -216.49191   -1181.1083    199.52431    226.04734   -192.87173      46.7237      46.7237      46.7237           90           90           90     102002.7   -750.84973 
  528000       527499   -7869.1161    568.04341   -8437.1595    4194.4657   -12631.625    91.574624   -829.81593   -773.23496   -825.70392    156.56427    112.24404   -112.69376      46.7237      46.7237      46.7237           90           90           90     102002.7   -809.58494 
  529000       528499   -7843.9551    569.30779   -8413.2629    4221.1838   -12634.447    91.778456   -733.56262   -771.96118   -641.45638    52.422218    64.151221   -161.89411      46.7237      46.7237      46.7237           90           90           90     102002.7   -715.66006 
  530000       529499   -7879.2418    549.29878   -8428.5405    4219.7537   -12648.294     88.55279   -1184.2125   -925.13949   -1076.9534   -41.454952   -21.510799    261.74593      46.7237      46.7237      46.7237           90           90           90     102002.7   -1062.1018 
  531000       530499   -7850.2597    576.17958   -8426.4393    4213.7284   -12640.168     92.88626   -1036.2155    -929.2029   -1142.2142   -31.276224   -179.76511   -189.16151      46.7237      46.7237      46.7237           90           90           90     102002.7   -1035.8775 
  532000       531499   -7867.8197    552.57799   -8420.3977    4206.1609   -12626.559    89.081434   -846.70346   -1054.0296   -703.79762   -43.826739    -143.9722    115.82211      46.7237      46.7237      46.7237           90           90           90     102002.7    -868.1769 
  533000       532499    -7877.834    550.67157   -8428.5056    4199.8311   -12628.337    88.774098    -705.9294    -1003.351   -779.45978    63.401655    135.27486    155.00539      46.7237      46.7237      46.7237           90           90           90     102002.7   -829.58007 
  534000       533499   -7842.7935    574.89245   -8417.6859    4195.8946    -12613.58    92.678762   -642.69327   -475.85186   -774.62585   -94.055493   -297.53115    89.955997      46.7237      46.7237      46.7237           90           90           90     102002.7   -631.05699 
  535000       534499   -7871.1554    568.43807   -8439.5935    4168.7678   -12608.361    91.638247   -697.86331   -238.96604   -607.01839   -88.620117   -17.553554    -50.25021      46.7237      46.7237      46.7237           90           90           90     102002.7   -514.61591 
  536000       535499   -7844.6797    574.16143   -8418.8411    4217.4843   -12636.325    92.560914   -834.64021    -767.7838   -878.18246    125.30505    70.413729   -2.6289919      46.7237      46.7237      46.7237           90           90           90     102002.7   -826.86882 
  537000       536499   -7858.8851    567.52687   -8426.4119    4193.9107   -12620.323    91.491352   -936.25696   -1224.0478   -653.14035    41.487803    106.95006    115.92922      46.7237      46.7237      46.7237           90           90           90     102002.7   -937.81503 
  538000       537499   -7868.6395    558.86918   -8427.5086    4193.9527   -12621.461    90.095641   -568.52005    -650.0396   -1099.9203     10.88724    31.412957   -11.032689      46.7237      46.7237      46.7237           90           90           90     102002.7   -772.82663 
  539000       538499   -7839.6855    580.34141   -8420.0269    4189.9083   -12609.935    93.557191   -414.10276   -684.13695   -833.45144    140.93216   -5.9221275   -80.635427      46.7237      46.7237      46.7237           90           90           90     102002.7   -643.89705 
  540000       539499   -7838.6755    567.26968   -8405.9452    4217.1669   -12623.112     91.44989   -1139.2545   -508.76132   -581.90855   -153.04609    2.0541384    100.49666      46.7237      46.7237      46.7237           90           90           90     102002.7   -743.30814 
  541000       540499   -7865.1905    559.56436   -8424.7548    4213.4466   -12638.201    90.207711   -732.56817   -864.40188   -1043.0571    170.02042   -66.449908   -21.009901      46.7237      46.7237      46.7237           90           90           90     102002.7   -880.00906 
  542000       541499   -7861.1286    555.85279   -8416.9814    4215.3129   -12632.294    89.609367   -449.08465   -657.18383   -470.30572   -21.477364   -169.77558   -107.86635      46.7237      46.7237      46.7237           90           90           90     102002.7   -525.52473 
  543000       542499   -7861.7018     568.6982      -8430.4    4190.7027   -12621.103    91.680182   -515.63519   -275.43649   -458.35637    230.76294    -12.05889    -223.8454      46.7237      46.7237      46.7237           90           90           90     102002.7   -416.47602 
  544000       543499   -7823.6868    583.38476   -8407.0715    4203.2004   -12610.272    94.047812   -785.85675   -606.35538   -683.73947    11.826852   -5.7093001   -96.083921      46.7237      46.7237      46.7237           90           90           90     102002.7   -691.98387 
  545000       544499   -7852.4246    544.84781   -8397.2724    4227.9483   -12625.221    87.835247   -731.16774   -562.36618   -656.20518   -100.57383    5.5387251    155.95746      46.7237      46.7237      46.7237           90           90           90     102002.7   -649.91303 
  546000       545499   -7847.6303    569.29602   -8416.9263     4207.926   -12624.852    91.776557   -538.51334   -660.63339   -1001.5482    93.997033   -3.1846812   -172.23735      46.7237      46.7237      46.7237           90           90           90     102002.7   -733.56498 
  547000       546499   -7863.5342    559.32148   -8422.8557     4179.572   -12602.428    90.168557   -593.55065   -737.45969   -758.21236    -170.5264    105.72965   -296.60268      46.7237      46.7237      46.7237           90           90           90     102002.7   -696.40757 
  548000       547499   -7885.5816    549.66817   -8435.2498    4210.7785   -12646.028    88.612341   -956.38645   -646.91981   -465.91213    38.040041    98.381904    51.222922      46.7237      46.7237      46.7237           90           90           90     102002.7   -689.73947 
  549000       548499   -7856.3148    557.81959   -8414.1344    4219.2266   -12633.361    89.926435   -1103.3846    -760.8286   -1153.8255    191.90326    159.08909    360.32472      46.7237      46.7237      46.7237           90           90           90     102002.7   -1006.0129 
  550000       549499   -7860.4653    573.60367   -8434.0689    4200.4262   -12634.495    92.470997   -228.28164   -677.09824   -691.55527    96.304437    15.248116    40.449516      46.7237      46.7237      46.7237           90           90           90     102002.7   -532.31172 
  551000       550499   -7869.2216    563.03168   -8432.2533    4187.0421   -12619.295     90.76668     -675.055   -813.17748   -594.13776    18.000318   -161.56614    44.033873      46.7237      46.7237      46.7237           90           90           90     102002.7   -694.12342 
  552000       551499   -7870.6017    568.38176   -8438.9835    4198.2419   -12637.225     91.62917   -1107.1233   -731.02079   -779.05935   -75.476878   -14.691114   -181.05289      46.7237      46.7237      46.7237           90           90           90     102002.7   -872.40114 
  553000       552499   -7837.3214     568.1759   -8405.4973    4217.5022       -12623    91.595982   -717.08884   -482.59617   -773.98207   -13.032543    42.306436    108.02229      46.7237      46.7237      46.7237           90           90           90     102002.7   -657.88902 
  554000       553499   -7855.8899    567.80438   -8423.6943    4227.6511   -12651.345    91.536089   -978.00316   -576.28399   -482.24226    100.57715   -125.72176   -19.676495      46.7237      46.7237      46.7237           90           90           90     102002.7   -678.84314 
  555000       554499   -7877.5658    547.92449   -8425.4903    4210.2809   -12635.771    88.331241   -1276.4235   -942.83965    -749.1862    -9.552639   -13.728207    215.91082      46.7237      46.7237      46.7237           90           90           90     102002.7   -989.48312 
[...]
  936000       935499   -7858.2887    571.36258   -8429.6513    4223.1938   -12652.845    92.109709   -887.74853   -548.76206   -486.91443    35.380537    70.274332    131.38917      46.7237      46.7237      46.7237           90           90           90     102002.7   -641.14168 
  937000       936499   -7874.8003      553.425   -8428.2253    4226.6986   -12654.924    89.217981   -683.93059   -756.40078   -770.48934    152.93557   -111.90289    258.81505      46.7237      46.7237      46.7237           90           90           90     102002.7   -736.94024 
  938000       937499   -7856.5964    561.32903   -8417.9254    4223.4366   -12641.362    90.492195   -641.51804   -783.50829   -335.64546    63.160214    91.486855   -19.695066      46.7237      46.7237      46.7237           90           90           90     102002.7    -586.8906 
  939000       938499   -7865.5679     563.2121     -8428.78    4207.9605    -12636.74    90.795765   -1257.2804   -1048.9987   -890.16986    95.475534   -30.938964   -25.871861      46.7237      46.7237      46.7237           90           90           90     102002.7    -1065.483 
  940000       939499   -7894.0012     547.0979   -8441.0991    4198.2269   -12639.326    88.197986   -882.27878   -1034.3404   -687.74778   -141.30225   -248.55932   -104.98208      46.7237      46.7237      46.7237           90           90           90     102002.7   -868.12232 
  941000       940499    -7870.762    571.07521   -8441.8372    4194.4429    -12636.28    92.063382   -853.66533   -883.88048   -827.64682   -63.381464   -111.56352   -88.863008      46.7237      46.7237      46.7237           90           90           90     102002.7   -855.06421 
  942000       941499   -7867.8287    574.90755   -8442.7363     4198.194    -12640.93    92.681196    -969.1587   -796.06255   -1053.1657    217.42232     -138.393    22.302397      46.7237      46.7237      46.7237           90           90           90     102002.7   -939.46231 
  943000       942499   -7871.1327    559.68012   -8430.8128    4215.5405   -12646.353    90.226374   -985.71316   -947.41103   -1289.0786    91.207122   -121.55559    130.22136      46.7237      46.7237      46.7237           90           90           90     102002.7   -1074.0676 
  944000       943499   -7864.6884    583.66744   -8448.3558     4185.913   -12634.269    94.093384   -1205.8451   -1095.7775   -1004.3445      5.02168    167.87981   -88.205098      46.7237      46.7237      46.7237           90           90           90     102002.7   -1101.9891 
  945000       944499   -7864.7021     563.1823   -8427.8844    4219.9774   -12647.862    90.790962   -949.05644   -860.06467    -1088.244   -20.625516    50.180873   -34.511527      46.7237      46.7237      46.7237           90           90           90     102002.7   -965.78836 
  946000       945499   -7877.7446    558.29128   -8436.0359    4194.0553   -12630.091    90.002477   -677.38415   -819.92353   -1213.7567   -56.421466    101.41202   -124.99023      46.7237      46.7237      46.7237           90           90           90     102002.7   -903.68814 
  947000       946499   -7866.7006    557.30572   -8424.0063    4219.4731   -12643.479    89.843594   -1292.6908   -429.34843   -894.20945    22.643063    146.37174   -25.746703      46.7237      46.7237      46.7237           90           90           90     102002.7   -872.08288 
  948000       947499    -7853.737    563.07119   -8416.8082     4224.672    -12641.48    90.773049   -602.62445   -660.42645   -629.53524    219.56088    184.68558   -314.80656      46.7237      46.7237      46.7237           90           90           90     102002.7   -630.86204 
  949000       948499   -7864.9534    550.50253   -8415.4559      4233.77   -12649.226    88.746847    -1010.095    -1016.943   -1093.7534    117.57003    88.311909    322.17541      46.7237      46.7237      46.7237           90           90           90     102002.7   -1040.2638 
  950000       949499   -7869.9974    550.78878   -8420.7862    4235.5212   -12656.307    88.792995   -943.22559   -804.08736   -1087.0247   -118.48656    2.9743028    150.92188      46.7237      46.7237      46.7237           90           90           90     102002.7   -944.77922 
  951000       950499   -7859.6391    576.63329   -8436.2724    4210.9119   -12647.184    92.959404   -962.85068   -849.43239   -685.67033    104.50988    18.868667    -141.8275      46.7237      46.7237      46.7237           90           90           90     102002.7   -832.65113 
  952000       951499   -7853.5321    583.90514   -8437.4372    4207.5554   -12644.993    94.131704   -679.89692   -889.81433   -1334.3651    101.59698    158.62839    45.856845      46.7237      46.7237      46.7237           90           90           90     102002.7   -968.02545 
  953000       952499   -7866.8966    575.63944   -8442.5361    4211.7023   -12654.238    92.799185   -546.85748   -793.56271    -976.5488   -61.512626   -50.306769   -154.30728      46.7237      46.7237      46.7237           90           90           90     102002.7   -772.32299 
  954000       953499   -7882.8439    551.66181   -8434.5057     4221.572   -12656.078    88.933736   -541.63809   -1105.9876   -602.23481   -68.121803    200.22303    103.71054      46.7237      46.7237      46.7237           90           90           90     102002.7    -749.9535 
  955000       954499   -7843.5429    561.07599   -8404.6188    4223.7291   -12628.348    90.451402   -913.97483    -951.5831   -1300.2816   -85.465421   -50.510448    -87.78014      46.7237      46.7237      46.7237           90           90           90     102002.7   -1055.2799 
  956000       955499   -7870.3219      551.234   -8421.5559    4225.5732   -12647.129    88.864768   -1209.3424   -906.91029    -1105.328    51.322977   -264.52729   -284.20373      46.7237      46.7237      46.7237           90           90           90     102002.7   -1073.8602 
  957000       956499   -7862.4727    563.00145   -8425.4742    4206.4802   -12631.954    90.761806   -767.10115    -717.9844   -863.88054    109.81575    -133.0748    178.64736      46.7237      46.7237      46.7237           90           90           90     102002.7   -782.98869 
  958000       957499   -7876.2917    570.12709   -8446.4188    4201.3888   -12647.808    91.910536   -1088.7114     -1352.37   -1028.5402    198.53024    130.13406    154.79963      46.7237      46.7237      46.7237           90           90           90     102002.7   -1156.5405 
  959000       958499   -7876.5392    572.59251   -8449.1317    4197.1191   -12646.251    92.307987    -1301.994   -984.45752   -833.94125   -53.224928    75.025534    -77.43295      46.7237      46.7237      46.7237           90           90           90     102002.7   -1040.1309 
  960000       959499   -7875.3041    564.89359   -8440.1977    4190.6938   -12630.891     91.06684   -606.25485   -512.87986   -922.40623   -109.79958   -114.11917   -252.65366      46.7237      46.7237      46.7237           90           90           90     102002.7   -680.51365 
  961000       960499   -7864.2246    550.75507   -8414.9797    4224.5956   -12639.575     88.78756    -782.8714   -868.99453   -1217.3307    26.453309    142.59809   -123.97107      46.7237      46.7237      46.7237           90           90           90     102002.7   -956.39886 
  962000       961499   -7860.1808    566.56917   -8426.7499    4212.4648   -12639.215    91.336961   -466.89556   -960.99042   -337.71671    98.270922   -2.0245144    145.68362      46.7237      46.7237      46.7237           90           90           90     102002.7   -588.53423 
  963000       962499   -7850.5996    576.95974   -8427.5593    4204.0466   -12631.606    93.012032   -633.69038   -639.62769   -702.14259   -277.95437   -4.2728198    107.29314      46.7237      46.7237      46.7237           90           90           90     102002.7   -658.48689 
  964000       963499   -7898.9575     547.4346   -8446.3921      4208.35   -12654.742    88.252266   -543.08319   -893.92418   -721.72421    103.21424   -50.490415    139.77794      46.7237      46.7237      46.7237           90           90           90     102002.7   -719.57719 
  965000       964499   -7865.6942    569.12075    -8434.815    4212.5664   -12647.381    91.748303    -754.9782   -579.05354   -835.61772    16.894263    60.229717   -153.05364      46.7237      46.7237      46.7237           90           90           90     102002.7   -723.21649 
  966000       965499   -7891.3474    545.80061    -8437.148    4216.6822    -12653.83    87.988849   -553.93691   -737.71807   -1027.2895   -195.69116    219.36518     66.85406      46.7237      46.7237      46.7237           90           90           90     102002.7   -772.98151 
  967000       966499   -7865.2739    568.45184   -8433.7258    4197.0368   -12630.763    91.640467   -550.05812   -644.69711   -778.60321   -110.49866    42.688722   -100.36611      46.7237      46.7237      46.7237           90           90           90     102002.7   -657.78615 
  968000       967499   -7874.8458    555.17493   -8430.0207    4219.2895    -12649.31    89.500088   -1147.5906   -419.26638   -841.99746    7.6780375   -82.164838  -0.42552899      46.7237      46.7237      46.7237           90           90           90     102002.7   -802.95147 
  969000       968499   -7872.2931    562.17028   -8434.4633    4194.4263    -12628.89    90.627813   -572.56034    -576.1627   -1027.0867    105.12434   -15.696905   -47.106505      46.7237      46.7237      46.7237           90           90           90     102002.7   -725.26992 
  970000       969499   -7842.3995    586.10146    -8428.501    4202.8027   -12631.304    94.485773    -736.9049   -531.62218   -486.68569    114.87656   -28.855996    88.055028      46.7237      46.7237      46.7237           90           90           90     102002.7   -585.07092 
  971000       970499   -7877.9916     568.6695   -8446.6611    4189.6116   -12636.273    91.675557    -914.7993   -474.92916   -850.94571   -67.744412   -157.27143   -341.15469      46.7237      46.7237      46.7237           90           90           90     102002.7   -746.89139 
  972000       971499    -7842.149    574.43688   -8416.5859    4232.7523   -12649.338    92.605319   -827.80187   -1012.8707   -1102.9111   -88.979618    34.563728    45.088266      46.7237      46.7237      46.7237           90           90           90     102002.7   -981.19453 
  973000       972499   -7875.4935    562.77733   -8438.2709     4205.542   -12643.813    90.725677   -667.27835   -1117.6909   -982.29759   -70.422043   -12.142236    48.816745      46.7237      46.7237      46.7237           90           90           90     102002.7   -922.42229 
  974000       973499    -7848.191    574.83838   -8423.0293      4209.93   -12632.959    92.670045   -745.10603   -966.02794   -591.07204    133.17722   -62.177156   -68.642212      46.7237      46.7237      46.7237           90           90           90     102002.7     -767.402 
  975000       974499   -7852.5487    578.22838   -8430.7771    4219.2807   -12650.058     93.21655   -717.53398   -809.06843   -350.93637   -51.623733   -21.486956   -262.37336      46.7237      46.7237      46.7237           90           90           90     102002.7   -625.84626 
  976000       975499   -7875.0845    562.89332   -8437.9778    4198.7899   -12636.768    90.744375   -1203.0187    -813.1937   -822.09147   -278.64751   -38.011324   -235.03898      46.7237      46.7237      46.7237           90           90           90     102002.7   -946.10129 
  977000       976499    -7875.803    563.38066   -8439.1837    4206.5979   -12645.782    90.822939   -935.87148   -796.80834   -835.50609   -271.17942   -67.840094   -98.276412      46.7237      46.7237      46.7237           90           90           90     102002.7   -856.06197 
  978000       977499   -7878.1416    563.18913   -8441.3307    4200.6447   -12641.975    90.792063   -755.91731   -787.75692   -603.75572     62.10495    80.287107    -95.19455      46.7237      46.7237      46.7237           90           90           90     102002.7   -715.80999 
  979000       978499   -7852.7892    573.99943   -8426.7886    4227.2683   -12654.057    92.534798   -952.26293   -598.20595   -1145.3683    77.841631   -39.131855    86.483233      46.7237      46.7237      46.7237           90           90           90     102002.7    -898.6124 
  980000       979499   -7845.2706    570.64149   -8415.9121    4204.0609   -12619.973    91.993463     -716.351   -1151.9781   -674.91267    166.66275    22.673755    -39.88279      46.7237      46.7237      46.7237           90           90           90     102002.7   -847.74728 
  981000       980499   -7876.4434    555.69059    -8432.134     4210.129   -12642.263    89.583218   -1141.2983   -796.32915   -827.22558    54.518537    80.293933   -221.86154      46.7237      46.7237      46.7237           90           90           90     102002.7   -921.61767 
  982000       981499   -7866.2991    556.74583   -8423.0449    4211.8389   -12634.884    89.753334   -927.27975   -1146.2188   -685.11009   -102.31489   -6.0065772    -8.503781      46.7237      46.7237      46.7237           90           90           90     102002.7   -919.53623 
  983000       982499   -7861.7046    573.50247    -8435.207    4186.6659   -12621.873    92.454683    -821.3238   -917.57836   -593.69612    131.95935   -31.686226    168.51021      46.7237      46.7237      46.7237           90           90           90     102002.7   -777.53276 
  984000       983499     -7843.26    578.13205   -8421.3921    4210.0799   -12631.472     93.20102   -1043.7321    -870.1126    -1041.515    59.440401    70.201038    3.4568134      46.7237      46.7237      46.7237           90           90           90     102002.7   -985.11987 
  985000       984499    -7861.325    559.14163   -8420.4666    4212.4881   -12632.955    90.139563   -878.17784   -829.36458   -1037.5859   -64.579109    85.652816   -62.272462      46.7237      46.7237      46.7237           90           90           90     102002.7   -915.04278 
  986000       985499   -7886.4209    559.89915     -8446.32    4193.8816   -12640.202    90.261682   -722.82304   -818.49657   -858.58897    350.18686    7.4080801    -41.52112      46.7237      46.7237      46.7237           90           90           90     102002.7   -799.96952 
  987000       986499   -7838.4063    579.26733   -8417.6736    4207.0842   -12624.758    93.384039   -667.94364   -724.28186   -806.54324   -45.293338    187.93221   -200.59085      46.7237      46.7237      46.7237           90           90           90     102002.7   -732.92291 
  988000       987499    -7871.288    566.65788   -8437.9459    4194.8458   -12632.792    91.351263   -396.00098   -711.68441   -660.81292   -172.31907   -229.94863    84.707113      46.7237      46.7237      46.7237           90           90           90     102002.7   -589.49944 
  989000       988499   -7867.3246    556.05372   -8423.3784    4218.9909   -12642.369    89.641759   -1066.8641   -760.97348   -872.63253    28.611383   -94.011498   -76.055516      46.7237      46.7237      46.7237           90           90           90     102002.7   -900.15669 
  990000       989499   -7870.1874    564.77707   -8434.9644    4215.3895   -12650.354    91.048055   -850.40433   -712.80187   -709.37334   -122.10982     -65.1296   -91.781682      46.7237      46.7237      46.7237           90           90           90     102002.7   -757.52652 
  991000       990499   -7876.2883    551.59474    -8427.883     4224.695   -12652.578    88.922924    -799.9066    -855.6716   -453.37588    197.10577   -14.608606    296.30925      46.7237      46.7237      46.7237           90           90           90     102002.7   -702.98469 
  992000       991499    -7852.933    572.70757   -8425.6406    4204.1321   -12629.773    92.326535   -1031.8297   -850.99245   -1128.5832   -19.325511   -68.262084   -132.22986      46.7237      46.7237      46.7237           90           90           90     102002.7   -1003.8018 
  993000       992499    -7869.503    559.38649   -8428.8895    4204.4166   -12633.306    90.179036   -841.81898   -680.70066   -457.13169    53.840535   -98.878515   -120.40503      46.7237      46.7237      46.7237           90           90           90     102002.7   -659.88378 
  994000       993499   -7868.6399    567.13475   -8435.7746    4197.8671   -12633.642    91.428139   -1075.7877   -742.84632   -1275.1107    9.9092399     152.8895    99.294346      46.7237      46.7237      46.7237           90           90           90     102002.7   -1031.2482 
  995000       994499    -7861.687    555.36384   -8417.0509    4218.1676   -12635.219    89.530542   -878.91418   -796.86316    -681.7501   -34.410678    103.93504   -92.664278      46.7237      46.7237      46.7237           90           90           90     102002.7   -785.84248 
  996000       995499   -7864.8856     561.1854    -8426.071    4213.0393    -12639.11     90.46904   -774.35545   -989.34411   -873.68487    107.73493    156.78822    76.206738      46.7237      46.7237      46.7237           90           90           90     102002.7   -879.12814 
  997000       996499   -7833.1885    570.70923   -8403.8977    4221.4249   -12625.323    92.004382   -930.09425   -728.49546   -1066.5972   -1.5432793   -34.411523    82.385109      46.7237      46.7237      46.7237           90           90           90     102002.7   -908.39563 
  998000       997499   -7862.5161    559.72353   -8422.2396    4200.7247   -12622.964    90.233371   -1098.5624   -373.09233   -1060.7155   -154.40562    12.063001     123.8789      46.7237      46.7237      46.7237           90           90           90     102002.7   -844.12342 
  999000       998499   -7836.4035    565.39565   -8401.7992    4217.5765   -12619.376    91.147777   -640.18129   -778.48047   -1007.1608    78.860199   -105.12104   -43.512191      46.7237      46.7237      46.7237           90           90           90     102002.7   -808.60752 
 1000000       999499   -7865.0058    565.68353   -8430.6893    4195.5823   -12626.272    91.194186   -774.80644   -721.64665   -1084.6606    -182.3679   -8.4158514     120.5888      46.7237      46.7237      46.7237           90           90           90     102002.7   -860.37122 
 1000501      1000000   -7878.5174     570.6928   -8449.2102     4169.369   -12618.579    92.001734   -586.75285   -916.83105   -841.64268   -230.40161     139.3955   -44.641881      46.7237      46.7237      46.7237           90           90           90     102002.7   -781.74219 
Loop time of 1617.97 on 16 procs for 500000 steps with 2082 atoms

Performance: 26.700 ns/day, 0.899 hours/ns, 309.030 timesteps/s
99.8% CPU use with 16 MPI tasks x no OpenMP threads

MPI task timing breakdown:
Section |  min time  |  avg time  |  max time  |%varavg| %total
---------------------------------------------------------------
Pair    | 640.87     | 915.99     | 1181.4     | 585.9 | 56.61
Bond    | 171.79     | 183.51     | 196.18     |  57.2 | 11.34
Neigh   | 6.5546     | 6.5894     | 6.658      |   1.4 |  0.41
Comm    | 208.45     | 484.4      | 766.27     | 827.2 | 29.94
Output  | 0.10235    | 0.108      | 0.10847    |   0.4 |  0.01
Modify  | 21.267     | 21.98      | 22.84      |   9.9 |  1.36
Other   |            | 5.394      |            |       |  0.33

Nlocal:    130.125 ave 159 max 101 min
Histogram: 1 1 1 3 2 4 0 1 2 1
Nghost:    2604.44 ave 2632 max 2578 min
Histogram: 3 0 0 1 5 0 3 1 2 1
Neighs:    11456.1 ave 17620 max 7067 min
Histogram: 2 4 2 1 1 2 0 1 0 3

Total # of neighbors = 183297
Ave neighs/atom = 88.0389
Ave special neighs/atom = 5.53314
Neighbor list builds = 3902
Dangerous builds = 0
Total wall time: 0:51:00
