LAMMPS (30 Mar 2018)
Reading data file ...
  orthogonal box = (0 0 0) to (46.7237 46.7237 46.7237)
  2 by 2 by 4 MPI processor grid
  reading atoms ...
  3220 atoms
  scanning bonds ...
  5 = max bonds/atom
  scanning angles ...
  10 = max angles/atom
  scanning dihedrals ...
  32 = max dihedrals/atom
  scanning impropers ...
  3 = max impropers/atom
  reading bonds ...
  2064 bonds
  reading angles ...
  3696 angles
  reading dihedrals ...
  6240 dihedrals
  reading impropers ...
  1008 impropers
Finding 1-2 1-3 1-4 neighbors ...
  special bond factors lj:   0          0          0         
  special bond factors coul: 0          0          0         
  5 = max # of 1-2 neighbors
  8 = max # of 1-3 neighbors
  20 = max # of 1-4 neighbors
  19 = max # of special neighbors
Finding 1-2 1-3 1-4 neighbors ...
  special bond factors lj:   0          0          1         
  special bond factors coul: 1          1          1         
  5 = max # of 1-2 neighbors
  8 = max # of 1-3 neighbors
  19 = max # of special neighbors
WARNING: Using 'neigh_modify every 1 delay 0 check yes' setting during minimization (../min.cpp:168)
Neighbor list info ...
  update every 1 steps, delay 0 steps, check yes
  max neighbors/atom: 2000, page size: 100000
  master list distance cutoff = 16
  ghost atom cutoff = 16
  binsize = 8, bins = 6 6 6
  3 neighbor lists, perpetual/occasional/extra = 3 0 0
  (1) pair buck6d/coul/gauss/dsf, perpetual, skip from (3)
      attributes: half, newton on
      pair build: skip
      stencil: none
      bin: none
  (2) pair lj/cut, perpetual, skip from (3)
      attributes: half, newton on
      pair build: skip
      stencil: none
      bin: none
  (3) neighbor class addition, perpetual
      attributes: half, newton on
      pair build: half/bin/newton
      stencil: half/bin/3d/newton
      bin: standard
Setting up cg style minimization ...
  Unit style    : real
  Current step  : 0
WARNING: Inconsistent image flags (../domain.cpp:786)
Per MPI rank memory allocation (min/avg/max) = 23.02 | 23.47 | 23.92 Mbytes
Step Temp E_pair E_mol TotEng Press 
       0            0   -15471.471    6482.8914   -8988.5796    6612.0986 
     500            0   -15970.753     3757.622   -12213.131   -1824.0605 
Loop time of 4.38603 on 16 procs for 500 steps with 3220 atoms

99.9% CPU use with 16 MPI tasks x no OpenMP threads

Minimization stats:
  Stopping criterion = max force evaluations
  Energy initial, next-to-last, final = 
        -8988.57959205     -12213.0286519     -12213.1306338
  Force two-norm initial, final = 2575.79 14.4733
  Force max component initial, final = 152.121 1.81845
  Final line search alpha, max atom move = 0.00820239 0.0149156
  Iterations, force evaluations = 500 1000

MPI task timing breakdown:
Section |  min time  |  avg time  |  max time  |%varavg| %total
---------------------------------------------------------------
Pair    | 2.4051     | 2.994      | 3.5396     |  17.6 | 68.26
Bond    | 0.27384    | 0.36084    | 0.45185    |   7.7 |  8.23
Neigh   | 0.03776    | 0.037834   | 0.037906   |   0.0 |  0.86
Comm    | 0.39899    | 0.94799    | 1.5732     |  32.0 | 21.61
Output  | 0          | 0          | 0          |   0.0 |  0.00
Modify  | 0          | 0          | 0          |   0.0 |  0.00
Other   |            | 0.0454     |            |       |  1.03

Nlocal:    201.25 ave 224 max 162 min
Histogram: 1 1 0 0 1 3 2 4 2 2
Nghost:    4018.12 ave 4069 max 3993 min
Histogram: 3 1 4 4 1 1 0 1 0 1
Neighs:    11469.7 ave 16705 max 7011 min
Histogram: 1 2 4 2 0 0 4 0 1 2

Total # of neighbors = 183515
Ave neighs/atom = 56.9922
Ave special neighs/atom = 3.57764
Neighbor list builds = 11
Dangerous builds = 0
Neighbor list info ...
  update every 1 steps, delay 10 steps, check yes
  max neighbors/atom: 2000, page size: 100000
  master list distance cutoff = 16
  ghost atom cutoff = 16
  binsize = 8, bins = 6 6 6
  3 neighbor lists, perpetual/occasional/extra = 3 0 0
  (1) pair buck6d/coul/gauss/dsf, perpetual, skip from (3)
      attributes: half, newton on
      pair build: skip
      stencil: none
      bin: none
  (2) pair lj/cut, perpetual, skip from (3)
      attributes: half, newton on
      pair build: skip
      stencil: none
      bin: none
  (3) neighbor class addition, perpetual
      attributes: half, newton on
      pair build: half/bin/newton
      stencil: half/bin/3d/newton
      bin: standard
Setting up Verlet run ...
  Unit style    : real
  Current step  : 500
  Time step     : 1
WARNING: Inconsistent image flags (../domain.cpp:786)
Per MPI rank memory allocation (min/avg/max) = 22.66 | 22.74 | 22.98 Mbytes
Step Temp PotEng TotEng Press Volume Lx Ly Lz 
     500          130   -12213.131   -10965.751   -1265.0503     102002.7      46.7237      46.7237      46.7237 
    1000    109.73918   -11181.028   -10128.056    314.01887     102002.7      46.7237      46.7237      46.7237 
    2000    131.62053   -10983.167   -9720.2379    431.31291     102002.7      46.7237      46.7237      46.7237 
    3000    131.06041   -11036.346   -9778.7918     457.0743     102002.7      46.7237      46.7237      46.7237 
    4000    131.60467    -11027.81   -9765.0332    749.75155     102002.7      46.7237      46.7237      46.7237 
    5000    130.78012   -11009.235   -9754.3703    296.22692     102002.7      46.7237      46.7237      46.7237 
    6000    130.76265   -11031.965   -9777.2677    344.47476     102002.7      46.7237      46.7237      46.7237 
    7000    129.35761   -11043.965   -9802.7493    673.78114     102002.7      46.7237      46.7237      46.7237 
    8000    129.60329   -11023.994   -9780.4207    326.66867     102002.7      46.7237      46.7237      46.7237 
    9000    130.18886   -11036.324   -9787.1325   -53.791904     102002.7      46.7237      46.7237      46.7237 
   10000     129.8141   -11024.702   -9779.1066    311.22647     102002.7      46.7237      46.7237      46.7237 
   11000    128.82979   -11035.735   -9799.5837    172.45473     102002.7      46.7237      46.7237      46.7237 
   12000    132.31877    -11031.72   -9762.0913    409.60879     102002.7      46.7237      46.7237      46.7237 
   13000    126.56651   -11069.272   -9854.8376     246.4432     102002.7      46.7237      46.7237      46.7237 
   14000    127.93981   -11024.647   -9797.0353    672.45726     102002.7      46.7237      46.7237      46.7237 
   15000    128.68558   -11036.152    -9801.385    537.73054     102002.7      46.7237      46.7237      46.7237 
   16000    128.99869   -11022.351   -9784.5797    612.11025     102002.7      46.7237      46.7237      46.7237 
   17000    129.48729   -11053.238   -9810.7777    468.81472     102002.7      46.7237      46.7237      46.7237 
   18000     128.4364   -11069.177   -9836.8001     649.0256     102002.7      46.7237      46.7237      46.7237 
   19000    129.32319   -11019.555   -9778.6693    594.98619     102002.7      46.7237      46.7237      46.7237 
   20000    130.11136   -11034.662   -9786.2136    490.31093     102002.7      46.7237      46.7237      46.7237 
   21000    132.75543   -11051.766   -9777.9475    155.18756     102002.7      46.7237      46.7237      46.7237 
   22000    128.30954   -11039.531   -9808.3714     510.2096     102002.7      46.7237      46.7237      46.7237 
   23000     130.1227   -11024.541   -9775.9837    558.16462     102002.7      46.7237      46.7237      46.7237 
   24000     130.9796   -11051.759     -9794.98    753.44106     102002.7      46.7237      46.7237      46.7237 
   25000    128.25914   -11028.145   -9797.4691    573.37036     102002.7      46.7237      46.7237      46.7237 
   26000    131.51439   -11079.744   -9817.8337    482.70076     102002.7      46.7237      46.7237      46.7237 
   27000    129.17602   -11027.884   -9788.4109    559.27183     102002.7      46.7237      46.7237      46.7237 
   28000    131.46525   -11008.615   -9747.1762    452.15219     102002.7      46.7237      46.7237      46.7237 
   29000    131.35634   -11055.781   -9795.3873    228.15715     102002.7      46.7237      46.7237      46.7237 
   30000     131.1952   -11022.042   -9763.1939    169.83356     102002.7      46.7237      46.7237      46.7237 
   31000    127.62656   -11065.378   -9840.7725    274.66418     102002.7      46.7237      46.7237      46.7237 
   32000    129.21456   -11019.587   -9779.7439    142.53994     102002.7      46.7237      46.7237      46.7237 
   33000    127.03531   -11034.298   -9815.3657    407.95539     102002.7      46.7237      46.7237      46.7237 
   34000    130.80567   -11028.064   -9772.9543    654.53491     102002.7      46.7237      46.7237      46.7237 
   35000    133.87417   -11038.667   -9754.1134    693.40811     102002.7      46.7237      46.7237      46.7237 
   36000    126.47175   -11024.517   -9810.9915    312.15612     102002.7      46.7237      46.7237      46.7237 
   37000    129.82031    -11030.83   -9785.1742    23.578633     102002.7      46.7237      46.7237      46.7237 
   38000    128.68869   -11029.917   -9795.1198    746.51408     102002.7      46.7237      46.7237      46.7237 
   39000    129.52394   -11007.331   -9764.5193    303.11358     102002.7      46.7237      46.7237      46.7237 
   40000    128.48346   -11036.696   -9803.8679    56.001782     102002.7      46.7237      46.7237      46.7237 
   41000    127.83724   -11034.182    -9807.555    740.47257     102002.7      46.7237      46.7237      46.7237 
   42000    130.72534    -11035.24   -9780.9003    465.31501     102002.7      46.7237      46.7237      46.7237 
   43000    131.31575   -11061.822   -9801.8177    702.19883     102002.7      46.7237      46.7237      46.7237 
   44000    130.18715   -11037.587   -9788.4113    723.08631     102002.7      46.7237      46.7237      46.7237 
   45000    130.78083   -11002.596   -9747.7237    86.031178     102002.7      46.7237      46.7237      46.7237 
   46000    131.06197   -11049.442    -9791.873    154.12442     102002.7      46.7237      46.7237      46.7237 
   47000    129.75614   -11048.292   -9803.2527    99.962497     102002.7      46.7237      46.7237      46.7237 
   48000    131.95353   -11037.254   -9771.1302    128.40726     102002.7      46.7237      46.7237      46.7237 
   49000    128.72388   -11026.579    -9791.444    484.22131     102002.7      46.7237      46.7237      46.7237 
   50000    127.31333   -11042.521   -9820.9202    200.81961     102002.7      46.7237      46.7237      46.7237 
   51000    128.25305   -11039.947   -9809.3302    492.82789     102002.7      46.7237      46.7237      46.7237 
   52000    127.85477   -11029.437   -9802.6417    336.22085     102002.7      46.7237      46.7237      46.7237 
   53000    129.99724   -11043.946   -9796.5933    258.22969     102002.7      46.7237      46.7237      46.7237 
   54000    131.71963   -11044.024   -9780.1441     475.3073     102002.7      46.7237      46.7237      46.7237 
   55000    133.21141    -11029.89   -9751.6963    732.21913     102002.7      46.7237      46.7237      46.7237 
   56000     131.0387   -11030.477   -9773.1306    289.20461     102002.7      46.7237      46.7237      46.7237 
   57000    129.91251   -11035.917   -9789.3765    345.77116     102002.7      46.7237      46.7237      46.7237 
   58000    129.70214    -11073.44   -9828.9183    101.77272     102002.7      46.7237      46.7237      46.7237 
   59000    132.73231   -10984.232   -9710.6352    706.48945     102002.7      46.7237      46.7237      46.7237 
   60000    129.14473   -11016.846    -9777.673    588.23165     102002.7      46.7237      46.7237      46.7237 
   61000     130.8782   -11035.639   -9779.8332    397.04009     102002.7      46.7237      46.7237      46.7237 
   62000    127.63322   -11050.843    -9826.173    239.29314     102002.7      46.7237      46.7237      46.7237 
   63000    127.30566   -11011.112   -9789.5849    481.76485     102002.7      46.7237      46.7237      46.7237 
   64000    130.73741   -11052.355      -9797.9    592.34116     102002.7      46.7237      46.7237      46.7237 
   65000    129.60085   -11047.836   -9804.2868    318.08249     102002.7      46.7237      46.7237      46.7237 
   66000     129.6904   -11032.164   -9787.7546    365.61648     102002.7      46.7237      46.7237      46.7237 
   67000    130.72426   -11008.752   -9754.4233    86.605782     102002.7      46.7237      46.7237      46.7237 
   68000    130.88867   -11051.052   -9795.1451    444.14197     102002.7      46.7237      46.7237      46.7237 
   69000    130.10337   -11021.238   -9772.8669    448.89148     102002.7      46.7237      46.7237      46.7237 
   70000    128.82402   -11040.382   -9804.2858    125.75197     102002.7      46.7237      46.7237      46.7237 
   71000    131.16216   -11048.519   -9789.9878    226.36955     102002.7      46.7237      46.7237      46.7237 
   72000    133.13727   -11017.632   -9740.1491    194.92779     102002.7      46.7237      46.7237      46.7237 
   73000    130.09588   -11053.881   -9805.5811    566.87872     102002.7      46.7237      46.7237      46.7237 
   74000     131.1836   -11025.138   -9766.4016    351.20644     102002.7      46.7237      46.7237      46.7237 
   75000    129.60623   -11038.951   -9795.3496    516.26801     102002.7      46.7237      46.7237      46.7237 
   76000    130.81022   -11026.145   -9770.9914    647.08648     102002.7      46.7237      46.7237      46.7237 
   77000    132.58755   -11044.771   -9772.5637    564.32062     102002.7      46.7237      46.7237      46.7237 
   78000     130.3164   -11011.094   -9760.6786    602.41633     102002.7      46.7237      46.7237      46.7237 
   79000    130.01271   -11035.373   -9787.8712    737.85069     102002.7      46.7237      46.7237      46.7237 
   80000    127.12489   -11045.991   -9826.1989    209.95205     102002.7      46.7237      46.7237      46.7237 
   81000    128.75071   -11015.956   -9780.5633    425.89895     102002.7      46.7237      46.7237      46.7237 
   82000    135.04416   -11017.567   -9721.7874    510.89685     102002.7      46.7237      46.7237      46.7237 
   83000    129.61663   -11008.768   -9765.0672    229.00776     102002.7      46.7237      46.7237      46.7237 
   84000    131.50505   -10985.611   -9723.7897    611.54776     102002.7      46.7237      46.7237      46.7237 
   85000    129.19634   -11040.357   -9800.6887     714.1115     102002.7      46.7237      46.7237      46.7237 
   86000    129.81094   -11022.471   -9776.9052    470.33941     102002.7      46.7237      46.7237      46.7237 
   87000    129.04893   -11029.453    -9791.199    463.01676     102002.7      46.7237      46.7237      46.7237 
   88000    130.84995   -11035.592   -9780.0574    326.09875     102002.7      46.7237      46.7237      46.7237 
   89000    130.50413   -11039.591   -9787.3746    390.51028     102002.7      46.7237      46.7237      46.7237 
   90000    131.26924   -11033.058   -9773.4999    398.06048     102002.7      46.7237      46.7237      46.7237 
   91000    132.17534   -11058.123   -9789.8703    151.27529     102002.7      46.7237      46.7237      46.7237 
   92000    127.86508   -11034.762   -9807.8675    289.15144     102002.7      46.7237      46.7237      46.7237 
   93000    129.59401   -11041.231   -9797.7471    245.05279     102002.7      46.7237      46.7237      46.7237 
   94000    129.13588   -10988.097   -9749.0092    123.67974     102002.7      46.7237      46.7237      46.7237 
   95000    128.09559   -11000.867   -9771.7611    694.75881     102002.7      46.7237      46.7237      46.7237 
   96000    125.88969   -11042.338   -9834.3977    85.246185     102002.7      46.7237      46.7237      46.7237 
   97000    132.98633   -11050.386    -9774.352     137.7481     102002.7      46.7237      46.7237      46.7237 
   98000    132.42726   -11025.082   -9754.4128    352.47155     102002.7      46.7237      46.7237      46.7237 
   99000    128.00123   -11018.937   -9790.7359    296.49171     102002.7      46.7237      46.7237      46.7237 
  100000    126.78998   -11044.644   -9828.0653    271.91308     102002.7      46.7237      46.7237      46.7237 
  101000     127.0595   -11019.403   -9800.2378    194.15292     102002.7      46.7237      46.7237      46.7237 
  102000    128.32847   -11026.459   -9795.1183    139.60556     102002.7      46.7237      46.7237      46.7237 
  103000    131.93867   -11024.224   -9758.2429    164.69425     102002.7      46.7237      46.7237      46.7237 
  104000    130.75776   -11045.136   -9790.4854     231.5555     102002.7      46.7237      46.7237      46.7237 
  105000    129.27093   -11054.022   -9813.6382    384.80146     102002.7      46.7237      46.7237      46.7237 
  106000    132.28927   -11045.586   -9776.2402    487.23953     102002.7      46.7237      46.7237      46.7237 
  107000    129.10076   -11028.456   -9789.7049    307.26628     102002.7      46.7237      46.7237      46.7237 
  108000    130.24614   -11026.884   -9777.1422    200.31211     102002.7      46.7237      46.7237      46.7237 
  109000    127.72961   -11037.477   -9811.8827    130.15464     102002.7      46.7237      46.7237      46.7237 
  110000    133.83186   -11018.458   -9734.3112    253.00649     102002.7      46.7237      46.7237      46.7237 
  111000      128.299   -11024.958   -9793.8999    547.60175     102002.7      46.7237      46.7237      46.7237 
  112000    128.84084   -11018.355   -9782.0982    121.83678     102002.7      46.7237      46.7237      46.7237 
  113000    127.80964   -11029.373   -9803.0104   -51.519679     102002.7      46.7237      46.7237      46.7237 
  114000     131.6785   -11030.483   -9766.9974    529.10993     102002.7      46.7237      46.7237      46.7237 
  115000    131.08728    -11004.79    -9746.978    207.19563     102002.7      46.7237      46.7237      46.7237 
  116000    132.24664   -11019.455   -9750.5184    253.54921     102002.7      46.7237      46.7237      46.7237 
  117000     126.7437   -11020.163   -9804.0284    507.62285     102002.7      46.7237      46.7237      46.7237 
  118000    132.46577   -11016.778   -9745.7391     397.6474     102002.7      46.7237      46.7237      46.7237 
  119000    127.30135   -11026.247   -9804.7615    346.17957     102002.7      46.7237      46.7237      46.7237 
  120000    130.22517    -11030.89   -9781.3498    58.578259     102002.7      46.7237      46.7237      46.7237 
  121000    128.21904   -11016.934   -9786.6431    42.528655     102002.7      46.7237      46.7237      46.7237 
  122000    129.33009   -11039.888   -9798.9365    384.66205     102002.7      46.7237      46.7237      46.7237 
  123000    130.37726    -11047.38   -9796.3809    303.15668     102002.7      46.7237      46.7237      46.7237 
  124000    130.90932   -11023.588   -9767.4828    418.08171     102002.7      46.7237      46.7237      46.7237 
  125000    131.06981   -11034.436   -9776.7909    52.795283     102002.7      46.7237      46.7237      46.7237 
  126000    132.65503    -11053.83   -9780.9743    261.40284     102002.7      46.7237      46.7237      46.7237 
  127000    130.07938   -11029.827   -9781.6853    273.23749     102002.7      46.7237      46.7237      46.7237 
  128000    127.89017   -11058.925   -9831.7897    556.11763     102002.7      46.7237      46.7237      46.7237 
  129000     130.5553   -11038.829   -9786.1213    578.01716     102002.7      46.7237      46.7237      46.7237 
  130000    132.21518   -11042.306    -9773.671    340.24692     102002.7      46.7237      46.7237      46.7237 
  131000     130.3347   -11026.595   -9776.0042    110.88037     102002.7      46.7237      46.7237      46.7237 
  132000     131.8183   -11023.507   -9758.6806    311.42651     102002.7      46.7237      46.7237      46.7237 
  133000    128.36687   -11033.408   -9801.6984    369.87982     102002.7      46.7237      46.7237      46.7237 
  134000    127.91844   -11050.515   -9823.1084    131.06142     102002.7      46.7237      46.7237      46.7237 
  135000     129.3941   -11044.323   -9802.7569   -30.560264     102002.7      46.7237      46.7237      46.7237 
  136000    132.64135    -11055.46    -9782.736    191.29072     102002.7      46.7237      46.7237      46.7237 
  137000    129.41122   -11058.296   -9816.5661    157.41461     102002.7      46.7237      46.7237      46.7237 
  138000    131.13309     -11032.7   -9774.4481    474.53158     102002.7      46.7237      46.7237      46.7237 
  139000     132.7316   -11028.825   -9755.2346    282.30954     102002.7      46.7237      46.7237      46.7237 
  140000    129.57825   -11057.827   -9814.4944    113.18934     102002.7      46.7237      46.7237      46.7237 
  141000    131.38646   -11040.159   -9779.4765    617.46834     102002.7      46.7237      46.7237      46.7237 
  142000     128.1772   -11033.519   -9803.6297    300.71408     102002.7      46.7237      46.7237      46.7237 
  143000     131.6147   -11027.588   -9764.7151     424.1812     102002.7      46.7237      46.7237      46.7237 
  144000    130.12246   -11034.731   -9786.1761    550.96549     102002.7      46.7237      46.7237      46.7237 
  145000    128.36902   -11029.752   -9798.0225    510.50343     102002.7      46.7237      46.7237      46.7237 
  146000    128.25891   -11071.363   -9840.6892    367.08833     102002.7      46.7237      46.7237      46.7237 
  147000    127.59309    -11025.12    -9800.835    385.10893     102002.7      46.7237      46.7237      46.7237 
  148000    129.95295    -11045.33   -9798.4018    520.89874     102002.7      46.7237      46.7237      46.7237 
  149000    128.19659   -11011.994   -9781.9181    711.48533     102002.7      46.7237      46.7237      46.7237 
  150000    128.80408   -11051.508   -9815.6039    429.43459     102002.7      46.7237      46.7237      46.7237 
  151000    131.23222   -11045.264   -9786.0613    566.90029     102002.7      46.7237      46.7237      46.7237 
  152000    129.85025   -11033.256    -9787.313     474.5687     102002.7      46.7237      46.7237      46.7237 
  153000    130.05212   -11050.688   -9802.8087     261.4201     102002.7      46.7237      46.7237      46.7237 
  154000    129.53762   -11055.835   -9812.8921    340.38452     102002.7      46.7237      46.7237      46.7237 
  155000    132.17747   -11054.702   -9786.4295    549.79791     102002.7      46.7237      46.7237      46.7237 
  156000    130.46194   -11049.653   -9797.8413    290.89653     102002.7      46.7237      46.7237      46.7237 
  157000     127.7719   -11049.977   -9823.9765    326.52812     102002.7      46.7237      46.7237      46.7237 
  158000    129.95642   -11040.335   -9793.3737    621.17306     102002.7      46.7237      46.7237      46.7237 
  159000    129.06945   -11055.463   -9817.0118    488.39352     102002.7      46.7237      46.7237      46.7237 
  160000    131.74857   -11046.862   -9782.7046    598.72035     102002.7      46.7237      46.7237      46.7237 
  161000    127.21645   -11023.932   -9803.2609    188.08859     102002.7      46.7237      46.7237      46.7237 
  162000    129.69855   -11009.503   -9765.0156    512.60399     102002.7      46.7237      46.7237      46.7237 
  163000    132.86063   -11077.547    -9802.719    76.760056     102002.7      46.7237      46.7237      46.7237 
  164000    130.45253   -11032.536   -9780.8141      52.9998     102002.7      46.7237      46.7237      46.7237 
  165000    129.72636   -11044.975   -9800.2214     175.9603     102002.7      46.7237      46.7237      46.7237 
  166000     129.5735   -11047.443   -9804.1561    389.76551     102002.7      46.7237      46.7237      46.7237 
  167000    132.48912   -11044.562    -9773.299    402.40176     102002.7      46.7237      46.7237      46.7237 
  168000    128.80761    -11052.92   -9816.9819    510.22642     102002.7      46.7237      46.7237      46.7237 
  169000    129.92529   -11038.987   -9792.3242    213.35974     102002.7      46.7237      46.7237      46.7237 
  170000     127.8603   -11062.688   -9835.8393    363.88746     102002.7      46.7237      46.7237      46.7237 
  171000    130.41401   -11028.792   -9777.4402     195.4288     102002.7      46.7237      46.7237      46.7237 
  172000    131.79512   -11013.084   -9748.4797    275.94794     102002.7      46.7237      46.7237      46.7237 
  173000    128.43526   -11050.876   -9818.5104    444.83896     102002.7      46.7237      46.7237      46.7237 
  174000    131.83617   -11023.942   -9758.9435    227.45558     102002.7      46.7237      46.7237      46.7237 
  175000    131.60297   -11032.238   -9769.4776    283.94448     102002.7      46.7237      46.7237      46.7237 
  176000    132.76645   -11046.233   -9772.3088    247.41123     102002.7      46.7237      46.7237      46.7237 
  177000    131.51744    -11042.25   -9780.3104   -13.577762     102002.7      46.7237      46.7237      46.7237 
  178000     132.5217   -11031.856   -9760.2799    278.32512     102002.7      46.7237      46.7237      46.7237 
  179000    131.42806   -11030.526   -9769.4442     160.5866     102002.7      46.7237      46.7237      46.7237 
  180000    128.25585   -11037.149   -9806.5054     319.4808     102002.7      46.7237      46.7237      46.7237 
  181000     132.1901   -11046.677   -9778.2828     364.7108     102002.7      46.7237      46.7237      46.7237 
  182000    129.81492   -11021.797   -9776.1936    406.80868     102002.7      46.7237      46.7237      46.7237 
  183000     126.5395   -11052.954   -9838.7788    240.09128     102002.7      46.7237      46.7237      46.7237 
  184000    130.31201   -11023.064   -9772.6902    445.27134     102002.7      46.7237      46.7237      46.7237 
  185000    130.81942   -11059.401   -9804.1584    455.84934     102002.7      46.7237      46.7237      46.7237 
  186000    129.94931   -11043.184   -9796.2906    273.54746     102002.7      46.7237      46.7237      46.7237 
  187000    133.75607   -11081.587   -9798.1675    484.07928     102002.7      46.7237      46.7237      46.7237 
  188000    132.94372    -11035.76   -9760.1344    597.60706     102002.7      46.7237      46.7237      46.7237 
  189000    127.82754   -11033.104   -9806.5701    306.25604     102002.7      46.7237      46.7237      46.7237 
  190000    131.77422   -11034.721   -9770.3178    318.90151     102002.7      46.7237      46.7237      46.7237 
  191000     133.3563   -11039.859   -9760.2751     625.6721     102002.7      46.7237      46.7237      46.7237 
  192000    127.27445   -11027.193   -9805.9654    470.66404     102002.7      46.7237      46.7237      46.7237 
  193000    127.66505   -11032.254   -9807.2788    431.14812     102002.7      46.7237      46.7237      46.7237 
  194000    132.36052   -11076.336   -9806.3067    218.11638     102002.7      46.7237      46.7237      46.7237 
  195000    130.96711   -11047.124   -9790.4652    219.02449     102002.7      46.7237      46.7237      46.7237 
  196000    128.56698   -11041.939   -9808.3095    377.77604     102002.7      46.7237      46.7237      46.7237 
  197000    129.13892   -11062.359   -9823.2412    264.34642     102002.7      46.7237      46.7237      46.7237 
  198000    129.69567   -11038.123   -9793.6638    353.84793     102002.7      46.7237      46.7237      46.7237 
  199000    130.76004   -11029.522   -9774.8493    573.63372     102002.7      46.7237      46.7237      46.7237 
  200000    131.99407   -11010.929   -9744.4158    471.15402     102002.7      46.7237      46.7237      46.7237 
  201000    131.70696   -11039.361    -9775.603    568.28079     102002.7      46.7237      46.7237      46.7237 
  202000    129.43198   -11040.237   -9798.3073    284.44254     102002.7      46.7237      46.7237      46.7237 
  203000    131.35994   -11025.329      -9764.9    54.173158     102002.7      46.7237      46.7237      46.7237 
  204000    131.53464   -11057.946   -9795.8409    40.393515     102002.7      46.7237      46.7237      46.7237 
  205000    127.61835    -11059.39   -9834.8632   -11.463897     102002.7      46.7237      46.7237      46.7237 
  206000    130.18412   -11046.021   -9796.8745    149.87037     102002.7      46.7237      46.7237      46.7237 
  207000    128.58253    -11020.87   -9787.0916    75.612994     102002.7      46.7237      46.7237      46.7237 
  208000     132.8925    -11040.69   -9765.5558    205.08243     102002.7      46.7237      46.7237      46.7237 
  209000    130.00459   -11059.173   -9811.7489    146.77068     102002.7      46.7237      46.7237      46.7237 
  210000    131.88898   -11027.737   -9762.2319    380.18295     102002.7      46.7237      46.7237      46.7237 
  211000    129.51862   -11041.019   -9798.2587     181.1585     102002.7      46.7237      46.7237      46.7237 
  212000    130.04278   -11059.861   -9812.0711    642.43938     102002.7      46.7237      46.7237      46.7237 
  213000    131.22501   -11026.107   -9766.9733    422.72622     102002.7      46.7237      46.7237      46.7237 
  214000    128.78478   -11034.289   -9798.5702    327.55639     102002.7      46.7237      46.7237      46.7237 
  215000     128.6709   -11004.405   -9769.7783    374.16594     102002.7      46.7237      46.7237      46.7237 
  216000    127.82157   -11060.957   -9834.4797    96.643691     102002.7      46.7237      46.7237      46.7237 
  217000    130.64793    -11046.06   -9792.4634    526.67492     102002.7      46.7237      46.7237      46.7237 
  218000    126.73972   -11038.841   -9822.7444    328.88888     102002.7      46.7237      46.7237      46.7237 
  219000    132.85447   -11061.882   -9787.1132    293.72937     102002.7      46.7237      46.7237      46.7237 
  220000    127.49309   -11017.704   -9794.3784    504.38899     102002.7      46.7237      46.7237      46.7237 
  221000    128.52963   -11039.423   -9806.1523    285.66904     102002.7      46.7237      46.7237      46.7237 
  222000    131.95081   -11044.558   -9778.4599    139.45955     102002.7      46.7237      46.7237      46.7237 
  223000    132.09685   -11045.055    -9777.556    131.61071     102002.7      46.7237      46.7237      46.7237 
  224000    129.84847   -11048.348   -9802.4227    471.96978     102002.7      46.7237      46.7237      46.7237 
  225000    128.92077    -11027.18   -9790.1562     507.9685     102002.7      46.7237      46.7237      46.7237 
  226000    128.01433   -11031.044   -9802.7176    164.69134     102002.7      46.7237      46.7237      46.7237 
  227000    131.95537   -11030.437    -9764.295    210.10825     102002.7      46.7237      46.7237      46.7237 
  228000    132.23946   -11077.775   -9808.9072    467.57628     102002.7      46.7237      46.7237      46.7237 
  229000     130.9474   -11013.244   -9756.7744    259.46373     102002.7      46.7237      46.7237      46.7237 
  230000     127.6662   -11048.062   -9823.0755    376.03696     102002.7      46.7237      46.7237      46.7237 
  231000    130.65323   -11081.898   -9828.2505    158.93365     102002.7      46.7237      46.7237      46.7237 
  232000    129.43243   -11055.707   -9813.7738    6.1363892     102002.7      46.7237      46.7237      46.7237 
  233000    129.92267   -11069.116   -9822.4785    408.71157     102002.7      46.7237      46.7237      46.7237 
  234000    131.91851    -11044.88   -9779.0921    238.70466     102002.7      46.7237      46.7237      46.7237 
  235000    124.60491   -11037.017   -9841.4042    329.10455     102002.7      46.7237      46.7237      46.7237 
  236000    131.35095   -11020.963   -9760.6205     193.7016     102002.7      46.7237      46.7237      46.7237 
  237000    128.39195   -11026.475   -9794.5246     492.5562     102002.7      46.7237      46.7237      46.7237 
  238000    129.49003   -11045.436   -9802.9501    333.87097     102002.7      46.7237      46.7237      46.7237 
  239000    129.81604   -11037.825   -9792.2107    166.63929     102002.7      46.7237      46.7237      46.7237 
  240000    130.11166   -11029.382   -9780.9313    350.18022     102002.7      46.7237      46.7237      46.7237 
  241000     128.8314   -11079.085   -9842.9186     335.0177     102002.7      46.7237      46.7237      46.7237 
  242000    129.06957    -11048.66   -9810.2076    103.79418     102002.7      46.7237      46.7237      46.7237 
  243000    131.35206   -11018.894   -9758.5406    528.59606     102002.7      46.7237      46.7237      46.7237 
  244000    131.72344   -11014.612   -9750.6958      570.687     102002.7      46.7237      46.7237      46.7237 
  245000    130.57063    -11025.02   -9772.1646    397.03725     102002.7      46.7237      46.7237      46.7237 
  246000    128.37515   -11040.697   -9808.9079    57.894277     102002.7      46.7237      46.7237      46.7237 
  247000    135.03431   -11042.268   -9746.5829    433.45427     102002.7      46.7237      46.7237      46.7237 
  248000    129.98842   -11035.687   -9788.4188    488.09594     102002.7      46.7237      46.7237      46.7237 
  249000    130.60035   -11038.573   -9785.4329    247.50495     102002.7      46.7237      46.7237      46.7237 
  250000     130.4459   -11056.264   -9804.6058    160.90319     102002.7      46.7237      46.7237      46.7237 
  251000    129.97494   -11063.134   -9815.9945    62.667419     102002.7      46.7237      46.7237      46.7237 
  252000    130.38857    -11033.65   -9782.5423    77.064166     102002.7      46.7237      46.7237      46.7237 
  253000    130.09215   -11039.269   -9791.0055    595.57086     102002.7      46.7237      46.7237      46.7237 
  254000    131.32175    -11029.18   -9769.1181    447.94258     102002.7      46.7237      46.7237      46.7237 
  255000     129.4847   -11053.058   -9810.6228    190.29527     102002.7      46.7237      46.7237      46.7237 
  256000    131.45348   -11014.971   -9753.6454    183.98538     102002.7      46.7237      46.7237      46.7237 
  257000    130.90522     -11014.9    -9758.835    525.39877     102002.7      46.7237      46.7237      46.7237 
  258000    129.73499   -11030.656   -9785.8197     677.3995     102002.7      46.7237      46.7237      46.7237 
  259000    132.08073   -11057.269   -9789.9238    188.01717     102002.7      46.7237      46.7237      46.7237 
  260000    133.99491   -11037.973   -9752.2612    228.50706     102002.7      46.7237      46.7237      46.7237 
  261000    133.13945   -11045.485   -9767.9814    687.86502     102002.7      46.7237      46.7237      46.7237 
  262000     128.9261   -11018.827    -9781.752     175.0017     102002.7      46.7237      46.7237      46.7237 
  263000    132.01423   -11017.988   -9751.2815    365.65737     102002.7      46.7237      46.7237      46.7237 
  264000    131.40586    -11017.71   -9756.8405    211.23996     102002.7      46.7237      46.7237      46.7237 
  265000     128.4699   -11028.629   -9795.9311    428.44714     102002.7      46.7237      46.7237      46.7237 
  266000    133.85809    -11022.22   -9737.8208   0.97579351     102002.7      46.7237      46.7237      46.7237 
  267000    132.05142   -11026.469   -9759.4058    411.11473     102002.7      46.7237      46.7237      46.7237 
  268000    129.60909   -11044.856   -9801.2271    557.43675     102002.7      46.7237      46.7237      46.7237 
  269000    131.25212   -11056.992   -9797.5986    290.95487     102002.7      46.7237      46.7237      46.7237 
  270000    129.33939   -11040.584   -9799.5427    225.05231     102002.7      46.7237      46.7237      46.7237 
  271000    132.61839   -11036.307   -9763.8035    104.27474     102002.7      46.7237      46.7237      46.7237 
  272000    130.89954   -11036.045   -9780.0343    288.30701     102002.7      46.7237      46.7237      46.7237 
  273000    132.80024   -11055.573   -9781.3249    224.71449     102002.7      46.7237      46.7237      46.7237 
  274000     130.6965   -11033.841   -9779.7778    246.02715     102002.7      46.7237      46.7237      46.7237 
  275000    126.51226   -11047.526    -9833.612    454.08209     102002.7      46.7237      46.7237      46.7237 
  276000    126.38701    -11049.42   -9836.7078    240.40555     102002.7      46.7237      46.7237      46.7237 
  277000    129.43641    -11034.89   -9792.9183    339.81101     102002.7      46.7237      46.7237      46.7237 
  278000    128.69662   -11040.875   -9806.0014    410.10091     102002.7      46.7237      46.7237      46.7237 
  279000    127.60824   -11066.952   -9842.5224    562.30023     102002.7      46.7237      46.7237      46.7237 
  280000    128.28135   -11042.778    -9811.889    402.25764     102002.7      46.7237      46.7237      46.7237 
  281000    128.62159   -11047.445   -9813.2912     412.1275     102002.7      46.7237      46.7237      46.7237 
  282000    131.66663   -11055.179   -9791.8082    256.10834     102002.7      46.7237      46.7237      46.7237 
  283000    127.84147   -11059.906    -9833.238    500.23886     102002.7      46.7237      46.7237      46.7237 
  284000    128.08189   -11031.136   -9802.1609    342.69381     102002.7      46.7237      46.7237      46.7237 
  285000    132.76427   -11029.834   -9755.9303    415.34493     102002.7      46.7237      46.7237      46.7237 
  286000    130.85525   -11034.861   -9779.2752    208.32521     102002.7      46.7237      46.7237      46.7237 
  287000    126.96801    -11040.83    -9822.543    281.34516     102002.7      46.7237      46.7237      46.7237 
  288000    130.30861   -11060.737   -9810.3964    442.72672     102002.7      46.7237      46.7237      46.7237 
  289000    132.63703   -11042.837   -9770.1541    443.52352     102002.7      46.7237      46.7237      46.7237 
  290000    128.59762   -11029.338   -9795.4143    613.43665     102002.7      46.7237      46.7237      46.7237 
  291000    133.28573   -11048.698   -9769.7911    459.21447     102002.7      46.7237      46.7237      46.7237 
  292000    131.13546   -11056.349   -9798.0743    1.9810123     102002.7      46.7237      46.7237      46.7237 
  293000    127.48126   -11030.925   -9807.7133     317.3573     102002.7      46.7237      46.7237      46.7237 
  294000    124.58221   -11062.201   -9866.8063    59.729259     102002.7      46.7237      46.7237      46.7237 
  295000    129.92186   -11014.228   -9767.5986    405.29981     102002.7      46.7237      46.7237      46.7237 
  296000    127.52476   -11019.639   -9796.0097    326.38892     102002.7      46.7237      46.7237      46.7237 
  297000    129.49185   -11016.408   -9773.9046    261.13967     102002.7      46.7237      46.7237      46.7237 
  298000    131.48169   -11068.703   -9807.1059    504.22283     102002.7      46.7237      46.7237      46.7237 
  299000    126.83513   -11021.162   -9804.1499    94.639576     102002.7      46.7237      46.7237      46.7237 
  300000    130.93588   -10994.043    -9737.683    375.44264     102002.7      46.7237      46.7237      46.7237 
  301000    129.73455   -11026.081   -9781.2488    355.62912     102002.7      46.7237      46.7237      46.7237 
  302000     131.7931   -11044.831   -9780.2459    378.70581     102002.7      46.7237      46.7237      46.7237 
  303000    130.49629   -11028.906   -9776.7642     430.5372     102002.7      46.7237      46.7237      46.7237 
  304000    129.41592    -11042.44   -9800.6647    303.61454     102002.7      46.7237      46.7237      46.7237 
  305000    131.63192   -11055.599   -9792.5605    297.52882     102002.7      46.7237      46.7237      46.7237 
  306000    129.74634   -11035.453   -9790.5069    531.49465     102002.7      46.7237      46.7237      46.7237 
  307000    130.79966   -11022.703   -9767.6506    149.00832     102002.7      46.7237      46.7237      46.7237 
  308000    129.32919   -11016.664   -9775.7209    207.74403     102002.7      46.7237      46.7237      46.7237 
  309000    131.37991   -11057.156   -9796.5362    413.18549     102002.7      46.7237      46.7237      46.7237 
  310000    129.08257   -11041.341   -9802.7647    332.54865     102002.7      46.7237      46.7237      46.7237 
  311000    128.54673   -11024.569   -9791.1341    150.40481     102002.7      46.7237      46.7237      46.7237 
  312000     128.4033   -11025.711   -9793.6525    60.816028     102002.7      46.7237      46.7237      46.7237 
  313000    129.08271   -11011.732   -9773.1538    217.64534     102002.7      46.7237      46.7237      46.7237 
  314000    131.89898   -11070.351   -9804.7504    492.06429     102002.7      46.7237      46.7237      46.7237 
  315000    131.30384   -11036.123   -9776.2328    320.41622     102002.7      46.7237      46.7237      46.7237 
  316000    127.02116   -11043.685   -9824.8877    301.04291     102002.7      46.7237      46.7237      46.7237 
  317000    128.13343   -11039.135   -9809.6656    362.53056     102002.7      46.7237      46.7237      46.7237 
  318000    130.92962   -10984.449   -9728.1493    425.61574     102002.7      46.7237      46.7237      46.7237 
  319000    130.75427   -11052.535   -9797.9183    478.36115     102002.7      46.7237      46.7237      46.7237 
  320000    136.30252   -11043.286   -9735.4322    495.08411     102002.7      46.7237      46.7237      46.7237 
  321000    130.49284   -11066.751   -9814.6423    145.46241     102002.7      46.7237      46.7237      46.7237 
  322000    129.30945   -11058.017   -9817.2633    504.20901     102002.7      46.7237      46.7237      46.7237 
  323000    130.09762   -11080.852   -9832.5354    476.74965     102002.7      46.7237      46.7237      46.7237 
  324000    129.86355   -11043.108   -9797.0379    361.17963     102002.7      46.7237      46.7237      46.7237 
  325000    128.75668   -11014.404    -9778.954    404.54928     102002.7      46.7237      46.7237      46.7237 
  326000    132.73813    -11011.26   -9737.6075     460.9586     102002.7      46.7237      46.7237      46.7237 
  327000    133.94663   -11056.078   -9770.8295    359.71562     102002.7      46.7237      46.7237      46.7237 
  328000    130.21115   -11048.899   -9799.4936    206.19698     102002.7      46.7237      46.7237      46.7237 
  329000    132.83434   -11027.722   -9753.1466    161.14557     102002.7      46.7237      46.7237      46.7237 
  330000    128.31447   -11051.882   -9820.6751    158.05607     102002.7      46.7237      46.7237      46.7237 
  331000    129.20536   -11067.228   -9827.4729    128.70329     102002.7      46.7237      46.7237      46.7237 
  332000    129.88117   -11060.096   -9813.8563    328.67149     102002.7      46.7237      46.7237      46.7237 
  333000    131.98996   -11028.749   -9762.2754    473.06006     102002.7      46.7237      46.7237      46.7237 
  334000    128.40158   -11043.481   -9811.4382    483.06694     102002.7      46.7237      46.7237      46.7237 
  335000    131.20802   -11056.532   -9797.5608    349.24896     102002.7      46.7237      46.7237      46.7237 
  336000    130.84418   -11040.026   -9784.5461     618.5257     102002.7      46.7237      46.7237      46.7237 
  337000    128.64594   -11056.301   -9821.9139    259.92536     102002.7      46.7237      46.7237      46.7237 
  338000    128.91308   -11033.271   -9796.3204    156.94679     102002.7      46.7237      46.7237      46.7237 
  339000    128.06155   -11017.031   -9788.2512    321.59289     102002.7      46.7237      46.7237      46.7237 
  340000    132.75189   -11034.613   -9760.8285    206.52344     102002.7      46.7237      46.7237      46.7237 
  341000    129.19453   -11047.398   -9807.7473     380.5112     102002.7      46.7237      46.7237      46.7237 
  342000    130.06187   -11032.991   -9785.0179    341.86171     102002.7      46.7237      46.7237      46.7237 
  343000    126.40861   -11018.792   -9805.8728    632.26212     102002.7      46.7237      46.7237      46.7237 
  344000    130.86481   -11049.554   -9793.8759    289.22031     102002.7      46.7237      46.7237      46.7237 
  345000    129.27788   -11057.075   -9816.6243    238.83169     102002.7      46.7237      46.7237      46.7237 
  346000    133.13512   -11017.862   -9740.4007    520.05989     102002.7      46.7237      46.7237      46.7237 
  347000    130.94751   -11060.924   -9804.4527    326.32815     102002.7      46.7237      46.7237      46.7237 
  348000     131.8719   -11032.992   -9767.6511    61.600718     102002.7      46.7237      46.7237      46.7237 
  349000    128.32882   -11031.771   -9800.4272     325.1783     102002.7      46.7237      46.7237      46.7237 
  350000    131.46976   -11015.514   -9754.0317   -12.352007     102002.7      46.7237      46.7237      46.7237 
  351000     130.9365   -11061.013   -9804.6479    22.738103     102002.7      46.7237      46.7237      46.7237 
  352000    135.28192   -11060.274    -9762.213    304.43071     102002.7      46.7237      46.7237      46.7237 
  353000    130.54656   -11042.519   -9789.8952      286.043     102002.7      46.7237      46.7237      46.7237 
  354000    125.98552   -11029.605   -9820.7452    328.54365     102002.7      46.7237      46.7237      46.7237 
  355000    130.26754   -11010.771   -9760.8242    120.17311     102002.7      46.7237      46.7237      46.7237 
  356000    131.28594   -11019.001   -9759.2825      512.347     102002.7      46.7237      46.7237      46.7237 
  357000    128.13217   -11010.276   -9780.8182    710.33439     102002.7      46.7237      46.7237      46.7237 
  358000    128.98721    -11070.26   -9832.5981    321.83378     102002.7      46.7237      46.7237      46.7237 
  359000    127.64874   -10991.217   -9766.3983    515.63698     102002.7      46.7237      46.7237      46.7237 
  360000    129.03499   -11022.795   -9784.6747   -14.175897     102002.7      46.7237      46.7237      46.7237 
  361000    128.14928   -11026.397   -9796.7757    304.51249     102002.7      46.7237      46.7237      46.7237 
  362000    131.83812    -11057.76   -9792.7433    212.54936     102002.7      46.7237      46.7237      46.7237 
  363000    128.65942   -11038.792    -9804.276    145.77075     102002.7      46.7237      46.7237      46.7237 
  364000     127.3698   -11050.109   -9827.9664    61.554934     102002.7      46.7237      46.7237      46.7237 
  365000    131.14603   -11027.983   -9769.6067    318.10332     102002.7      46.7237      46.7237      46.7237 
  366000    127.90236   -11036.011    -9808.759    112.74649     102002.7      46.7237      46.7237      46.7237 
  367000    129.14618   -11066.836   -9827.6486   -86.346566     102002.7      46.7237      46.7237      46.7237 
  368000    128.88835   -11032.546   -9795.8333    344.87208     102002.7      46.7237      46.7237      46.7237 
  369000    130.13852   -11040.152    -9791.443    248.31088     102002.7      46.7237      46.7237      46.7237 
  370000    132.28764   -11006.085   -9736.7554    576.81833     102002.7      46.7237      46.7237      46.7237 
  371000    126.67075    -11019.98   -9804.5458      346.831     102002.7      46.7237      46.7237      46.7237 
  372000     130.9517   -11053.414   -9796.9031    287.15004     102002.7      46.7237      46.7237      46.7237 
  373000    128.57145   -11056.282   -9822.6097    411.89567     102002.7      46.7237      46.7237      46.7237 
  374000    131.37893   -11064.362   -9803.7513     364.8032     102002.7      46.7237      46.7237      46.7237 
  375000    131.71807   -11039.351   -9775.4858    250.55629     102002.7      46.7237      46.7237      46.7237 
  376000    127.04305   -11054.799   -9835.7917     275.8246     102002.7      46.7237      46.7237      46.7237 
  377000    129.19105   -11048.794   -9809.1769   -94.232445     102002.7      46.7237      46.7237      46.7237 
  378000    126.62677   -11038.717   -9823.7046   -89.868058     102002.7      46.7237      46.7237      46.7237 
  379000     129.9201   -11018.653   -9772.0402    170.91877     102002.7      46.7237      46.7237      46.7237 
  380000    129.22349   -11080.004   -9840.0754     99.64482     102002.7      46.7237      46.7237      46.7237 
  381000    131.12493   -11058.581   -9800.4079    373.96967     102002.7      46.7237      46.7237      46.7237 
  382000    128.99344   -11074.258    -9836.537    223.94599     102002.7      46.7237      46.7237      46.7237 
  383000    133.00809   -11051.942   -9775.6987    403.47898     102002.7      46.7237      46.7237      46.7237 
  384000    133.94051   -11043.424   -9758.2341    210.97912     102002.7      46.7237      46.7237      46.7237 
  385000    129.85655   -11051.394   -9805.3904    624.21305     102002.7      46.7237      46.7237      46.7237 
  386000    130.43079   -11081.102   -9829.5887    421.86046     102002.7      46.7237      46.7237      46.7237 
  387000    123.17344   -11024.347   -9842.4696    284.66333     102002.7      46.7237      46.7237      46.7237 
  388000    133.85186   -11082.186    -9797.847    283.40905     102002.7      46.7237      46.7237      46.7237 
  389000    131.87086    -11016.41   -9751.0792   -3.0055754     102002.7      46.7237      46.7237      46.7237 
  390000    127.54476   -11054.784   -9830.9628    374.20098     102002.7      46.7237      46.7237      46.7237 
  391000    130.07926   -11039.277   -9791.1364    45.484324     102002.7      46.7237      46.7237      46.7237 
  392000    129.25299   -11041.085   -9800.8735   -28.770049     102002.7      46.7237      46.7237      46.7237 
  393000    128.20828   -11032.791   -9802.6034    362.40905     102002.7      46.7237      46.7237      46.7237 
  394000    130.67081   -11027.551   -9773.7352    245.85692     102002.7      46.7237      46.7237      46.7237 
  395000    130.67219   -11040.644   -9786.8151    537.40741     102002.7      46.7237      46.7237      46.7237 
  396000    127.61265    -11040.22   -9815.7474    335.59426     102002.7      46.7237      46.7237      46.7237 
  397000    130.20416    -11058.19   -9808.8514    408.86122     102002.7      46.7237      46.7237      46.7237 
  398000    132.56574   -11039.613   -9767.6141    604.79208     102002.7      46.7237      46.7237      46.7237 
  399000    130.81674   -11053.961   -9798.7444    343.97761     102002.7      46.7237      46.7237      46.7237 
  400000    129.53449   -11043.161   -9800.2478    180.30018     102002.7      46.7237      46.7237      46.7237 
  401000    134.14348   -11054.417   -9767.2802    178.07324     102002.7      46.7237      46.7237      46.7237 
  402000    128.31317   -11022.299   -9791.1052    481.68613     102002.7      46.7237      46.7237      46.7237 
  403000     128.1147   -11021.948   -9792.6581    125.37745     102002.7      46.7237      46.7237      46.7237 
  404000    131.49672   -11039.153   -9777.4118    473.15779     102002.7      46.7237      46.7237      46.7237 
  405000    130.25817   -11064.063    -9814.206    326.06182     102002.7      46.7237      46.7237      46.7237 
  406000    132.93434   -11005.564   -9730.0287    378.04467     102002.7      46.7237      46.7237      46.7237 
  407000    130.43806   -11040.739   -9789.1557    251.58382     102002.7      46.7237      46.7237      46.7237 
  408000    131.21815   -11051.985   -9792.9166    261.82651     102002.7      46.7237      46.7237      46.7237 
  409000    130.01867   -11004.842   -9757.2831     295.3342     102002.7      46.7237      46.7237      46.7237 
  410000    128.90839   -11060.052   -9823.1464    292.84116     102002.7      46.7237      46.7237      46.7237 
  411000    128.71819   -11015.804   -9780.7241    576.24906     102002.7      46.7237      46.7237      46.7237 
  412000    128.38924   -11074.526   -9842.6016    192.76634     102002.7      46.7237      46.7237      46.7237 
  413000    130.08833   -11051.895   -9803.6677    641.84438     102002.7      46.7237      46.7237      46.7237 
  414000    129.08906   -11016.557   -9777.9177    411.56136     102002.7      46.7237      46.7237      46.7237 
  415000    132.43567   -11021.308    -9750.558    542.99257     102002.7      46.7237      46.7237      46.7237 
  416000    129.46871   -11045.287   -9803.0055    376.83072     102002.7      46.7237      46.7237      46.7237 
  417000    125.40127   -11028.254   -9825.0006    315.05788     102002.7      46.7237      46.7237      46.7237 
  418000    133.26811   -11039.633   -9760.8953    242.54266     102002.7      46.7237      46.7237      46.7237 
  419000    130.90379   -11050.331   -9794.2797    179.07958     102002.7      46.7237      46.7237      46.7237 
  420000    129.34003   -11054.412    -9813.365    536.78754     102002.7      46.7237      46.7237      46.7237 
  421000    129.05965   -11035.074   -9796.7169   -64.344574     102002.7      46.7237      46.7237      46.7237 
  422000    132.22665   -11028.931   -9760.1859    473.83543     102002.7      46.7237      46.7237      46.7237 
  423000    130.33119   -11045.766   -9795.2088    405.39758     102002.7      46.7237      46.7237      46.7237 
  424000    127.68247   -11047.023   -9821.8807    285.01361     102002.7      46.7237      46.7237      46.7237 
  425000    129.10409    -11015.04   -9776.2566    736.26529     102002.7      46.7237      46.7237      46.7237 
  426000    130.26899   -11034.482    -9784.521    378.78039     102002.7      46.7237      46.7237      46.7237 
  427000    127.04858    -11078.18   -9859.1196     904.0835     102002.7      46.7237      46.7237      46.7237 
  428000    130.58562   -11048.117   -9795.1179    443.57373     102002.7      46.7237      46.7237      46.7237 
  429000    131.65101   -11039.173   -9775.9515    456.39203     102002.7      46.7237      46.7237      46.7237 
  430000    129.89826   -11041.124   -9794.7203    157.81142     102002.7      46.7237      46.7237      46.7237 
  431000    132.13092   -11038.035   -9770.2084    310.96173     102002.7      46.7237      46.7237      46.7237 
  432000    132.67973   -11054.833   -9781.7404    580.60808     102002.7      46.7237      46.7237      46.7237 
  433000    127.61106   -11027.958   -9803.5011    170.38269     102002.7      46.7237      46.7237      46.7237 
  434000    130.23942    -11075.25   -9825.5735    540.36712     102002.7      46.7237      46.7237      46.7237 
  435000    128.86579   -11001.259   -9764.7629    740.22012     102002.7      46.7237      46.7237      46.7237 
  436000    129.05013   -11059.919   -9821.6541    239.61257     102002.7      46.7237      46.7237      46.7237 
  437000    128.17936    -11033.71   -9803.8002    569.20299     102002.7      46.7237      46.7237      46.7237 
  438000    130.32334   -11021.782   -9771.3001    527.76629     102002.7      46.7237      46.7237      46.7237 
  439000    129.41308   -11081.434   -9839.6859    437.01946     102002.7      46.7237      46.7237      46.7237 
  440000    131.91836   -11027.993    -9762.206    584.25264     102002.7      46.7237      46.7237      46.7237 
  441000    130.43989   -11042.767   -9791.1669    151.39071     102002.7      46.7237      46.7237      46.7237 
  442000    128.51935   -11005.456   -9772.2838    522.91272     102002.7      46.7237      46.7237      46.7237 
  443000     132.9805   -11029.438   -9753.4595    622.21246     102002.7      46.7237      46.7237      46.7237 
  444000    130.92565     -11040.3   -9784.0389    306.48206     102002.7      46.7237      46.7237      46.7237 
  445000    127.38653   -11025.059   -9802.7563    356.07942     102002.7      46.7237      46.7237      46.7237 
  446000    131.49285   -11052.919   -9791.2153    446.67441     102002.7      46.7237      46.7237      46.7237 
  447000    131.57733   -11071.096   -9808.5814    264.86568     102002.7      46.7237      46.7237      46.7237 
  448000    128.04558   -11047.367   -9818.7408    380.35894     102002.7      46.7237      46.7237      46.7237 
  449000    126.72928   -11036.744   -9820.7476    351.31802     102002.7      46.7237      46.7237      46.7237 
  450000    127.84118   -11047.068   -9820.4025    206.51453     102002.7      46.7237      46.7237      46.7237 
  451000    130.14921   -11030.184   -9781.3728    371.87078     102002.7      46.7237      46.7237      46.7237 
  452000    128.66226   -11068.591   -9834.0471    180.21733     102002.7      46.7237      46.7237      46.7237 
  453000    129.89474   -11020.741    -9774.371    232.60374     102002.7      46.7237      46.7237      46.7237 
  454000    130.24437    -11049.92    -9800.196    152.73759     102002.7      46.7237      46.7237      46.7237 
  455000    130.40206   -11047.233   -9795.9956    341.66502     102002.7      46.7237      46.7237      46.7237 
  456000    127.84686   -11029.626   -9802.9064    468.40679     102002.7      46.7237      46.7237      46.7237 
  457000    130.07819   -11030.321   -9782.1913    287.72055     102002.7      46.7237      46.7237      46.7237 
  458000    129.73908   -11028.949   -9784.0732    101.18134     102002.7      46.7237      46.7237      46.7237 
  459000    126.80985    -11036.41   -9819.6405    15.201638     102002.7      46.7237      46.7237      46.7237 
  460000    125.26865   -11040.212    -9838.231    24.723677     102002.7      46.7237      46.7237      46.7237 
  461000    129.98057    -11048.61   -9801.4167    218.39651     102002.7      46.7237      46.7237      46.7237 
  462000      132.926   -11025.938   -9750.4823    317.00286     102002.7      46.7237      46.7237      46.7237 
  463000    134.38344   -11051.345   -9761.9049    496.37704     102002.7      46.7237      46.7237      46.7237 
  464000    129.52786   -11039.106    -9796.257    407.08665     102002.7      46.7237      46.7237      46.7237 
  465000    131.86559   -11038.926   -9773.6456    321.32065     102002.7      46.7237      46.7237      46.7237 
  466000    131.03226   -11041.271   -9783.9865   -27.882902     102002.7      46.7237      46.7237      46.7237 
  467000    128.24384   -11017.643   -9787.1145    324.35555     102002.7      46.7237      46.7237      46.7237 
  468000    130.77917   -11066.482   -9811.6257     82.57719     102002.7      46.7237      46.7237      46.7237 
  469000    129.33898   -11026.518   -9785.4813    367.34386     102002.7      46.7237      46.7237      46.7237 
  470000    133.54569   -11066.948   -9785.5466    247.04325     102002.7      46.7237      46.7237      46.7237 
  471000    132.97554    -11046.08   -9770.1492    175.57676     102002.7      46.7237      46.7237      46.7237 
  472000    130.68505   -11057.234   -9803.2814     442.0099     102002.7      46.7237      46.7237      46.7237 
  473000    131.35214   -11023.478   -9763.1245    439.19592     102002.7      46.7237      46.7237      46.7237 
  474000    125.24711   -11053.232   -9851.4578   -118.02545     102002.7      46.7237      46.7237      46.7237 
  475000    129.14698   -11052.581   -9813.3862    73.094994     102002.7      46.7237      46.7237      46.7237 
  476000    128.98025   -11021.744   -9784.1497   -52.012783     102002.7      46.7237      46.7237      46.7237 
  477000    132.45582   -11025.915   -9754.9715    298.45567     102002.7      46.7237      46.7237      46.7237 
  478000    131.45761   -11022.315    -9760.949    282.13341     102002.7      46.7237      46.7237      46.7237 
  479000    130.42087    -11050.93   -9799.5119    173.65447     102002.7      46.7237      46.7237      46.7237 
  480000    129.89837   -11028.513   -9782.1089    442.10503     102002.7      46.7237      46.7237      46.7237 
  481000    128.12345   -11047.297   -9817.9228     65.60879     102002.7      46.7237      46.7237      46.7237 
  482000    125.31561    -11016.87   -9814.4383    45.626146     102002.7      46.7237      46.7237      46.7237 
  483000    131.75613   -11075.385   -9811.1554    389.66845     102002.7      46.7237      46.7237      46.7237 
  484000    127.75171   -11031.405   -9805.5987    288.34392     102002.7      46.7237      46.7237      46.7237 
  485000    127.15277   -11040.125   -9820.0648    187.61384     102002.7      46.7237      46.7237      46.7237 
  486000    128.07861   -11074.332   -9845.3884    269.19849     102002.7      46.7237      46.7237      46.7237 
  487000    128.89944   -11017.684   -9780.8647    178.07013     102002.7      46.7237      46.7237      46.7237 
  488000     127.1665   -11076.236   -9856.0449    211.40441     102002.7      46.7237      46.7237      46.7237 
  489000    129.66292     -11031.9   -9787.7546    257.62607     102002.7      46.7237      46.7237      46.7237 
  490000    131.35566    -11045.46   -9785.0727    190.47017     102002.7      46.7237      46.7237      46.7237 
  491000    131.62418   -11066.087   -9803.1231    460.12357     102002.7      46.7237      46.7237      46.7237 
  492000    127.41013   -11036.688   -9814.1589    363.09025     102002.7      46.7237      46.7237      46.7237 
  493000    129.84624   -11056.087   -9810.1832    328.40394     102002.7      46.7237      46.7237      46.7237 
  494000    130.88003   -11020.047   -9764.2229    586.87151     102002.7      46.7237      46.7237      46.7237 
  495000    125.46675   -11034.804   -9830.9219    281.30417     102002.7      46.7237      46.7237      46.7237 
  496000    129.22396   -11035.605   -9795.6718    450.78133     102002.7      46.7237      46.7237      46.7237 
  497000    128.69724   -11072.836   -9837.9564    410.34638     102002.7      46.7237      46.7237      46.7237 
  498000    127.85502   -11031.419   -9804.6206    247.27978     102002.7      46.7237      46.7237      46.7237 
  499000    129.89089   -11043.086   -9796.7535     150.1534     102002.7      46.7237      46.7237      46.7237 
  500000    130.75999   -11057.264    -9802.592    108.61341     102002.7      46.7237      46.7237      46.7237 
  500500     129.0408   -11033.027    -9794.851    760.45082     102002.7      46.7237      46.7237      46.7237 
Loop time of 1947.88 on 16 procs for 500000 steps with 3220 atoms

Performance: 22.178 ns/day, 1.082 hours/ns, 256.690 timesteps/s
99.8% CPU use with 16 MPI tasks x no OpenMP threads

MPI task timing breakdown:
Section |  min time  |  avg time  |  max time  |%varavg| %total
---------------------------------------------------------------
Pair    | 866.66     | 1172.2     | 1489.3     | 545.5 | 60.18
Bond    | 131.11     | 174.69     | 200.16     | 133.0 |  8.97
Neigh   | 18.184     | 18.24      | 18.292     |   0.8 |  0.94
Comm    | 222.74     | 564.78     | 913.24     | 845.8 | 28.99
Output  | 0.021235   | 0.022006   | 0.025625   |   0.7 |  0.00
Modify  | 9.391      | 10.999     | 12.321     |  31.5 |  0.56
Other   |            | 6.924      |            |       |  0.36

Nlocal:    201.25 ave 236 max 160 min
Histogram: 1 0 1 2 1 5 4 0 0 2
Nghost:    4080.69 ave 4135 max 4044 min
Histogram: 2 2 2 3 2 1 1 2 0 1
Neighs:    11454.7 ave 18521 max 5287 min
Histogram: 1 3 2 0 3 1 2 2 1 1

Total # of neighbors = 183275
Ave neighs/atom = 56.9177
Ave special neighs/atom = 3.57764
Neighbor list builds = 5093
Dangerous builds = 0
Neighbor list info ...
  update every 1 steps, delay 10 steps, check yes
  max neighbors/atom: 2000, page size: 100000
  master list distance cutoff = 16
  ghost atom cutoff = 16
  binsize = 8, bins = 6 6 6
  3 neighbor lists, perpetual/occasional/extra = 3 0 0
  (1) pair buck6d/coul/gauss/dsf, perpetual, skip from (3)
      attributes: half, newton on
      pair build: skip
      stencil: none
      bin: none
  (2) pair lj/cut, perpetual, skip from (3)
      attributes: half, newton on
      pair build: skip
      stencil: none
      bin: none
  (3) neighbor class addition, perpetual
      attributes: half, newton on
      pair build: half/bin/newton
      stencil: half/bin/3d/newton
      bin: standard
Setting up Verlet run ...
  Unit style    : real
  Current step  : 500500
  Time step     : 1
WARNING: Inconsistent image flags (../domain.cpp:786)
Per MPI rank memory allocation (min/avg/max) = 22.79 | 23.37 | 23.44 Mbytes
Step Time TotEng KinEng PotEng E_mol E_pair Temp Pxx Pyy Pzz Pxy Pxz Pyz Cella Cellb Cellc CellAlpha CellBeta CellGamma Volume Press 
  500500       500000    -9794.851    1238.1758   -11033.027    4373.3857   -15406.413     129.0408    963.06001    800.03219    518.26026   -13.519639   -19.640195   -308.10787      46.7237      46.7237      46.7237           90           90           90     102002.7    760.45082 
  501000       500500   -9757.0947    1271.9173   -11029.012    4384.3927   -15413.405    132.55728    342.14027    389.58396    326.13844    84.305836   -129.08686    215.28008      46.7237      46.7237      46.7237           90           90           90     102002.7    352.62089 
  502000       501500   -9828.1527    1230.8048   -11058.958    4367.2304   -15426.188    128.27261    961.05688    586.11424    346.27843   -36.800166    49.842205    135.00179      46.7237      46.7237      46.7237           90           90           90     102002.7    631.14985 
  503000       502500   -9770.8073    1247.7663   -11018.574    4398.4964    -15417.07    130.04031     518.4223    109.91685    298.52963    99.428834    -312.8188   -86.518612      46.7237      46.7237      46.7237           90           90           90     102002.7    308.95626 
  504000       503500   -9801.3495    1248.3158   -11049.665     4374.518   -15424.183    130.09757    961.63586    26.863454    425.50757   -33.205377    121.83356   -52.190707      46.7237      46.7237      46.7237           90           90           90     102002.7    471.33563 
  505000       504500   -9770.4786    1264.9689   -11035.447    4373.8978   -15409.345    131.83313    141.50171    245.13663    551.82449    34.510572    87.831834    220.10968      46.7237      46.7237      46.7237           90           90           90     102002.7    312.82094 
  506000       505500   -9827.3718    1228.3903   -11055.762    4352.2599   -15408.022    128.02096     217.2351    509.89766    474.55115   -94.074275    142.08946   -21.834509      46.7237      46.7237      46.7237           90           90           90     102002.7     400.5613 
  507000       506500   -9804.7707    1237.1726   -11041.943    4358.9192   -15400.863    128.93625    659.96655    584.53508    163.79686    6.9785715    176.71463   -409.47287      46.7237      46.7237      46.7237           90           90           90     102002.7    469.43283 
  508000       507500   -9747.5821    1268.2393   -11015.821    4386.7734   -15402.595    132.17397    369.84093    614.93956    600.09319   -247.43289    177.52919    29.189572      46.7237      46.7237      46.7237           90           90           90     102002.7    528.29123 
  509000       508500   -9783.5744    1240.9388   -11024.513      4373.85   -15398.363    129.32875    411.83794    1073.2614    529.82724   -13.078235    281.33589     86.01772      46.7237      46.7237      46.7237           90           90           90     102002.7     671.6422 
  510000       509500   -9777.7133      1264.34   -11042.053    4379.4982   -15421.551    131.76759   -236.25593    775.25674    406.13311    86.947678   -279.50196    128.34702      46.7237      46.7237      46.7237           90           90           90     102002.7    315.04464 
  511000       510500   -9810.8165    1243.7902   -11054.607    4366.3882   -15420.995    129.62592    263.04959    755.89623   -23.089724   -245.57543    247.12724    98.165938      46.7237      46.7237      46.7237           90           90           90     102002.7    331.95203 
  512000       511500   -9769.5341    1249.3697   -11018.904    4380.9102   -15399.814     130.2074    305.48854    144.86423    443.48636    389.66344   -125.47541   -174.89445      46.7237      46.7237      46.7237           90           90           90     102002.7    297.94638 
  513000       512500   -9826.0953    1248.4762   -11074.572     4357.407   -15431.979    130.11429    201.63404   -87.890141    -175.4749    161.14769   -50.533693    28.658036      46.7237      46.7237      46.7237           90           90           90     102002.7      -20.577 
  514000       513500   -9808.1269    1211.8362   -11019.963    4394.1988   -15414.162    126.29572    79.954148    310.14967   -224.72154    153.08596    37.811484    60.672083      46.7237      46.7237      46.7237           90           90           90     102002.7    55.127426 
  515000       514500   -9816.5134    1216.8682   -11033.382    4372.3359   -15405.718    126.82016    13.946889    -72.65433    570.01243    57.871139     64.43804    183.34969      46.7237      46.7237      46.7237           90           90           90     102002.7      170.435 
  516000       515500    -9813.385    1240.2153     -11053.6    4382.0292   -15435.629    129.25335   -197.74337    173.45397    626.53124    235.84019    106.87227    254.14495      46.7237      46.7237      46.7237           90           90           90     102002.7    200.74728 
  517000       516500    -9809.749    1244.4405   -11054.189    4367.1123   -15421.302    129.69369   -359.39604    273.71681    235.12735    180.95492    18.607556   -91.946856      46.7237      46.7237      46.7237           90           90           90     102002.7     49.81604 
  518000       517500   -9776.7517    1241.7071   -11018.459     4372.331    -15390.79    129.40883   -136.53731    30.864579    684.57142   -14.725453   -102.01118     113.1019      46.7237      46.7237      46.7237           90           90           90     102002.7    192.96623 
  519000       518500   -9775.2959    1249.4019   -11024.698    4353.0533   -15377.751    130.21076    412.52099     449.6324    53.942209   -43.558883   -21.967889    91.227888      46.7237      46.7237      46.7237           90           90           90     102002.7     305.3652 
  520000       519500   -9717.5285    1292.0583   -11009.587    4385.0886   -15394.675    134.65635    -474.7216    309.97174    54.861479    362.61481   -187.82013    7.9446045      46.7237      46.7237      46.7237           90           90           90     102002.7    -36.62946 
  521000       520500   -9830.7578    1242.9053   -11073.663    4349.3821   -15423.045     129.5337    88.290794    150.17021    199.72824    132.32722   -76.643776   -162.46626      46.7237      46.7237      46.7237           90           90           90     102002.7    146.06308 
  522000       521500   -9774.5371    1268.2681   -11042.805    4331.6325   -15374.438    132.17697   -588.45069    460.80699    527.07858    193.54001    -73.07957   -253.61624      46.7237      46.7237      46.7237           90           90           90     102002.7    133.14496 
  523000       522500   -9753.9113    1260.0157   -11013.927    4380.6169   -15394.544    131.31692     251.6431    612.48853   -177.23661   -166.90718    291.59415    91.311307      46.7237      46.7237      46.7237           90           90           90     102002.7      228.965 
  524000       523500   -9770.2686    1266.2479   -11036.517    4360.8487   -15397.365    131.96643    145.63057    337.76316    691.12974   -127.95086    145.06043   -84.102834      46.7237      46.7237      46.7237           90           90           90     102002.7    391.50783 
  525000       524500   -9825.4797    1228.3934   -11053.873    4339.9294   -15393.802    128.02128    431.60379    565.79192    318.30437    27.849764   -233.04593    89.375991      46.7237      46.7237      46.7237           90           90           90     102002.7     438.5667 
  526000       525500   -9760.1938    1231.6763    -10991.87    4389.7388   -15381.609    128.36343    575.31268    616.52455    485.04518    288.87764   -82.175507    45.121089      46.7237      46.7237      46.7237           90           90           90     102002.7    558.96081 
  527000       526500   -9788.5665    1257.3377   -11045.904    4380.0364   -15425.941    131.03782    893.09405    814.11947   -145.32014    72.399754    60.350706    67.641972      46.7237      46.7237      46.7237           90           90           90     102002.7    520.63113 
  528000       527500   -9781.9942    1258.0357    -11040.03    4369.6619   -15409.692    131.11056    9.8703573    473.98788      149.202    239.56393    265.22586   -46.043609      46.7237      46.7237      46.7237           90           90           90     102002.7    211.02008 
  529000       528500   -9792.7255    1239.6809   -11032.406    4358.7043   -15391.111    129.19765    580.19681    468.79781     248.3379 -0.080109063    -37.50677   -94.513853      46.7237      46.7237      46.7237           90           90           90     102002.7    432.44417 
  530000       529500   -9816.1968    1234.6064   -11050.803    4345.9451   -15396.748     128.6688    774.60788    481.79477    -16.77759    66.313156   -168.19088    137.70377      46.7237      46.7237      46.7237           90           90           90     102002.7    413.20835 
  531000       530500   -9810.8867    1258.0658   -11068.952    4342.4547   -15411.407     131.1137    368.24691    185.34848    866.68515   -227.10947   -59.933123    38.423957      46.7237      46.7237      46.7237           90           90           90     102002.7    473.42685 
  532000       531500   -9735.2224    1301.9001   -11037.122      4373.02   -15410.143    135.68204    1059.2686    362.90422    659.65666   -67.553397     103.6136   -124.65114      46.7237      46.7237      46.7237           90           90           90     102002.7    693.94316 
  533000       532500   -9802.7026    1245.1325   -11047.835    4362.3211   -15410.156    129.76581    209.48313    640.93127    364.77142    81.893042   -146.19984   -231.17205      46.7237      46.7237      46.7237           90           90           90     102002.7    405.06194 
  534000       533500   -9773.4836    1224.2746   -10997.758    4381.1054   -15378.864    127.59204    1009.2123    378.20024    768.32315    163.92346   -107.91803   -49.031603      46.7237      46.7237      46.7237           90           90           90     102002.7    718.57855 
  535000       534500   -9764.3816    1300.6244   -11065.006    4340.8258   -15405.832     135.5491    536.17437    696.34423    767.50431   -59.175872   -13.604907   -227.79943      46.7237      46.7237      46.7237           90           90           90     102002.7     666.6743 
  536000       535500   -9749.4588     1271.257   -11020.716    4364.7573   -15385.473    132.48847    834.71094    311.67653    366.92302   -7.9332518    15.924994   -56.335889      46.7237      46.7237      46.7237           90           90           90     102002.7    504.43683 
  537000       536500   -9793.7818    1261.6804   -11055.462    4357.1483    -15412.61    131.49041     983.6983    480.35414    989.71109    98.477784   -53.669617    83.805713      46.7237      46.7237      46.7237           90           90           90     102002.7    817.92118 
  538000       537500   -9833.4263    1236.8907   -11070.317    4349.3049   -15419.622    128.90686      494.599    220.68137    220.41812    80.489296    26.186264    187.87291      46.7237      46.7237      46.7237           90           90           90     102002.7     311.8995 
  539000       538500    -9802.178    1241.4705   -11043.649    4360.9521   -15404.601    129.38417    351.30354    261.69911    986.27148    283.14916   -201.56584    65.968613      46.7237      46.7237      46.7237           90           90           90     102002.7    533.09138 
  540000       539500   -9781.8438    1254.6936   -11036.537    4357.8691   -15394.406    130.76226      665.916    588.49176    769.76765   -156.81908   -54.854159   -41.442452      46.7237      46.7237      46.7237           90           90           90     102002.7    674.72514 
  541000       540500   -9812.2433    1234.6464    -11046.89    4397.5898    -15444.48    128.67297   -285.67176    61.743611    437.34217   -122.97203    280.68375    105.61368      46.7237      46.7237      46.7237           90           90           90     102002.7    71.138008 
  542000       541500   -9813.4238    1206.9035   -11020.327    4371.5052   -15391.833    125.78164    299.03533    735.63614    299.96482   -72.856852    112.98089   -63.766467      46.7237      46.7237      46.7237           90           90           90     102002.7    444.87876 
  543000       542500   -9817.4879    1243.9189   -11061.407    4341.5106   -15402.917    129.63933    264.82716    905.63782    572.99183    304.14863    18.141509    275.51741      46.7237      46.7237      46.7237           90           90           90     102002.7    581.15227 
  544000       543500   -9748.1086    1280.7515    -11028.86     4379.537   -15408.397    133.47797    232.92344    191.28961   -40.369922   -53.789301    -280.4974    330.64045      46.7237      46.7237      46.7237           90           90           90     102002.7    127.94771 
  545000       544500   -9800.2323    1215.6189   -11015.851    4378.8035   -15394.655    126.68995    33.083718   -19.405881     800.0972   -89.646222    24.234133    49.298898      46.7237      46.7237      46.7237           90           90           90     102002.7    271.25835 
  546000       545500   -9742.4383    1264.7958   -11007.234    4387.3039   -15394.538     131.8151    195.38159    41.667833    223.79069    167.59516   -28.658953    67.210078      46.7237      46.7237      46.7237           90           90           90     102002.7    153.61337 
  547000       546500   -9778.3636    1262.1485   -11040.512    4349.4478    -15389.96    131.53919    208.75369    117.75712    723.13538   -192.21229   -230.43677    232.67643      46.7237      46.7237      46.7237           90           90           90     102002.7    349.88207 
  548000       547500   -9810.1979    1244.6495   -11054.847    4328.6408   -15383.488    129.71548    228.91196    710.39506    406.47132    132.55085    330.83854    220.74289      46.7237      46.7237      46.7237           90           90           90     102002.7    448.59278 
  549000       548500   -9789.1536    1266.1978   -11055.351    4375.8779   -15431.229    131.96121   -55.873056    823.35131    413.88725    145.72093    182.67173    115.16254      46.7237      46.7237      46.7237           90           90           90     102002.7     393.7885 
  550000       549500   -9778.1345     1274.214   -11052.349     4364.168   -15416.517    132.79664    -117.7162    325.36979    -302.3327   -32.105024    167.55326   -18.632086      46.7237      46.7237      46.7237           90           90           90     102002.7   -31.559703 
  551000       550500   -9828.4165    1214.3687   -11042.785    4383.6152     -15426.4    126.55965    435.77164    24.096047    21.770899    58.086554   -219.38607    217.87552      46.7237      46.7237      46.7237           90           90           90     102002.7    160.54619 
  552000       551500   -9782.2818    1268.2387   -11050.521    4363.6628   -15414.183     132.1739   -171.73862    881.76817   -347.73309    71.358772    112.65349   -152.62369      46.7237      46.7237      46.7237           90           90           90     102002.7    120.76549 
  553000       552500   -9747.9826    1276.3453   -11024.328    4383.6694   -15407.997    133.01876    811.71483    302.17199    687.53127   -72.457573   -126.42733   -374.38043      46.7237      46.7237      46.7237           90           90           90     102002.7     600.4727 
  554000       553500   -9756.2577    1256.6853   -11012.943    4398.0088   -15410.952    130.96983    42.583782   -19.351739    399.45045   -164.34014   -3.4569204    -126.4349      46.7237      46.7237      46.7237           90           90           90     102002.7    140.89417 
  555000       554500   -9776.6478    1269.3053   -11045.953    4375.0546   -15421.008    132.28507    400.00488    197.63286    427.30735   -27.045351   -172.03734    12.312596      46.7237      46.7237      46.7237           90           90           90     102002.7    341.64836 
[...]
  936000       935500   -9782.9921    1238.2366   -11021.229     4381.114   -15402.343    129.04713    417.63618    752.18612     402.4355     322.4322     -219.288   -297.79569      46.7237      46.7237      46.7237           90           90           90     102002.7    524.08594 
  937000       936500   -9792.3015    1261.2726   -11053.574    4364.8671   -15418.441    131.44791    465.04187    381.10104   -167.75495    450.11475    -37.21573   -298.82582      46.7237      46.7237      46.7237           90           90           90     102002.7    226.12932 
  938000       937500   -9793.4872     1237.748   -11031.235     4386.275    -15417.51    128.99621    188.41169    497.81564    352.25157    2.5217589   -10.233824    214.27153      46.7237      46.7237      46.7237           90           90           90     102002.7    346.15963 
  939000       938500   -9812.1273    1244.6944   -11056.822    4372.0347   -15428.856    129.72016    294.44897    207.14942    -133.3837   -89.134082     134.2908   -73.693413      46.7237      46.7237      46.7237           90           90           90     102002.7    122.73823 
  940000       939500   -9796.7854     1247.603   -11044.388    4362.0869   -15406.475    130.02328     542.1485    207.14809    647.98763   -20.801729   -11.622068    41.825419      46.7237      46.7237      46.7237           90           90           90     102002.7    465.76141 
  941000       940500   -9815.3536    1224.9478   -11040.301    4370.3109   -15410.612    127.66219    442.41547    142.34113    159.91454   -167.47173    47.625702   -37.989031      46.7237      46.7237      46.7237           90           90           90     102002.7    248.22371 
  942000       941500   -9841.1305    1214.5593    -11055.69    4367.3477   -15423.038    126.57953    810.71853    400.17529   0.14165618    226.48729   -90.275179    165.51074      46.7237      46.7237      46.7237           90           90           90     102002.7    403.67849 
  943000       942500   -9784.1178    1248.3775   -11032.495     4364.924   -15397.419    130.10401    248.57592    806.69322    435.98656    48.216141    294.08327     53.72114      46.7237      46.7237      46.7237           90           90           90     102002.7    497.08523 
  944000       943500   -9793.1284    1257.8336   -11050.962    4368.0241   -15418.986     131.0895     472.0208    103.71046    328.04825   -163.63913   -106.94431   -112.70243      46.7237      46.7237      46.7237           90           90           90     102002.7    301.25984 
  945000       944500   -9785.5287    1253.4138   -11038.942    4373.1619   -15412.104    130.62888    398.92133    750.66547    441.65501    156.58477    20.307123   -105.57686      46.7237      46.7237      46.7237           90           90           90     102002.7    530.41393 
  946000       945500   -9784.7465    1259.8986   -11044.645    4383.8881   -15428.533    131.30472    241.33359    817.37723   -165.35838   -157.15793    3.9803291    194.11732      46.7237      46.7237      46.7237           90           90           90     102002.7    297.78415 
  947000       946500   -9815.0746     1238.919   -11053.994    4359.1729   -15413.167    129.11825    258.09145    10.496886    33.012163   -22.141364   -135.11356    236.47076      46.7237      46.7237      46.7237           90           90           90     102002.7     100.5335 
  948000       947500   -9798.4105    1266.3158   -11064.726    4391.1145   -15455.841     131.9735   -25.621862    532.60388   -37.354996   -3.1084704   -105.95396   -21.741753      46.7237      46.7237      46.7237           90           90           90     102002.7    156.54234 
  949000       948500   -9813.4346    1225.1485   -11038.583     4389.757    -15428.34    127.68311   -8.0512251   -134.16354     72.35372    -45.28683    128.90804   -78.759762      46.7237      46.7237      46.7237           90           90           90     102002.7   -23.287016 
  950000       949500   -9806.2931    1238.5125   -11044.806    4369.6286   -15414.434    129.07589   -36.469361     118.3659    85.370345    204.99473      -123.73   -40.797112      46.7237      46.7237      46.7237           90           90           90     102002.7    55.755629 
  951000       950500   -9781.6179    1255.6253   -11037.243     4367.577    -15404.82    130.85936    134.34628    -206.2017    425.89185    244.41316     140.3972   -108.68243      46.7237      46.7237      46.7237           90           90           90     102002.7    118.01215 
  952000       951500   -9783.6538    1243.3787   -11027.032    4395.7921   -15422.825    129.58303   -427.15011   -20.086394    276.49013   -127.43164    116.05724   -206.61815      46.7237      46.7237      46.7237           90           90           90     102002.7    -56.91546 
  953000       952500   -9737.1196      1276.75    -11013.87    4409.1244   -15422.994    133.06094    632.52564    684.94656    862.77733   -17.691822    107.53438    80.428851      46.7237      46.7237      46.7237           90           90           90     102002.7    726.74984 
  954000       953500   -9807.2696     1250.682   -11057.952    4371.1682    -15429.12    130.34418    541.32937    878.87837    167.02002   -55.009831    112.64388    208.74503      46.7237      46.7237      46.7237           90           90           90     102002.7    529.07592 
  955000       954500   -9836.0268     1233.325   -11069.352     4367.494   -15436.846    128.53525    -53.88235    466.54442    406.55178    64.146042    -118.6517    4.5183121      46.7237      46.7237      46.7237           90           90           90     102002.7    273.07128 
  956000       955500   -9825.7284    1232.9234   -11058.652    4386.2099   -15444.862     128.4934    162.42335    205.81927   -636.68559    129.73936   -210.65188   -98.034952      46.7237      46.7237      46.7237           90           90           90     102002.7   -89.480993 
  957000       956500   -9773.1594    1288.9027   -11062.062    4367.4756   -15429.538    134.32748    -268.4988    168.14862    218.52573   -195.04201    166.00168   -213.88286      46.7237      46.7237      46.7237           90           90           90     102002.7    39.391848 
  958000       957500    -9779.872    1261.5509   -11041.423    4370.7052   -15412.128    131.47691    315.37039    301.29122   -97.428645    55.340804    118.88586    19.193757      46.7237      46.7237      46.7237           90           90           90     102002.7    173.07766 
  959000       958500   -9818.7744    1228.5562   -11047.331    4371.4073   -15418.738    128.03825    32.581443     533.7444    527.81569    80.044764   -177.08435    54.002634      46.7237      46.7237      46.7237           90           90           90     102002.7    364.71385 
  960000       959500   -9832.6945    1240.6929   -11073.387    4317.3644   -15390.752    129.30312    521.49668    206.99013    911.49074   -63.304891   -27.308402    -42.09527      46.7237      46.7237      46.7237           90           90           90     102002.7    546.65918 
  961000       960500   -9767.2393    1257.5941   -11024.833     4376.426   -15401.259    131.06454    502.97572    802.13272    652.48414    160.33364     63.25174   -194.30745      46.7237      46.7237      46.7237           90           90           90     102002.7    652.53086 
  962000       961500   -9802.2536    1242.0474   -11044.301     4384.567   -15428.868    129.44429    313.90563    242.27368    671.46546   -72.927168    -100.9966   -195.15469      46.7237      46.7237      46.7237           90           90           90     102002.7    409.21492 
  963000       962500   -9800.4721    1261.2191   -11061.691    4358.9231   -15420.614    131.44233    560.09069    484.69205    314.27992    72.710971    15.729602    64.663304      46.7237      46.7237      46.7237           90           90           90     102002.7    453.02089 
  964000       963500   -9784.2064    1247.7168   -11031.923    4395.9879   -15427.911    130.03515    355.32939    328.65138    119.51093   -35.157539    189.83482    107.24633      46.7237      46.7237      46.7237           90           90           90     102002.7    267.83057 
  965000       964500   -9759.1759    1262.5095   -11021.685    4374.8116   -15396.497    131.57682    356.35147    433.67645    500.59585    201.90038   -81.497432   -98.508516      46.7237      46.7237      46.7237           90           90           90     102002.7    430.20793 
  966000       965500   -9799.2538     1223.794   -11023.048    4382.2735   -15405.321    127.54194    420.61902    490.48838    184.34895    -75.85513    170.60072    110.78891      46.7237      46.7237      46.7237           90           90           90     102002.7    365.15212 
  967000       966500   -9777.4297    1240.3082   -11017.738    4368.1372   -15385.875    129.26303     441.2652    331.29623    583.35275   -11.757654   -79.293781    59.287281      46.7237      46.7237      46.7237           90           90           90     102002.7    451.97139 
  968000       967500   -9784.6266    1252.6841   -11037.311    4396.8589    -15434.17    130.55283    383.08333    76.892623    668.67353    -176.9368   -49.647659     137.1573      46.7237      46.7237      46.7237           90           90           90     102002.7    376.21649 
  969000       968500   -9815.9972    1243.2854   -11059.283    4354.5085   -15413.791    129.57332    768.40401    45.894297     231.8359    53.498969   -102.84429    121.90718      46.7237      46.7237      46.7237           90           90           90     102002.7     348.7114 
  970000       969500    -9814.494    1219.4505   -11033.945    4370.3958    -15404.34    127.08928    160.59657    450.53414    47.743963    91.914667   -143.01936    40.921588      46.7237      46.7237      46.7237           90           90           90     102002.7    219.62489 
  971000       970500   -9819.6474    1240.2453   -11059.893    4366.8558   -15426.749    129.25648   -118.43881    646.38374    251.03915   -75.327547   -23.631996   -221.54806      46.7237      46.7237      46.7237           90           90           90     102002.7    259.66136 
  972000       971500   -9824.5954     1255.598   -11080.193    4355.7101   -15435.904    130.85651    416.97141     581.4491   -305.25524   -72.337556   -177.80503     23.26554      46.7237      46.7237      46.7237           90           90           90     102002.7    231.05509 
  973000       972500   -9778.5336    1263.4908   -11042.024     4374.846    -15416.87    131.67908    40.149932    684.95289    168.68753    82.375833   -214.99779    36.075223      46.7237      46.7237      46.7237           90           90           90     102002.7    297.93012 
  974000       973500   -9804.2648    1253.6214   -11057.886    4359.9112   -15417.797    130.65051    676.54948   -165.88701    415.80663    271.30966     -279.604   -5.2880635      46.7237      46.7237      46.7237           90           90           90     102002.7    308.82303 
  975000       974500   -9788.8854    1261.2268   -11050.112     4375.547   -15425.659    131.44314       392.03    917.36729    859.77584   -82.685023    346.37328     173.0554      46.7237      46.7237      46.7237           90           90           90     102002.7    723.05771 
  976000       975500   -9788.2885    1250.5065   -11038.795    4366.0576   -15404.853    130.32588    607.75703    646.17797    175.57255    24.116324    -67.93972   -134.77924      46.7237      46.7237      46.7237           90           90           90     102002.7    476.50252 
  977000       976500    -9793.069    1236.3285   -11029.398    4380.7861   -15410.184    128.84828    389.87826    736.44234    369.23269    71.017959   -148.14425   -110.26067      46.7237      46.7237      46.7237           90           90           90     102002.7    498.51776 
  978000       977500   -9765.1988     1286.917   -11052.116    4365.3128   -15417.429    134.12053     319.8413    591.27173    407.19319   -64.028187    182.19656    97.746389      46.7237      46.7237      46.7237           90           90           90     102002.7    439.43541 
  979000       978500   -9752.8321    1271.8675     -11024.7    4353.6278   -15378.327    132.55209   -233.45221     392.0304    83.230058    60.700055   -146.54206   -63.742148      46.7237      46.7237      46.7237           90           90           90     102002.7    80.602748 
  980000       979500   -9802.3362    1253.9471   -11056.283    4350.9253   -15407.209    130.68446    122.65874    660.68952    107.95971    348.40771   -260.76527     14.63769      46.7237      46.7237      46.7237           90           90           90     102002.7    297.10265 
  981000       980500   -9792.3704    1253.1634   -11045.534    4376.9605   -15422.494    130.60278     276.3861     99.52782    766.20473    110.95765   -208.05258    -11.88581      46.7237      46.7237      46.7237           90           90           90     102002.7    380.70622 
  982000       981500   -9754.5182    1245.2887   -10999.807    4407.0008   -15406.808    129.78209    59.731213    314.72622   -50.666206  -0.16385057    -31.37508    193.11093      46.7237      46.7237      46.7237           90           90           90     102002.7    107.93041 
  983000       982500   -9791.1802    1237.8299    -11029.01    4371.5214   -15400.531    129.00474    921.71113    386.86397    491.85322     263.6765   -59.601574   -102.22582      46.7237      46.7237      46.7237           90           90           90     102002.7    600.14277 
  984000       983500   -9778.8592    1263.0171   -11041.876    4368.0249   -15409.901    131.62971    -182.7978    426.05332    511.95379     45.72053   -88.514266    70.186731      46.7237      46.7237      46.7237           90           90           90     102002.7    251.73644 
  985000       984500   -9805.2026    1226.8769    -11032.08    4382.0569   -15414.136    127.86325     504.7756   -76.300714   -156.01728    8.9041526   -161.62869   -89.107858      46.7237      46.7237      46.7237           90           90           90     102002.7    90.819201 
  986000       985500   -9758.2376    1263.1204   -11021.358    4386.9311   -15408.289    131.64049   -10.568301    740.80606    199.07725   -16.404622   -141.16681   -141.01884      46.7237      46.7237      46.7237           90           90           90     102002.7    309.77167 
  987000       986500   -9807.5339    1234.7536   -11042.288    4381.0908   -15423.378    128.68414    444.37344    439.58761    166.61234     228.6693  -0.42753055   -59.095103      46.7237      46.7237      46.7237           90           90           90     102002.7    350.19113 
  988000       987500   -9773.6227    1254.9025   -11028.525    4365.5221   -15394.047    130.78403    338.00584    89.464532    213.42441   -247.59173    334.09528    24.737004      46.7237      46.7237      46.7237           90           90           90     102002.7     213.6316 
  989000       988500   -9731.0864    1269.4664   -11000.553     4402.707    -15403.26    132.30186    218.35051    387.06396    307.98761    26.418613       107.98   -325.29012      46.7237      46.7237      46.7237           90           90           90     102002.7    304.46736 
  990000       989500   -9812.4527    1204.0269    -11016.48    4393.0014   -15409.481    125.48185    222.08574    600.02393    323.69756   -53.068075   -372.05071    149.70229      46.7237      46.7237      46.7237           90           90           90     102002.7    381.93574 
  991000       990500   -9775.8182    1254.3632   -11030.181    4362.1806   -15392.362    130.72782     140.7067    738.16181    248.25063    99.995267   -99.526333    265.19343      46.7237      46.7237      46.7237           90           90           90     102002.7    375.70638 
  992000       991500   -9777.4023    1259.7679    -11037.17    4363.4022   -15400.572    131.29109    616.00682    470.58816    177.97917    345.79469    250.45573   -70.159339      46.7237      46.7237      46.7237           90           90           90     102002.7    421.52472 
  993000       992500   -9806.5702     1237.574   -11044.144    4380.3568   -15424.501    128.97808    221.21448    409.84978    328.39035   -7.6066024   -40.503409    -97.53854      46.7237      46.7237      46.7237           90           90           90     102002.7     319.8182 
  994000       993500   -9808.0641    1247.3457    -11055.41    4365.8065   -15421.216    129.99647    350.55906    621.47906    438.94675   -241.14126   -227.43811    164.32921      46.7237      46.7237      46.7237           90           90           90     102002.7    470.32829 
  995000       994500    -9761.992     1231.485   -10993.477    4377.9891   -15371.466    128.34349    601.44211    561.64305    615.02935   -271.09795    64.660038    309.09504      46.7237      46.7237      46.7237           90           90           90     102002.7    592.70484 
  996000       995500   -9792.7982    1260.6226   -11053.421    4358.5122   -15411.933    131.38016     905.8431    203.54367    566.35023   -87.331385   -45.204659   -118.50761      46.7237      46.7237      46.7237           90           90           90     102002.7      558.579 
  997000       996500   -9784.5892    1244.4993   -11029.089    4382.3166   -15411.405    129.69982     160.2973    76.070264   -80.896963     296.8201    213.24807    71.185518      46.7237      46.7237      46.7237           90           90           90     102002.7    51.823535 
  998000       997500   -9739.9153    1283.9817   -11023.897    4385.8016   -15409.699    133.81461    51.139231    727.78679    685.11891   -19.840119    241.26263   -93.007633      46.7237      46.7237      46.7237           90           90           90     102002.7    488.01498 
  999000       998500   -9802.5926    1247.3985   -11049.991    4354.2625   -15404.254    130.00197    218.33651    489.52367     634.7449   -245.45136    141.42981    122.23967      46.7237      46.7237      46.7237           90           90           90     102002.7    447.53502 
 1000000       999500   -9760.8853    1269.8041   -11030.689    4384.2806    -15414.97    132.33705    285.14478    801.67099    661.29847    87.273114   -292.87222   -80.098425      46.7237      46.7237      46.7237           90           90           90     102002.7    582.70475 
 1000500      1000000   -9789.1605    1249.3475   -11038.508    4403.5435   -15442.051    130.20509   -150.60059    267.71179    637.48628    56.048037   -208.82156   -196.68936      46.7237      46.7237      46.7237           90           90           90     102002.7     251.5325 
Loop time of 2324.1 on 16 procs for 500000 steps with 3220 atoms

Performance: 18.588 ns/day, 1.291 hours/ns, 215.137 timesteps/s
99.8% CPU use with 16 MPI tasks x no OpenMP threads

MPI task timing breakdown:
Section |  min time  |  avg time  |  max time  |%varavg| %total
---------------------------------------------------------------
Pair    | 1133.9     | 1475.1     | 1794.8     | 606.4 | 63.47
Bond    | 147.55     | 183.64     | 228.14     | 168.4 |  7.90
Neigh   | 17.969     | 18.022     | 18.073     |   0.8 |  0.78
Comm    | 250.3      | 615.32     | 991.46     |1019.0 | 26.48
Output  | 0.13271    | 0.13905    | 0.1397     |   0.4 |  0.01
Modify  | 23.108     | 25.049     | 26.624     |  23.2 |  1.08
Other   |            | 6.785      |            |       |  0.29

Nlocal:    201.25 ave 224 max 170 min
Histogram: 1 0 2 1 2 4 0 1 2 3
Nghost:    4104.5 ave 4141 max 4077 min
Histogram: 1 2 4 0 2 4 1 0 1 1
Neighs:    11464.6 ave 17099 max 8212 min
Histogram: 3 1 2 1 6 1 1 0 0 1

Total # of neighbors = 183434
Ave neighs/atom = 56.9671
Ave special neighs/atom = 3.57764
Neighbor list builds = 5104
Dangerous builds = 0
Total wall time: 1:11:17
