LAMMPS (30 Mar 2018)
Reading data file ...
  orthogonal box = (0 0 0) to (46.7237 46.7237 46.7237)
  2 by 2 by 4 MPI processor grid
  reading atoms ...
  1734 atoms
  scanning bonds ...
  5 = max bonds/atom
  scanning angles ...
  10 = max angles/atom
  scanning dihedrals ...
  32 = max dihedrals/atom
  scanning impropers ...
  3 = max impropers/atom
  reading bonds ...
  2064 bonds
  reading angles ...
  3696 angles
  reading dihedrals ...
  6240 dihedrals
  reading impropers ...
  1008 impropers
Finding 1-2 1-3 1-4 neighbors ...
  special bond factors lj:   0          0          0         
  special bond factors coul: 0          0          0         
  5 = max # of 1-2 neighbors
  8 = max # of 1-3 neighbors
  20 = max # of 1-4 neighbors
  19 = max # of special neighbors
Finding 1-2 1-3 1-4 neighbors ...
  special bond factors lj:   0          0          1         
  special bond factors coul: 1          1          1         
  5 = max # of 1-2 neighbors
  8 = max # of 1-3 neighbors
  19 = max # of special neighbors
WARNING: Using 'neigh_modify every 1 delay 0 check yes' setting during minimization (../min.cpp:168)
Neighbor list info ...
  update every 1 steps, delay 0 steps, check yes
  max neighbors/atom: 2000, page size: 100000
  master list distance cutoff = 16
  ghost atom cutoff = 16
  binsize = 8, bins = 6 6 6
  3 neighbor lists, perpetual/occasional/extra = 3 0 0
  (1) pair buck6d/coul/gauss/dsf, perpetual, skip from (3)
      attributes: half, newton on
      pair build: skip
      stencil: none
      bin: none
  (2) pair lj/cut, perpetual, skip from (3)
      attributes: half, newton on
      pair build: skip
      stencil: none
      bin: none
  (3) neighbor class addition, perpetual
      attributes: half, newton on
      pair build: half/bin/newton
      stencil: half/bin/3d/newton
      bin: standard
Setting up cg style minimization ...
  Unit style    : real
  Current step  : 0
WARNING: Inconsistent image flags (../domain.cpp:786)
Per MPI rank memory allocation (min/avg/max) = 22.89 | 23.35 | 23.79 Mbytes
Step Temp E_pair E_mol TotEng Press 
       0            0   -11532.289    6482.8914   -5049.3976    6281.8856 
     504            0   -11558.204    3741.0793   -7817.1244   -487.58603 
Loop time of 2.63538 on 16 procs for 504 steps with 1734 atoms

99.8% CPU use with 16 MPI tasks x no OpenMP threads

Minimization stats:
  Stopping criterion = max force evaluations
  Energy initial, next-to-last, final = 
        -5049.39761155     -7817.11264037     -7817.12438053
  Force two-norm initial, final = 2576.95 4.8841
  Force max component initial, final = 151.965 0.482514
  Final line search alpha, max atom move = 0.0232254 0.0112066
  Iterations, force evaluations = 504 1001

MPI task timing breakdown:
Section |  min time  |  avg time  |  max time  |%varavg| %total
---------------------------------------------------------------
Pair    | 1.23       | 1.5718     | 1.9149     |  15.4 | 59.64
Bond    | 0.29345    | 0.36054    | 0.42613    |   5.9 | 13.68
Neigh   | 0.01137    | 0.011428   | 0.011493   |   0.0 |  0.43
Comm    | 0.31698    | 0.65159    | 0.98542    |  22.1 | 24.72
Output  | 0          | 0          | 0          |   0.0 |  0.00
Modify  | 0          | 0          | 0          |   0.0 |  0.00
Other   |            | 0.04007    |            |       |  1.52

Nlocal:    108.375 ave 120 max 100 min
Histogram: 1 3 1 2 4 1 0 1 2 1
Nghost:    2192.12 ave 2203 max 2180 min
Histogram: 2 0 1 2 2 0 5 3 0 1
Neighs:    11430.3 ave 14117 max 8387 min
Histogram: 2 3 2 0 1 0 1 1 1 5

Total # of neighbors = 182885
Ave neighs/atom = 105.47
Ave special neighs/atom = 6.6436
Neighbor list builds = 10
Dangerous builds = 0
Neighbor list info ...
  update every 1 steps, delay 10 steps, check yes
  max neighbors/atom: 2000, page size: 100000
  master list distance cutoff = 16
  ghost atom cutoff = 16
  binsize = 8, bins = 6 6 6
  3 neighbor lists, perpetual/occasional/extra = 3 0 0
  (1) pair buck6d/coul/gauss/dsf, perpetual, skip from (3)
      attributes: half, newton on
      pair build: skip
      stencil: none
      bin: none
  (2) pair lj/cut, perpetual, skip from (3)
      attributes: half, newton on
      pair build: skip
      stencil: none
      bin: none
  (3) neighbor class addition, perpetual
      attributes: half, newton on
      pair build: half/bin/newton
      stencil: half/bin/3d/newton
      bin: standard
Setting up Verlet run ...
  Unit style    : real
  Current step  : 504
  Time step     : 1
WARNING: Inconsistent image flags (../domain.cpp:786)
Per MPI rank memory allocation (min/avg/max) = 22.54 | 22.62 | 22.69 Mbytes
Step Temp PotEng TotEng Press Volume Lx Ly Lz 
     504           91   -7817.1244   -7347.0417   -276.91956     102002.7      46.7237      46.7237      46.7237 
    1000    83.355804   -7415.9088   -6985.3141   -727.60391     102002.7      46.7237      46.7237      46.7237 
    2000    91.439948   -7329.7139   -6857.3586   -672.76615     102002.7      46.7237      46.7237      46.7237 
    3000    86.501076   -7321.2354    -6874.393   -1004.0343     102002.7      46.7237      46.7237      46.7237 
    4000    90.869639   -7350.1696   -6880.7603    -545.2875     102002.7      46.7237      46.7237      46.7237 
    5000    91.850053   -7333.6499   -6859.1761   -795.39835     102002.7      46.7237      46.7237      46.7237 
    6000    88.190773   -7350.8416   -6895.2707   -513.23247     102002.7      46.7237      46.7237      46.7237 
    7000    92.785662   -7342.8348   -6863.5278   -474.34094     102002.7      46.7237      46.7237      46.7237 
    8000    92.421774   -7319.9344   -6842.5072   -451.15645     102002.7      46.7237      46.7237      46.7237 
    9000    91.002401   -7347.5507   -6877.4556   -403.90869     102002.7      46.7237      46.7237      46.7237 
   10000    93.211357   -7343.5133   -6862.0073   -705.83548     102002.7      46.7237      46.7237      46.7237 
   11000    91.827649   -7328.6918   -6854.3337    -634.9678     102002.7      46.7237      46.7237      46.7237 
   12000    89.992327   -7340.8173     -6875.94   -802.52834     102002.7      46.7237      46.7237      46.7237 
   13000    89.364104    -7334.799   -6873.1669   -417.06615     102002.7      46.7237      46.7237      46.7237 
   14000    90.185865   -7323.6472   -6857.7701    -687.7221     102002.7      46.7237      46.7237      46.7237 
   15000    88.707622   -7328.6816   -6870.4408   -524.42987     102002.7      46.7237      46.7237      46.7237 
   16000    86.408089    -7313.069    -6866.707   -729.28132     102002.7      46.7237      46.7237      46.7237 
   17000     90.44011   -7328.9397   -6861.7493   -716.04848     102002.7      46.7237      46.7237      46.7237 
   18000    89.268153   -7345.0075   -6883.8711   -471.57216     102002.7      46.7237      46.7237      46.7237 
   19000    90.459118   -7332.0044   -6864.7157   -703.90875     102002.7      46.7237      46.7237      46.7237 
   20000     91.58866   -7336.8337   -6863.7101   -568.52661     102002.7      46.7237      46.7237      46.7237 
   21000     88.40451   -7341.8629   -6885.1878   -551.09126     102002.7      46.7237      46.7237      46.7237 
   22000    95.127653   -7350.3463   -6858.9413   -668.41508     102002.7      46.7237      46.7237      46.7237 
   23000    86.940478   -7327.0855   -6877.9733   -552.74894     102002.7      46.7237      46.7237      46.7237 
   24000    91.883113   -7343.2192   -6868.5746   -649.20547     102002.7      46.7237      46.7237      46.7237 
   25000    93.186709   -7328.3645   -6846.9858   -350.66789     102002.7      46.7237      46.7237      46.7237 
   26000    89.587338   -7333.9876   -6871.2024   -763.15745     102002.7      46.7237      46.7237      46.7237 
   27000    88.045899   -7310.7372   -6855.9147   -844.24155     102002.7      46.7237      46.7237      46.7237 
   28000    92.294482   -7334.5684   -6857.7988   -725.72466     102002.7      46.7237      46.7237      46.7237 
   29000    90.081824   -7341.1988   -6875.8592   -801.48502     102002.7      46.7237      46.7237      46.7237 
   30000    93.452671   -7339.8517   -6857.0992   -507.73828     102002.7      46.7237      46.7237      46.7237 
   31000    93.689117   -7339.0658   -6855.0918   -705.06888     102002.7      46.7237      46.7237      46.7237 
   32000    90.176978   -7332.4346   -6866.6034   -695.20887     102002.7      46.7237      46.7237      46.7237 
   33000    89.233285   -7351.7515   -6890.7953   -777.77851     102002.7      46.7237      46.7237      46.7237 
   34000    89.812149   -7333.7802   -6869.8336   -674.24614     102002.7      46.7237      46.7237      46.7237 
   35000    90.404747   -7344.9625   -6877.9547   -671.98369     102002.7      46.7237      46.7237      46.7237 
   36000       89.056   -7329.8085    -6869.768   -691.85699     102002.7      46.7237      46.7237      46.7237 
   37000    92.006269     -7341.69   -6866.4092    -723.5024     102002.7      46.7237      46.7237      46.7237 
   38000    93.050361   -7348.6408   -6867.9665    -624.1129     102002.7      46.7237      46.7237      46.7237 
   39000    88.135126     -7344.46   -6889.1766   -833.19593     102002.7      46.7237      46.7237      46.7237 
   40000    91.279564   -7345.7612   -6874.2343   -484.13101     102002.7      46.7237      46.7237      46.7237 
   41000    95.011976    -7340.431   -6849.6234   -560.64301     102002.7      46.7237      46.7237      46.7237 
   42000    92.748215   -7347.1398   -6868.0262   -540.13702     102002.7      46.7237      46.7237      46.7237 
   43000    87.740402   -7350.7877   -6897.5432   -498.66846     102002.7      46.7237      46.7237      46.7237 
   44000    89.842441   -7336.7797   -6872.6766   -870.12239     102002.7      46.7237      46.7237      46.7237 
   45000    89.877834    -7347.183   -6882.8972   -534.07445     102002.7      46.7237      46.7237      46.7237 
   46000    88.483135   -7328.7368   -6871.6556   -814.33661     102002.7      46.7237      46.7237      46.7237 
   47000    85.600774   -7338.6519   -6896.4602   -781.65293     102002.7      46.7237      46.7237      46.7237 
   48000    89.304719    -7329.022   -6867.6967   -767.39135     102002.7      46.7237      46.7237      46.7237 
   49000    93.017077   -7328.3928   -6847.8904   -786.50975     102002.7      46.7237      46.7237      46.7237 
   50000    90.556026   -7345.1852   -6877.3959   -532.59027     102002.7      46.7237      46.7237      46.7237 
   51000    92.372986   -7336.4112   -6859.2361   -737.77366     102002.7      46.7237      46.7237      46.7237 
   52000    89.048251   -7338.7092   -6878.7087   -779.63583     102002.7      46.7237      46.7237      46.7237 
   53000    89.953392   -7346.3288   -6881.6527   -829.56386     102002.7      46.7237      46.7237      46.7237 
   54000     90.25023   -7347.0854   -6880.8759   -1118.8691     102002.7      46.7237      46.7237      46.7237 
   55000    90.490938   -7340.2174   -6872.7644   -806.39537     102002.7      46.7237      46.7237      46.7237 
   56000    93.108926   -7337.3772   -6856.4003   -570.59756     102002.7      46.7237      46.7237      46.7237 
   57000    91.566145   -7348.7152    -6875.708   -764.81521     102002.7      46.7237      46.7237      46.7237 
   58000    91.668052   -7329.2183   -6855.6846   -756.00614     102002.7      46.7237      46.7237      46.7237 
   59000    88.477894   -7360.0805   -6903.0264   -673.60914     102002.7      46.7237      46.7237      46.7237 
   60000    92.267817    -7334.615   -6857.9831   -925.94582     102002.7      46.7237      46.7237      46.7237 
   61000    88.655163   -7352.1316   -6894.1618    -1094.751     102002.7      46.7237      46.7237      46.7237 
   62000    88.896978   -7332.6669   -6873.4479    -802.8982     102002.7      46.7237      46.7237      46.7237 
   63000    89.300183   -7334.5634   -6873.2615    -1049.065     102002.7      46.7237      46.7237      46.7237 
   64000    91.867933   -7342.9279   -6868.3617   -531.04911     102002.7      46.7237      46.7237      46.7237 
   65000    93.243329   -7334.9716   -6853.3004   -884.98839     102002.7      46.7237      46.7237      46.7237 
   66000    90.507205   -7347.8682   -6880.3312   -677.31585     102002.7      46.7237      46.7237      46.7237 
   67000    92.079078   -7335.7098   -6860.0529   -604.23687     102002.7      46.7237      46.7237      46.7237 
   68000    91.287596   -7341.7452   -6870.1768   -773.92331     102002.7      46.7237      46.7237      46.7237 
   69000    90.371519   -7332.4865   -6865.6504   -509.20191     102002.7      46.7237      46.7237      46.7237 
   70000    91.418477   -7338.0428   -6865.7984   -327.77982     102002.7      46.7237      46.7237      46.7237 
   71000    89.823935   -7329.6813   -6865.6739   -663.31996     102002.7      46.7237      46.7237      46.7237 
   72000    88.436481   -7344.4923   -6887.6521   -477.14643     102002.7      46.7237      46.7237      46.7237 
   73000     91.99451   -7340.4765   -6865.2564   -663.30663     102002.7      46.7237      46.7237      46.7237 
   74000    91.346807   -7331.6751   -6859.8009   -393.29901     102002.7      46.7237      46.7237      46.7237 
   75000    90.879163   -7344.7895    -6875.331   -555.52091     102002.7      46.7237      46.7237      46.7237 
   76000    91.674544   -7345.5736   -6872.0064   -590.23769     102002.7      46.7237      46.7237      46.7237 
   77000    90.064172    -7340.138   -6874.8896   -387.35404     102002.7      46.7237      46.7237      46.7237 
   78000    93.205092   -7339.0156   -6857.5419   -428.93464     102002.7      46.7237      46.7237      46.7237 
   79000    89.297221   -7319.5865   -6858.2999   -546.44021     102002.7      46.7237      46.7237      46.7237 
   80000    88.935856   -7322.0196   -6862.5998   -503.07276     102002.7      46.7237      46.7237      46.7237 
   81000    91.884462   -7330.5193   -6855.8677    -795.0893     102002.7      46.7237      46.7237      46.7237 
   82000    90.055785   -7350.8133   -6885.6082   -327.65909     102002.7      46.7237      46.7237      46.7237 
   83000    92.886496   -7340.1889   -6860.3611   -447.43085     102002.7      46.7237      46.7237      46.7237 
   84000    90.277005   -7331.5635   -6865.2156   -570.45558     102002.7      46.7237      46.7237      46.7237 
   85000    90.422783   -7350.2613   -6883.1603   -461.74718     102002.7      46.7237      46.7237      46.7237 
   86000    91.828256   -7339.2229   -6864.8616   -676.68094     102002.7      46.7237      46.7237      46.7237 
   87000    89.764813   -7337.2849   -6873.5829   -663.97237     102002.7      46.7237      46.7237      46.7237 
   88000    92.659982   -7343.3211   -6864.6634   -496.88718     102002.7      46.7237      46.7237      46.7237 
   89000    89.105305   -7328.3826   -6868.0875    -875.1159     102002.7      46.7237      46.7237      46.7237 
   90000    90.577804   -7335.3332   -6867.4314   -633.71176     102002.7      46.7237      46.7237      46.7237 
   91000     90.38643   -7319.9343   -6853.0212   -738.15175     102002.7      46.7237      46.7237      46.7237 
   92000    91.716692   -7349.0627   -6875.2777   -435.90261     102002.7      46.7237      46.7237      46.7237 
   93000    91.479674    -7344.165   -6871.6045   -653.82235     102002.7      46.7237      46.7237      46.7237 
   94000     87.64378   -7339.4885   -6886.7432   -619.87117     102002.7      46.7237      46.7237      46.7237 
   95000    90.214067   -7332.6149   -6866.5921   -727.38242     102002.7      46.7237      46.7237      46.7237 
   96000    91.157182    -7343.129   -6872.2343   -662.17122     102002.7      46.7237      46.7237      46.7237 
   97000    88.587662   -7333.9833   -6876.3621   -685.21319     102002.7      46.7237      46.7237      46.7237 
   98000    91.587213   -7331.3025   -6858.1864    -591.1443     102002.7      46.7237      46.7237      46.7237 
   99000    88.787316   -7349.2136   -6890.5611   -684.27333     102002.7      46.7237      46.7237      46.7237 
  100000    89.780372   -7324.1913   -6860.4089   -732.42169     102002.7      46.7237      46.7237      46.7237 
  101000    91.289016   -7339.9495   -6868.3738   -511.49169     102002.7      46.7237      46.7237      46.7237 
  102000    89.684667   -7329.1726   -6865.8845   -532.81261     102002.7      46.7237      46.7237      46.7237 
  103000    92.181959   -7352.9875   -6876.7991   -744.42823     102002.7      46.7237      46.7237      46.7237 
  104000    93.237914   -7326.6921    -6845.049   -427.07408     102002.7      46.7237      46.7237      46.7237 
  105000    90.836246   -7345.4283   -6876.1916   -744.65922     102002.7      46.7237      46.7237      46.7237 
  106000     91.00062    -7331.607   -6861.5211   -747.28177     102002.7      46.7237      46.7237      46.7237 
  107000    94.012598   -7339.9775   -6854.3325   -526.74959     102002.7      46.7237      46.7237      46.7237 
  108000    92.734584   -7337.6555   -6858.6124   -694.23905     102002.7      46.7237      46.7237      46.7237 
  109000    91.162987    -7324.261   -6853.3363   -522.48364     102002.7      46.7237      46.7237      46.7237 
  110000    87.978331   -7349.6518   -6895.1783   -754.87253     102002.7      46.7237      46.7237      46.7237 
  111000    93.118042   -7342.8936   -6861.8697   -877.85231     102002.7      46.7237      46.7237      46.7237 
  112000    93.222177   -7346.6051   -6865.0432   -880.36038     102002.7      46.7237      46.7237      46.7237 
  113000    90.624071   -7339.4335   -6871.2927   -1072.6826     102002.7      46.7237      46.7237      46.7237 
  114000    89.926589   -7347.0204   -6882.4827   -611.26657     102002.7      46.7237      46.7237      46.7237 
  115000    92.890587     -7343.19    -6863.341   -823.73411     102002.7      46.7237      46.7237      46.7237 
  116000    89.610068   -7345.1287    -6882.226   -708.30445     102002.7      46.7237      46.7237      46.7237 
  117000    91.167473    -7333.674   -6862.7262   -766.83891     102002.7      46.7237      46.7237      46.7237 
  118000    92.409074   -7329.4801   -6852.1185    -667.4975     102002.7      46.7237      46.7237      46.7237 
  119000    93.668177   -7339.8645   -6855.9987   -723.63132     102002.7      46.7237      46.7237      46.7237 
  120000    91.329755   -7338.3244   -6866.5383   -1017.7883     102002.7      46.7237      46.7237      46.7237 
  121000     91.47313   -7349.8267      -6877.3   -603.89032     102002.7      46.7237      46.7237      46.7237 
  122000    91.878231   -7333.5597   -6858.9403   -907.36328     102002.7      46.7237      46.7237      46.7237 
  123000    92.616083   -7340.4319    -6862.001   -357.46563     102002.7      46.7237      46.7237      46.7237 
  124000    89.845689   -7343.2677   -6879.1479    -678.9506     102002.7      46.7237      46.7237      46.7237 
  125000    90.309481   -7321.1154   -6854.5998    -677.7915     102002.7      46.7237      46.7237      46.7237 
  126000    90.891408   -7356.1794   -6886.6576   -553.60521     102002.7      46.7237      46.7237      46.7237 
  127000    90.706822   -7332.3059   -6863.7377   -603.22326     102002.7      46.7237      46.7237      46.7237 
  128000    92.256886   -7354.1362   -6877.5607   -62.131884     102002.7      46.7237      46.7237      46.7237 
  129000     93.20638   -7347.0191   -6865.5389   -492.36334     102002.7      46.7237      46.7237      46.7237 
  130000    92.291198   -7352.2101   -6875.4575   -329.76501     102002.7      46.7237      46.7237      46.7237 
  131000    90.943138   -7330.0438   -6860.2549   -645.34752     102002.7      46.7237      46.7237      46.7237 
  132000    93.504612   -7328.3906   -6845.3698    -628.9459     102002.7      46.7237      46.7237      46.7237 
  133000    90.550922    -7336.268   -6868.5052   -523.68325     102002.7      46.7237      46.7237      46.7237 
  134000    92.883569    -7351.389   -6871.5762   -914.93435     102002.7      46.7237      46.7237      46.7237 
  135000    88.574649   -7340.0533   -6882.4993   -660.47987     102002.7      46.7237      46.7237      46.7237 
  136000    91.896689   -7352.7835   -6878.0688   -647.91298     102002.7      46.7237      46.7237      46.7237 
  137000    92.015486   -7328.1771   -6852.8487     -829.845     102002.7      46.7237      46.7237      46.7237 
  138000     90.66713   -7324.1541    -6855.791   -459.54578     102002.7      46.7237      46.7237      46.7237 
  139000    91.605668   -7340.0811   -6866.8697   -651.76653     102002.7      46.7237      46.7237      46.7237 
  140000    90.267851   -7330.3934   -6864.0928   -594.81455     102002.7      46.7237      46.7237      46.7237 
  141000    92.675928   -7345.5626   -6866.8225   -692.00734     102002.7      46.7237      46.7237      46.7237 
  142000    93.238745    -7339.632   -6857.9845   -816.15627     102002.7      46.7237      46.7237      46.7237 
  143000     90.58453   -7344.4992   -6876.5627    -827.3129     102002.7      46.7237      46.7237      46.7237 
  144000     91.37057   -7318.0109    -6846.014   -732.02347     102002.7      46.7237      46.7237      46.7237 
  145000    90.057504   -7342.0207   -6876.8067    -862.7906     102002.7      46.7237      46.7237      46.7237 
  146000    91.876564   -7313.1762   -6838.5654    -417.4729     102002.7      46.7237      46.7237      46.7237 
  147000    89.892324   -7332.4367    -6868.076   -1088.5538     102002.7      46.7237      46.7237      46.7237 
  148000    89.877043   -7354.0588    -6889.777   -612.98497     102002.7      46.7237      46.7237      46.7237 
  149000    92.446657    -7346.279   -6868.7233   -764.13717     102002.7      46.7237      46.7237      46.7237 
  150000    90.967207   -7344.7341   -6874.8209   -732.27429     102002.7      46.7237      46.7237      46.7237 
  151000    91.603912   -7346.4792   -6873.2768   -573.20413     102002.7      46.7237      46.7237      46.7237 
  152000    91.637689   -7341.8857   -6868.5089    -599.7671     102002.7      46.7237      46.7237      46.7237 
  153000    90.887159    -7351.553   -6882.0532   -558.67149     102002.7      46.7237      46.7237      46.7237 
  154000    93.439977    -7331.972    -6849.285   -690.75223     102002.7      46.7237      46.7237      46.7237 
  155000    89.886785   -7342.9297   -6878.5976   -630.36304     102002.7      46.7237      46.7237      46.7237 
  156000    95.047163   -7341.1044   -6850.1151   -572.37102     102002.7      46.7237      46.7237      46.7237 
  157000    90.342052   -7325.3532   -6858.6694   -651.13681     102002.7      46.7237      46.7237      46.7237 
  158000    89.112482   -7343.7734   -6883.4411    -777.8159     102002.7      46.7237      46.7237      46.7237 
  159000    91.731227   -7343.3553   -6869.4953   -775.95652     102002.7      46.7237      46.7237      46.7237 
  160000    89.032796   -7329.0453   -6869.1246   -535.60542     102002.7      46.7237      46.7237      46.7237 
  161000    95.073597   -7340.4793   -6849.3535   -485.55128     102002.7      46.7237      46.7237      46.7237 
  162000    92.289194   -7357.6395   -6880.8972   -650.00967     102002.7      46.7237      46.7237      46.7237 
  163000    91.686118   -7329.9821   -6856.3551   -421.45325     102002.7      46.7237      46.7237      46.7237 
  164000     94.23053   -7342.7301   -6855.9593   -586.40434     102002.7      46.7237      46.7237      46.7237 
  165000    88.180344   -7346.1477   -6890.6307   -552.84937     102002.7      46.7237      46.7237      46.7237 
  166000    90.852769   -7337.4022   -6868.0801   -791.54711     102002.7      46.7237      46.7237      46.7237 
  167000    93.118318   -7353.5006   -6872.4752   -541.73543     102002.7      46.7237      46.7237      46.7237 
  168000    92.406325   -7346.3156   -6868.9682   -537.97526     102002.7      46.7237      46.7237      46.7237 
  169000    89.556066   -7353.0772   -6890.4535   -464.44971     102002.7      46.7237      46.7237      46.7237 
  170000    93.449899   -7338.5596   -6855.8214   -582.25782     102002.7      46.7237      46.7237      46.7237 
  171000     89.03544   -7351.6266   -6891.6924   -802.67721     102002.7      46.7237      46.7237      46.7237 
  172000    91.028064     -7335.79   -6865.5623   -429.76176     102002.7      46.7237      46.7237      46.7237 
  173000    89.113132   -7354.6259   -6894.2903   -985.36771     102002.7      46.7237      46.7237      46.7237 
  174000     93.02663    -7336.566   -6856.0143    -702.8283     102002.7      46.7237      46.7237      46.7237 
  175000    87.797039   -7349.7624   -6896.2254   -714.56245     102002.7      46.7237      46.7237      46.7237 
  176000    92.955501    -7344.774   -6864.5897   -675.46262     102002.7      46.7237      46.7237      46.7237 
  177000     94.04702   -7330.2255   -6844.4027   -490.70879     102002.7      46.7237      46.7237      46.7237 
  178000    90.631963    -7327.632   -6859.4505   -780.07153     102002.7      46.7237      46.7237      46.7237 
  179000    89.487577   -7352.9474   -6890.6775   -523.43068     102002.7      46.7237      46.7237      46.7237 
  180000    90.672902   -7328.3396   -6859.9467   -853.55344     102002.7      46.7237      46.7237      46.7237 
  181000    88.469043   -7352.5435   -6895.5351   -810.56921     102002.7      46.7237      46.7237      46.7237 
  182000    92.825984   -7329.7534   -6850.2381   -433.06423     102002.7      46.7237      46.7237      46.7237 
  183000    92.792483   -7344.1091    -6864.767   -448.04416     102002.7      46.7237      46.7237      46.7237 
  184000    88.471638   -7336.5507   -6879.5289    -280.5001     102002.7      46.7237      46.7237      46.7237 
  185000    92.039602   -7318.8873   -6843.4343   -662.99471     102002.7      46.7237      46.7237      46.7237 
  186000    89.810916   -7338.3857   -6874.4455   -488.96844     102002.7      46.7237      46.7237      46.7237 
  187000    89.463472   -7351.7293   -6889.5839   -693.47632     102002.7      46.7237      46.7237      46.7237 
  188000    90.697983   -7339.1501   -6870.6276   -924.44155     102002.7      46.7237      46.7237      46.7237 
  189000    93.384847    -7343.713   -6861.3108   -772.25121     102002.7      46.7237      46.7237      46.7237 
  190000    88.187517   -7348.2345   -6892.6804   -827.50931     102002.7      46.7237      46.7237      46.7237 
  191000    91.954106   -7337.9643    -6862.953   -459.63789     102002.7      46.7237      46.7237      46.7237 
  192000    86.705819   -7342.5479   -6894.6478   -834.45144     102002.7      46.7237      46.7237      46.7237 
  193000     90.97063   -7344.0969   -6874.1659   -580.36975     102002.7      46.7237      46.7237      46.7237 
  194000    93.199733   -7337.6534   -6856.2074   -658.35561     102002.7      46.7237      46.7237      46.7237 
  195000    89.860077   -7348.6348   -6884.4406   -771.70826     102002.7      46.7237      46.7237      46.7237 
  196000     90.79372   -7340.9374   -6871.9203   -651.69034     102002.7      46.7237      46.7237      46.7237 
  197000    91.724423   -7330.0084   -6856.1835   -692.50334     102002.7      46.7237      46.7237      46.7237 
  198000    91.008483   -7337.6992   -6867.5726   -389.79812     102002.7      46.7237      46.7237      46.7237 
  199000    89.318162   -7321.2162   -6859.8214   -629.59441     102002.7      46.7237      46.7237      46.7237 
  200000    90.720982   -7351.6946   -6883.0532   -441.78835     102002.7      46.7237      46.7237      46.7237 
  201000    91.400087   -7325.7281   -6853.5787   -634.39736     102002.7      46.7237      46.7237      46.7237 
  202000    93.304678    -7352.644   -6870.6559   -714.58288     102002.7      46.7237      46.7237      46.7237 
  203000    90.260636   -7336.4569   -6870.1936   -616.88072     102002.7      46.7237      46.7237      46.7237 
  204000     90.78849   -7323.2759   -6854.2858   -590.43025     102002.7      46.7237      46.7237      46.7237 
  205000    89.821564    -7342.657   -6878.6618   -507.93746     102002.7      46.7237      46.7237      46.7237 
  206000     90.25116   -7323.9275   -6857.7132   -867.31362     102002.7      46.7237      46.7237      46.7237 
  207000     88.30937   -7351.8563   -6895.6728   -860.95883     102002.7      46.7237      46.7237      46.7237 
  208000    91.129186   -7336.6401   -6865.8901   -739.16551     102002.7      46.7237      46.7237      46.7237 
  209000    90.710714   -7343.8328   -6875.2445   -546.62801     102002.7      46.7237      46.7237      46.7237 
  210000    89.847224   -7347.5135   -6883.3858   -520.20727     102002.7      46.7237      46.7237      46.7237 
  211000    90.148324   -7330.3747   -6864.6916    -804.2715     102002.7      46.7237      46.7237      46.7237 
  212000    91.080009   -7340.9386   -6870.4426   -552.54958     102002.7      46.7237      46.7237      46.7237 
  213000    91.438419   -7346.4154    -6874.068    -643.5999     102002.7      46.7237      46.7237      46.7237 
  214000    89.885109   -7324.0713   -6859.7479   -895.49163     102002.7      46.7237      46.7237      46.7237 
  215000    88.868215   -7340.3361   -6881.2657   -736.67974     102002.7      46.7237      46.7237      46.7237 
  216000    92.179787   -7345.8891   -6869.7119    -472.2604     102002.7      46.7237      46.7237      46.7237 
  217000    92.216946     -7341.94   -6865.5709   -582.39156     102002.7      46.7237      46.7237      46.7237 
  218000    88.412235   -7341.3802   -6884.6652   -431.97384     102002.7      46.7237      46.7237      46.7237 
  219000    90.388287   -7331.8342   -6864.9115   -553.42401     102002.7      46.7237      46.7237      46.7237 
  220000    89.798673   -7343.0907   -6879.2138   -556.14271     102002.7      46.7237      46.7237      46.7237 
  221000    92.429666   -7341.3104   -6863.8424   -776.44506     102002.7      46.7237      46.7237      46.7237 
  222000     90.16572   -7344.1756   -6878.4026   -794.48763     102002.7      46.7237      46.7237      46.7237 
  223000    91.928179   -7343.2132   -6868.3358   -723.55009     102002.7      46.7237      46.7237      46.7237 
  224000    92.107716   -7338.4906   -6862.6857   -698.89222     102002.7      46.7237      46.7237      46.7237 
  225000    95.498151   -7346.2023   -6852.8833   -830.15585     102002.7      46.7237      46.7237      46.7237 
  226000    91.327521   -7347.7986    -6876.024   -469.48168     102002.7      46.7237      46.7237      46.7237 
  227000    90.779812   -7332.5211   -6863.5759   -1003.8298     102002.7      46.7237      46.7237      46.7237 
  228000    91.742329   -7347.8306   -6873.9132   -827.72561     102002.7      46.7237      46.7237      46.7237 
  229000    88.964592   -7348.8607   -6889.2924   -655.66883     102002.7      46.7237      46.7237      46.7237 
  230000    93.433909   -7345.1447    -6862.489   -870.76131     102002.7      46.7237      46.7237      46.7237 
  231000    92.566069   -7332.0168   -6853.8442   -802.60942     102002.7      46.7237      46.7237      46.7237 
  232000    90.246309   -7346.9388   -6880.7495   -880.66873     102002.7      46.7237      46.7237      46.7237 
  233000    90.710316   -7322.4084   -6853.8222   -772.22776     102002.7      46.7237      46.7237      46.7237 
  234000    94.328621   -7342.0282   -6854.7507   -732.71693     102002.7      46.7237      46.7237      46.7237 
  235000    86.564791    -7350.044   -6902.8725   -704.95395     102002.7      46.7237      46.7237      46.7237 
  236000     91.55994   -7334.3645   -6861.3893   -597.95835     102002.7      46.7237      46.7237      46.7237 
  237000    90.832228   -7326.0824   -6856.8664   -761.21059     102002.7      46.7237      46.7237      46.7237 
  238000    89.345413    -7315.128   -6853.5925   -598.29326     102002.7      46.7237      46.7237      46.7237 
  239000    91.707821   -7354.0926   -6880.3535   -634.00873     102002.7      46.7237      46.7237      46.7237 
  240000    87.847961   -7340.9472   -6887.1471    -764.9646     102002.7      46.7237      46.7237      46.7237 
  241000    90.778299   -7335.3056   -6866.3681   -436.90975     102002.7      46.7237      46.7237      46.7237 
  242000     89.03096   -7352.8838   -6892.9727   -661.01696     102002.7      46.7237      46.7237      46.7237 
  243000    91.450083   -7337.9491   -6865.5414   -661.32789     102002.7      46.7237      46.7237      46.7237 
  244000    91.733844   -7334.9136   -6861.0401   -655.79804     102002.7      46.7237      46.7237      46.7237 
  245000     89.40969   -7332.6873   -6870.8198   -885.26777     102002.7      46.7237      46.7237      46.7237 
  246000    89.101501   -7323.2311   -6862.9556   -681.16931     102002.7      46.7237      46.7237      46.7237 
  247000    90.868063   -7348.0319   -6878.6307   -713.56582     102002.7      46.7237      46.7237      46.7237 
  248000    94.549656   -7333.5036   -6845.0843   -717.76285     102002.7      46.7237      46.7237      46.7237 
  249000    89.888915     -7343.39   -6879.0469    -551.3756     102002.7      46.7237      46.7237      46.7237 
  250000    92.299335   -7324.8139   -6848.0192   -855.83174     102002.7      46.7237      46.7237      46.7237 
  251000    90.569121   -7333.8231   -6865.9663   -822.45602     102002.7      46.7237      46.7237      46.7237 
  252000    87.204461    -7321.782   -6871.3061   -839.94544     102002.7      46.7237      46.7237      46.7237 
  253000    88.569529   -7345.0547   -6887.5272   -793.21418     102002.7      46.7237      46.7237      46.7237 
  254000    91.153961   -7329.9915   -6859.1135   -801.15637     102002.7      46.7237      46.7237      46.7237 
  255000    87.911097   -7339.0489   -6884.9227   -843.44633     102002.7      46.7237      46.7237      46.7237 
  256000      91.8157   -7333.6465   -6859.3501   -696.32012     102002.7      46.7237      46.7237      46.7237 
  257000    89.854328   -7330.9228   -6866.7583   -741.28352     102002.7      46.7237      46.7237      46.7237 
  258000    92.326947   -7329.4986   -6852.5612   -781.92738     102002.7      46.7237      46.7237      46.7237 
  259000    90.873455   -7338.5029   -6869.0739   -1006.0473     102002.7      46.7237      46.7237      46.7237 
  260000    87.996025   -7330.1051   -6875.5402   -950.72405     102002.7      46.7237      46.7237      46.7237 
  261000     91.42361   -7334.4819    -6862.211   -749.22067     102002.7      46.7237      46.7237      46.7237 
  262000    92.607056   -7339.1083    -6860.724   -766.61742     102002.7      46.7237      46.7237      46.7237 
  263000     87.58836   -7340.2215   -6887.7625   -800.00732     102002.7      46.7237      46.7237      46.7237 
  264000    91.871169   -7328.4355   -6853.8526   -829.42288     102002.7      46.7237      46.7237      46.7237 
  265000    92.938001   -7338.7206   -6858.6267   -762.51739     102002.7      46.7237      46.7237      46.7237 
  266000    90.131699   -7335.4517   -6869.8545   -850.72125     102002.7      46.7237      46.7237      46.7237 
  267000    89.494607   -7331.3543   -6869.0481   -624.35839     102002.7      46.7237      46.7237      46.7237 
  268000    93.869989   -7328.2166   -6843.3083   -758.09021     102002.7      46.7237      46.7237      46.7237 
  269000    94.369396   -7343.5068   -6856.0186   -690.46124     102002.7      46.7237      46.7237      46.7237 
  270000    90.309129   -7342.6309    -6876.117   -748.90064     102002.7      46.7237      46.7237      46.7237 
  271000    91.292787   -7340.9931    -6869.398   -726.89345     102002.7      46.7237      46.7237      46.7237 
  272000    94.366584   -7339.4446    -6851.971   -612.60164     102002.7      46.7237      46.7237      46.7237 
  273000    88.791251   -7338.9181   -6880.2453   -569.36718     102002.7      46.7237      46.7237      46.7237 
  274000    91.454366   -7344.6426   -6872.2127    -725.7637     102002.7      46.7237      46.7237      46.7237 
  275000    92.922977   -7326.5786   -6846.5623    -569.0566     102002.7      46.7237      46.7237      46.7237 
  276000    89.447707   -7337.2075   -6875.1436   -570.48115     102002.7      46.7237      46.7237      46.7237 
  277000    93.646231   -7338.6171   -6854.8647   -575.49466     102002.7      46.7237      46.7237      46.7237 
  278000    93.013474   -7362.3097   -6881.8259   -686.35092     102002.7      46.7237      46.7237      46.7237 
  279000    90.646717   -7329.8484   -6861.5907   -609.33465     102002.7      46.7237      46.7237      46.7237 
  280000    91.184257   -7336.9604   -6865.9259   -689.94992     102002.7      46.7237      46.7237      46.7237 
  281000    85.648657   -7341.6495   -6899.2105   -633.58167     102002.7      46.7237      46.7237      46.7237 
  282000    91.591454   -7335.4464   -6862.3084   -557.26337     102002.7      46.7237      46.7237      46.7237 
  283000    87.397348   -7329.3633   -6877.8909   -395.06043     102002.7      46.7237      46.7237      46.7237 
  284000    91.032958   -7355.6525   -6885.3996   -749.77775     102002.7      46.7237      46.7237      46.7237 
  285000    90.853642   -7353.7863   -6884.4596   -500.88457     102002.7      46.7237      46.7237      46.7237 
  286000    92.970084   -7338.8424   -6858.5828   -647.32859     102002.7      46.7237      46.7237      46.7237 
  287000     92.15673   -7334.1139   -6858.0558   -590.30375     102002.7      46.7237      46.7237      46.7237 
  288000    91.280938   -7334.1905   -6862.6566    -517.0131     102002.7      46.7237      46.7237      46.7237 
  289000    89.901561    -7328.899   -6864.4906    -552.0137     102002.7      46.7237      46.7237      46.7237 
  290000    93.946101   -7355.2894   -6869.9879   -622.54496     102002.7      46.7237      46.7237      46.7237 
  291000    92.700571    -7342.108   -6863.2406   -655.55778     102002.7      46.7237      46.7237      46.7237 
  292000    87.911306   -7344.6051   -6890.4779   -747.73856     102002.7      46.7237      46.7237      46.7237 
  293000    88.238261   -7330.7459   -6874.9296   -428.02685     102002.7      46.7237      46.7237      46.7237 
  294000    93.805436   -7328.5337   -6843.9589   -876.30787     102002.7      46.7237      46.7237      46.7237 
  295000    90.120066   -7336.6138   -6871.0767   -796.57275     102002.7      46.7237      46.7237      46.7237 
  296000    90.551337   -7340.8323   -6873.0673   -771.62754     102002.7      46.7237      46.7237      46.7237 
  297000    88.288034   -7348.3259   -6892.2526   -831.50873     102002.7      46.7237      46.7237      46.7237 
  298000    90.392679   -7335.7353   -6868.7898   -842.51473     102002.7      46.7237      46.7237      46.7237 
  299000    86.856871   -7330.4852   -6881.8049   -962.63119     102002.7      46.7237      46.7237      46.7237 
  300000    90.519625   -7350.8579   -6883.2567   -748.90006     102002.7      46.7237      46.7237      46.7237 
  301000    93.051448   -7336.7978   -6856.1178   -954.64136     102002.7      46.7237      46.7237      46.7237 
  302000    92.847651    -7342.279   -6862.6518   -717.19119     102002.7      46.7237      46.7237      46.7237 
  303000    92.447776   -7351.1012   -6873.5397    -694.2475     102002.7      46.7237      46.7237      46.7237 
  304000    93.297337   -7320.7813   -6838.8312   -591.10572     102002.7      46.7237      46.7237      46.7237 
  305000    89.216588   -7347.6191   -6886.7491   -711.42556     102002.7      46.7237      46.7237      46.7237 
  306000    93.492364   -7346.9595   -6864.0019   -743.23066     102002.7      46.7237      46.7237      46.7237 
  307000    94.535188   -7354.0355    -6865.691   -618.56354     102002.7      46.7237      46.7237      46.7237 
  308000    90.217533   -7329.9439   -6863.9032   -880.15656     102002.7      46.7237      46.7237      46.7237 
  309000    91.371859   -7352.2765   -6880.2728   -528.99144     102002.7      46.7237      46.7237      46.7237 
  310000    90.887244   -7356.1215   -6886.6212   -534.66694     102002.7      46.7237      46.7237      46.7237 
  311000    90.290735   -7335.5963   -6869.1775   -582.95527     102002.7      46.7237      46.7237      46.7237 
  312000    91.010159   -7327.2406   -6857.1054   -558.36142     102002.7      46.7237      46.7237      46.7237 
  313000    93.233522   -7336.0733   -6854.4529    -680.1331     102002.7      46.7237      46.7237      46.7237 
  314000    92.435684   -7350.9448   -6873.4458   -659.98328     102002.7      46.7237      46.7237      46.7237 
  315000    92.891918   -7322.7243   -6842.8684   -774.38512     102002.7      46.7237      46.7237      46.7237 
  316000    92.216351   -7347.6995   -6871.3334   -603.41965     102002.7      46.7237      46.7237      46.7237 
  317000    90.374808   -7337.0601    -6870.207   -541.82836     102002.7      46.7237      46.7237      46.7237 
  318000    93.895199   -7336.3789   -6851.3403   -558.38197     102002.7      46.7237      46.7237      46.7237 
  319000     90.77754   -7345.3849   -6876.4514   -404.79111     102002.7      46.7237      46.7237      46.7237 
  320000    93.160321   -7327.5884    -6846.346   -558.26824     102002.7      46.7237      46.7237      46.7237 
  321000    89.620078   -7353.6297   -6890.6754   -290.91413     102002.7      46.7237      46.7237      46.7237 
  322000     91.87359   -7332.2445   -6857.6491   -382.04623     102002.7      46.7237      46.7237      46.7237 
  323000    94.281036   -7334.7863   -6847.7546     -674.688     102002.7      46.7237      46.7237      46.7237 
  324000    90.070878   -7337.8186   -6872.5355   -635.50584     102002.7      46.7237      46.7237      46.7237 
  325000    92.392697   -7340.3474   -6863.0704   -611.11859     102002.7      46.7237      46.7237      46.7237 
  326000    92.779133   -7339.0437   -6859.7704   -532.11821     102002.7      46.7237      46.7237      46.7237 
  327000    90.455317   -7340.7235   -6873.4545   -510.00572     102002.7      46.7237      46.7237      46.7237 
  328000    91.707348   -7344.8652   -6871.1285   -386.23983     102002.7      46.7237      46.7237      46.7237 
  329000    88.909349   -7336.8881   -6877.6052   -458.29886     102002.7      46.7237      46.7237      46.7237 
  330000    90.156918   -7336.4231   -6870.6955   -727.05054     102002.7      46.7237      46.7237      46.7237 
  331000    92.842246    -7346.149   -6866.5498   -296.05569     102002.7      46.7237      46.7237      46.7237 
  332000    89.975211   -7341.2232   -6876.4343    -763.9052     102002.7      46.7237      46.7237      46.7237 
  333000    92.765185   -7326.3212     -6847.12   -541.82141     102002.7      46.7237      46.7237      46.7237 
  334000    90.493639   -7343.0241   -6875.5571   -729.22107     102002.7      46.7237      46.7237      46.7237 
  335000    91.581533   -7317.4977    -6844.411   -665.14523     102002.7      46.7237      46.7237      46.7237 
  336000    89.385503   -7339.8801   -6878.1375   -362.59403     102002.7      46.7237      46.7237      46.7237 
  337000    90.144734   -7343.0392   -6877.3746   -733.04058     102002.7      46.7237      46.7237      46.7237 
  338000    87.917017   -7347.7063   -6893.5495   -331.80836     102002.7      46.7237      46.7237      46.7237 
  339000    91.902131   -7339.5362   -6864.7933   -634.05174     102002.7      46.7237      46.7237      46.7237 
  340000    90.143576   -7341.2464   -6875.5878   -560.07535     102002.7      46.7237      46.7237      46.7237 
  341000    88.856702   -7338.6885   -6879.6776   -453.40993     102002.7      46.7237      46.7237      46.7237 
  342000    88.442841   -7342.1913   -6885.3182   -588.34263     102002.7      46.7237      46.7237      46.7237 
  343000    90.592963   -7339.1593   -6871.1793   -600.19613     102002.7      46.7237      46.7237      46.7237 
  344000    87.891576   -7338.1661   -6884.1407   -695.69053     102002.7      46.7237      46.7237      46.7237 
  345000    88.100152   -7317.1434   -6862.0406   -504.02911     102002.7      46.7237      46.7237      46.7237 
  346000    90.043791   -7339.7405   -6874.5974   -826.54439     102002.7      46.7237      46.7237      46.7237 
  347000    90.151662   -7329.3786   -6863.6782    -580.0024     102002.7      46.7237      46.7237      46.7237 
  348000    94.464218   -7351.2259   -6863.2479   -851.26723     102002.7      46.7237      46.7237      46.7237 
  349000    91.315368   -7357.4151   -6885.7034   -972.81347     102002.7      46.7237      46.7237      46.7237 
  350000    90.964775   -7355.3156   -6885.4149   -694.87846     102002.7      46.7237      46.7237      46.7237 
  351000    92.126037    -7342.725   -6866.8255    -1031.461     102002.7      46.7237      46.7237      46.7237 
  352000    90.213597   -7355.5332   -6889.5128   -934.05441     102002.7      46.7237      46.7237      46.7237 
  353000    91.209458    -7344.508   -6873.3433   -768.04515     102002.7      46.7237      46.7237      46.7237 
  354000    92.746972   -7323.0123   -6843.9052    -942.1499     102002.7      46.7237      46.7237      46.7237 
  355000    88.528919   -7330.8286   -6873.5109   -420.57696     102002.7      46.7237      46.7237      46.7237 
  356000    89.579868   -7343.4427    -6880.696   -712.36752     102002.7      46.7237      46.7237      46.7237 
  357000     89.83145   -7324.2265   -6860.1802    -687.7041     102002.7      46.7237      46.7237      46.7237 
  358000    90.712374   -7340.3578   -6871.7609   -749.10469     102002.7      46.7237      46.7237      46.7237 
  359000    91.532854   -7346.2545   -6873.4192   -640.81891     102002.7      46.7237      46.7237      46.7237 
  360000    93.321861   -7324.5898    -6842.513   -706.09608     102002.7      46.7237      46.7237      46.7237 
  361000     90.34693   -7338.9561    -6872.247   -660.86101     102002.7      46.7237      46.7237      46.7237 
  362000    90.370281    -7336.501   -6869.6712   -591.37563     102002.7      46.7237      46.7237      46.7237 
  363000    89.281169   -7337.5604   -6876.3568   -561.32142     102002.7      46.7237      46.7237      46.7237 
  364000    92.084461   -7345.0006   -6869.3159   -547.05779     102002.7      46.7237      46.7237      46.7237 
  365000    89.966563   -7348.0172   -6883.2729     -698.533     102002.7      46.7237      46.7237      46.7237 
  366000    90.374687   -7340.9299   -6874.0774   -711.88329     102002.7      46.7237      46.7237      46.7237 
  367000    89.188719   -7317.9935   -6857.2674   -652.55311     102002.7      46.7237      46.7237      46.7237 
  368000    90.545307   -7356.5993   -6888.8654   -555.00146     102002.7      46.7237      46.7237      46.7237 
  369000     93.05908   -7340.3447   -6859.6253   -570.69289     102002.7      46.7237      46.7237      46.7237 
  370000    88.415447   -7308.0878   -6851.3563   -803.71264     102002.7      46.7237      46.7237      46.7237 
  371000    86.872963   -7337.5778   -6888.8143   -621.94823     102002.7      46.7237      46.7237      46.7237 
  372000    91.133704   -7333.6997   -6862.9263   -474.07655     102002.7      46.7237      46.7237      46.7237 
  373000    91.164533    -7346.292   -6875.3594   -394.88539     102002.7      46.7237      46.7237      46.7237 
  374000    92.667246   -7345.3272   -6866.6319    -582.7999     102002.7      46.7237      46.7237      46.7237 
  375000    89.843502   -7341.7669   -6877.6584   -676.85818     102002.7      46.7237      46.7237      46.7237 
  376000    94.746258   -7345.8611   -6856.4262   -568.74527     102002.7      46.7237      46.7237      46.7237 
  377000    89.911083    -7339.176   -6874.7183   -811.29504     102002.7      46.7237      46.7237      46.7237 
  378000    90.846576   -7346.5566   -6877.2664   -745.93629     102002.7      46.7237      46.7237      46.7237 
  379000    93.730989   -7368.0875   -6883.8972    -671.8547     102002.7      46.7237      46.7237      46.7237 
  380000     92.62891   -7337.3015   -6858.8042   -910.37466     102002.7      46.7237      46.7237      46.7237 
  381000    90.053876   -7339.9879   -6874.7926   -764.17585     102002.7      46.7237      46.7237      46.7237 
  382000    89.664289   -7332.4931   -6869.3104   -887.65847     102002.7      46.7237      46.7237      46.7237 
  383000    92.312976   -7333.2502   -6856.3851   -801.34707     102002.7      46.7237      46.7237      46.7237 
  384000    92.204414   -7343.5959   -6867.2915   -867.41286     102002.7      46.7237      46.7237      46.7237 
  385000    91.878693   -7339.6583   -6865.0365   -761.61711     102002.7      46.7237      46.7237      46.7237 
  386000    88.787192   -7354.8051   -6896.1532     -597.749     102002.7      46.7237      46.7237      46.7237 
  387000    90.602048   -7344.6771   -6876.6501   -587.78803     102002.7      46.7237      46.7237      46.7237 
  388000     93.28429   -7336.4289   -6854.5461   -529.40669     102002.7      46.7237      46.7237      46.7237 
  389000    89.154724   -7336.1181   -6875.5676   -555.24014     102002.7      46.7237      46.7237      46.7237 
  390000     90.98466   -7347.7028   -6877.6993    -826.9928     102002.7      46.7237      46.7237      46.7237 
  391000     85.77822    -7320.758   -6877.6497   -574.62849     102002.7      46.7237      46.7237      46.7237 
  392000    88.893284   -7346.2043   -6887.0044   -757.98135     102002.7      46.7237      46.7237      46.7237 
  393000    91.955466     -7347.47   -6872.4517   -633.45505     102002.7      46.7237      46.7237      46.7237 
  394000    90.315441   -7341.9669   -6875.4204   -733.13885     102002.7      46.7237      46.7237      46.7237 
  395000    92.241335   -7345.7678   -6869.2727   -694.55462     102002.7      46.7237      46.7237      46.7237 
  396000    93.508901   -7337.2461   -6854.2031   -771.14334     102002.7      46.7237      46.7237      46.7237 
  397000    91.292307   -7354.2928   -6882.7002   -891.29415     102002.7      46.7237      46.7237      46.7237 
  398000    91.624022   -7330.3757   -6857.0695   -681.33093     102002.7      46.7237      46.7237      46.7237 
  399000    92.073452   -7334.3851   -6858.7573   -953.33244     102002.7      46.7237      46.7237      46.7237 
  400000    87.913628   -7349.5915   -6895.4522   -844.87591     102002.7      46.7237      46.7237      46.7237 
  401000    92.340823   -7334.1163   -6857.1073   -671.25175     102002.7      46.7237      46.7237      46.7237 
  402000    93.064704   -7342.4835   -6861.7351    -830.7069     102002.7      46.7237      46.7237      46.7237 
  403000    88.093256   -7349.7412    -6894.674   -843.78448     102002.7      46.7237      46.7237      46.7237 
  404000    89.500167   -7322.7043   -6860.3693   -850.22973     102002.7      46.7237      46.7237      46.7237 
  405000      91.7992   -7333.6563   -6859.4452   -711.98099     102002.7      46.7237      46.7237      46.7237 
  406000    95.703176   -7352.1744   -6857.7963   -726.57363     102002.7      46.7237      46.7237      46.7237 
  407000    88.164193    -7335.583   -6880.1494   -709.20982     102002.7      46.7237      46.7237      46.7237 
  408000    90.916415   -7325.3306   -6855.6797   -708.87561     102002.7      46.7237      46.7237      46.7237 
  409000    90.736496   -7344.0772   -6875.3558   -866.91803     102002.7      46.7237      46.7237      46.7237 
  410000    89.230674   -7342.8729   -6881.9301   -682.02116     102002.7      46.7237      46.7237      46.7237 
  411000    91.711582   -7326.5211   -6852.7626   -697.19624     102002.7      46.7237      46.7237      46.7237 
  412000    90.016694   -7351.6238   -6886.6206   -877.06508     102002.7      46.7237      46.7237      46.7237 
  413000    90.261275   -7342.4254   -6876.1587   -634.57714     102002.7      46.7237      46.7237      46.7237 
  414000    94.160757   -7340.7423   -6854.3319   -882.73287     102002.7      46.7237      46.7237      46.7237 
  415000    89.329934   -7344.7338   -6883.2783   -386.75694     102002.7      46.7237      46.7237      46.7237 
  416000     91.40331   -7339.2301    -6867.064   -545.60556     102002.7      46.7237      46.7237      46.7237 
  417000    91.286913   -7327.3973   -6855.8325   -579.67327     102002.7      46.7237      46.7237      46.7237 
  418000    89.412339   -7348.3512     -6886.47   -827.25654     102002.7      46.7237      46.7237      46.7237 
  419000    95.866228   -7329.2075   -6833.9871   -699.67388     102002.7      46.7237      46.7237      46.7237 
  420000    90.630404   -7332.8185   -6864.6451    -667.5769     102002.7      46.7237      46.7237      46.7237 
  421000    93.685424   -7353.5639    -6869.609   -1132.7589     102002.7      46.7237      46.7237      46.7237 
  422000    91.966089   -7345.6223    -6870.549   -419.55312     102002.7      46.7237      46.7237      46.7237 
  423000    89.860617   -7336.5924   -6872.3955    -614.7718     102002.7      46.7237      46.7237      46.7237 
  424000    91.347052   -7350.3431   -6878.4676   -756.27606     102002.7      46.7237      46.7237      46.7237 
  425000     89.09484   -7336.3574   -6876.1163   -500.89734     102002.7      46.7237      46.7237      46.7237 
  426000    91.493347   -7338.2988   -6865.6676   -752.19479     102002.7      46.7237      46.7237      46.7237 
  427000    92.855798   -7350.4131   -6870.7438   -556.13489     102002.7      46.7237      46.7237      46.7237 
  428000    92.465054   -7322.1244   -6844.4736    -728.5389     102002.7      46.7237      46.7237      46.7237 
  429000    93.336921   -7350.7453   -6868.5907   -467.76028     102002.7      46.7237      46.7237      46.7237 
  430000    87.483427   -7348.3144   -6896.3974    -666.0472     102002.7      46.7237      46.7237      46.7237 
  431000    92.145762   -7340.6462   -6864.6448   -646.72874     102002.7      46.7237      46.7237      46.7237 
  432000    92.418941   -7327.3913   -6849.9787   -545.99615     102002.7      46.7237      46.7237      46.7237 
  433000    90.206889    -7338.511   -6872.5253   -646.42634     102002.7      46.7237      46.7237      46.7237 
  434000    91.926825   -7337.5045   -6862.6341   -673.78048     102002.7      46.7237      46.7237      46.7237 
  435000    88.807149   -7346.4534   -6887.6984   -641.45955     102002.7      46.7237      46.7237      46.7237 
  436000     91.69376    -7343.011   -6869.3445   -646.47577     102002.7      46.7237      46.7237      46.7237 
  437000    91.493067   -7325.5026   -6852.8729   -756.29756     102002.7      46.7237      46.7237      46.7237 
  438000    90.979737   -7334.2034   -6864.2254   -630.11861     102002.7      46.7237      46.7237      46.7237 
  439000     88.27249   -7339.9019   -6883.9088   -639.34497     102002.7      46.7237      46.7237      46.7237 
  440000    91.023553   -7323.8098   -6853.6054   -453.87378     102002.7      46.7237      46.7237      46.7237 
  441000    94.480782   -7348.2103   -6860.1467   -740.77384     102002.7      46.7237      46.7237      46.7237 
  442000     91.03032   -7339.4734   -6869.2341   -545.02024     102002.7      46.7237      46.7237      46.7237 
  443000    91.553104    -7326.427   -6853.4872   -704.52602     102002.7      46.7237      46.7237      46.7237 
  444000    91.685121   -7333.1571   -6859.5353   -355.87624     102002.7      46.7237      46.7237      46.7237 
  445000    91.682973   -7335.5442   -6861.9334    -721.3488     102002.7      46.7237      46.7237      46.7237 
  446000    93.216633   -7329.1267   -6847.5935   -533.70916     102002.7      46.7237      46.7237      46.7237 
  447000    91.840813   -7342.6441   -6868.2179   -568.81547     102002.7      46.7237      46.7237      46.7237 
  448000    93.409022   -7337.4439   -6854.9168   -747.15213     102002.7      46.7237      46.7237      46.7237 
  449000    88.766081   -7355.9498    -6897.407   -499.73382     102002.7      46.7237      46.7237      46.7237 
  450000    94.300926   -7354.0353   -6866.9009   -923.87404     102002.7      46.7237      46.7237      46.7237 
  451000    94.896323   -7347.9247   -6857.7146   -363.12784     102002.7      46.7237      46.7237      46.7237 
  452000    90.946543   -7340.3764   -6870.5699   -638.45515     102002.7      46.7237      46.7237      46.7237 
  453000    89.961355   -7347.4322   -6882.7148   -583.52636     102002.7      46.7237      46.7237      46.7237 
  454000    91.827559   -7354.3261   -6879.9685   -529.07784     102002.7      46.7237      46.7237      46.7237 
  455000    88.196897    -7324.808   -6869.2054   -750.80999     102002.7      46.7237      46.7237      46.7237 
  456000    91.479903   -7341.2255   -6868.6638   -403.41894     102002.7      46.7237      46.7237      46.7237 
  457000    91.246819   -7360.7089   -6889.3512   -599.59395     102002.7      46.7237      46.7237      46.7237 
  458000    88.094613   -7333.7716   -6878.6974   -698.48778     102002.7      46.7237      46.7237      46.7237 
  459000    90.501053   -7346.8971   -6879.3918   -636.24185     102002.7      46.7237      46.7237      46.7237 
  460000    95.948965   -7333.8408    -6838.193   -829.74726     102002.7      46.7237      46.7237      46.7237 
  461000    88.821636   -7344.4101   -6885.5803   -616.16003     102002.7      46.7237      46.7237      46.7237 
  462000    92.001356   -7345.1174    -6869.862   -668.29624     102002.7      46.7237      46.7237      46.7237 
  463000    90.699957    -7356.293   -6887.7603   -624.16496     102002.7      46.7237      46.7237      46.7237 
  464000    89.933324   -7343.7923   -6879.2198   -416.14099     102002.7      46.7237      46.7237      46.7237 
  465000     89.60575   -7320.0756   -6857.1952   -840.14932     102002.7      46.7237      46.7237      46.7237 
  466000    92.344636   -7348.3827    -6871.354    -706.5994     102002.7      46.7237      46.7237      46.7237 
  467000    91.753902   -7344.1489   -6870.1718   -832.49403     102002.7      46.7237      46.7237      46.7237 
  468000    91.263791   -7325.8395   -6854.3941   -483.95327     102002.7      46.7237      46.7237      46.7237 
  469000    91.287691   -7342.5835   -6871.0146   -484.60928     102002.7      46.7237      46.7237      46.7237 
  470000    90.899612   -7331.9618   -6862.3977   -814.06888     102002.7      46.7237      46.7237      46.7237 
  471000    91.780122   -7339.6838   -6865.5712   -905.43154     102002.7      46.7237      46.7237      46.7237 
  472000    91.590376   -7334.6063   -6861.4739    -612.3665     102002.7      46.7237      46.7237      46.7237 
  473000    91.289596   -7348.0815   -6876.5028   -793.59368     102002.7      46.7237      46.7237      46.7237 
  474000    88.288673   -7330.6083   -6874.5317   -505.88413     102002.7      46.7237      46.7237      46.7237 
  475000    89.005692   -7337.9442   -6878.1636   -653.73331     102002.7      46.7237      46.7237      46.7237 
  476000    89.673005   -7341.9836   -6878.7558   -737.51996     102002.7      46.7237      46.7237      46.7237 
  477000    90.518162   -7327.4803   -6859.8867   -588.59036     102002.7      46.7237      46.7237      46.7237 
  478000    91.554548   -7345.7866   -6872.8393   -795.25891     102002.7      46.7237      46.7237      46.7237 
  479000    90.151935   -7331.1726   -6865.4708   -898.30816     102002.7      46.7237      46.7237      46.7237 
  480000    89.259476     -7343.65   -6882.5584   -888.28067     102002.7      46.7237      46.7237      46.7237 
  481000      94.1074   -7330.3227    -6844.188   -669.14734     102002.7      46.7237      46.7237      46.7237 
  482000    92.651934   -7346.8612   -6868.2451   -526.80019     102002.7      46.7237      46.7237      46.7237 
  483000    89.502909   -7333.4855   -6871.1364   -633.62608     102002.7      46.7237      46.7237      46.7237 
  484000    94.425535   -7337.0158   -6849.2377   -860.43945     102002.7      46.7237      46.7237      46.7237 
  485000    90.047425    -7333.367   -6868.2051    -667.3933     102002.7      46.7237      46.7237      46.7237 
  486000    94.217769    -7338.019   -6851.3141   -754.97664     102002.7      46.7237      46.7237      46.7237 
  487000    90.302281   -7328.6798   -6862.2013   -746.58899     102002.7      46.7237      46.7237      46.7237 
  488000    90.430415   -7322.6787   -6855.5384   -629.99469     102002.7      46.7237      46.7237      46.7237 
  489000    88.552543   -7346.2681   -6888.8284   -877.11325     102002.7      46.7237      46.7237      46.7237 
  490000     91.75414   -7355.7303   -6881.7519   -745.77715     102002.7      46.7237      46.7237      46.7237 
  491000    90.790638   -7337.4625   -6868.4613   -841.93083     102002.7      46.7237      46.7237      46.7237 
  492000    88.840819   -7327.0193   -6868.0904   -789.34179     102002.7      46.7237      46.7237      46.7237 
  493000     92.58429   -7333.2916   -6855.0249   -734.36332     102002.7      46.7237      46.7237      46.7237 
  494000    91.944236    -7346.734   -6871.7736    -765.9497     102002.7      46.7237      46.7237      46.7237 
  495000    87.594426   -7348.6195   -6896.1291   -657.97955     102002.7      46.7237      46.7237      46.7237 
  496000    89.858885   -7326.3237   -6862.1357   -643.33797     102002.7      46.7237      46.7237      46.7237 
  497000     88.77145   -7331.1026   -6872.5321   -559.97212     102002.7      46.7237      46.7237      46.7237 
  498000    91.355454   -7336.2436   -6864.3247   -563.16665     102002.7      46.7237      46.7237      46.7237 
  499000     92.33947   -7321.9261   -6844.9241   -468.20914     102002.7      46.7237      46.7237      46.7237 
  500000    91.653748   -7356.6735   -6883.2137   -805.69346     102002.7      46.7237      46.7237      46.7237 
  500504    90.329312   -7342.8566   -6876.2385   -856.23002     102002.7      46.7237      46.7237      46.7237 
Loop time of 1277.94 on 16 procs for 500000 steps with 1734 atoms

Performance: 33.805 ns/day, 0.710 hours/ns, 391.256 timesteps/s
99.8% CPU use with 16 MPI tasks x no OpenMP threads

MPI task timing breakdown:
Section |  min time  |  avg time  |  max time  |%varavg| %total
---------------------------------------------------------------
Pair    | 506.66     | 683.46     | 879.54     | 466.1 | 53.48
Bond    | 168.05     | 174.01     | 178.17     |  22.9 | 13.62
Neigh   | 2.97       | 2.9787     | 2.9872     |   0.4 |  0.23
Comm    | 204.56     | 404.33     | 585.48     | 609.0 | 31.64
Output  | 0.02066    | 0.021078   | 0.023819   |   0.5 |  0.00
Modify  | 7.1936     | 7.7957     | 8.3984     |  14.8 |  0.61
Other   |            | 5.344      |            |       |  0.42

Nlocal:    108.375 ave 135 max 75 min
Histogram: 1 0 0 0 3 7 3 0 1 1
Nghost:    2202 ave 2227 max 2173 min
Histogram: 1 0 2 0 2 5 3 2 0 1
Neighs:    11441.2 ave 15191 max 8220 min
Histogram: 2 2 2 2 1 2 1 0 1 3

Total # of neighbors = 183059
Ave neighs/atom = 105.57
Ave special neighs/atom = 6.6436
Neighbor list builds = 2601
Dangerous builds = 0
Neighbor list info ...
  update every 1 steps, delay 10 steps, check yes
  max neighbors/atom: 2000, page size: 100000
  master list distance cutoff = 16
  ghost atom cutoff = 16
  binsize = 8, bins = 6 6 6
  3 neighbor lists, perpetual/occasional/extra = 3 0 0
  (1) pair buck6d/coul/gauss/dsf, perpetual, skip from (3)
      attributes: half, newton on
      pair build: skip
      stencil: none
      bin: none
  (2) pair lj/cut, perpetual, skip from (3)
      attributes: half, newton on
      pair build: skip
      stencil: none
      bin: none
  (3) neighbor class addition, perpetual
      attributes: half, newton on
      pair build: half/bin/newton
      stencil: half/bin/3d/newton
      bin: standard
Setting up Verlet run ...
  Unit style    : real
  Current step  : 500504
  Time step     : 1
WARNING: Inconsistent image flags (../domain.cpp:786)
Per MPI rank memory allocation (min/avg/max) = 23.06 | 23.32 | 23.34 Mbytes
Step Time TotEng KinEng PotEng E_mol E_pair Temp Pxx Pyy Pzz Pxy Pxz Pyz Cella Cellb Cellc CellAlpha CellBeta CellGamma Volume Press 
  500504       500000   -6876.2385    466.61808   -7342.8566    4213.6743   -11556.531    90.329312   -561.08057   -1107.1195   -900.48999   -181.04568    287.74434    253.81259      46.7237      46.7237      46.7237           90           90           90     102002.7   -856.23002 
  501000       500496   -6870.0022    475.17278    -7345.175    4202.3003   -11547.475    91.985356   -430.14555   -469.94479   -669.07563   -168.78533    18.809103    177.43625      46.7237      46.7237      46.7237           90           90           90     102002.7   -523.05532 
  502000       501496   -6857.2009    479.38708    -7336.588    4226.7372   -11563.325    92.801173   -951.58816   -991.56846   -792.73516    136.89666   -157.40083    40.620502      46.7237      46.7237      46.7237           90           90           90     102002.7   -911.96393 
  503000       502496   -6889.5675    452.04632   -7341.6138    4215.9624   -11557.576    87.508466   -1151.7697   -402.79099   -507.23838    313.81528     95.90937    209.03921      46.7237      46.7237      46.7237           90           90           90     102002.7   -687.26634 
  504000       503496   -6859.3962    476.02587   -7335.4221    4229.2657   -11564.688    92.150498   -814.54628   -805.51523   -656.22925    171.34601   -203.70376   -202.35042      46.7237      46.7237      46.7237           90           90           90     102002.7   -758.76359 
  505000       504496   -6880.0896    467.23569   -7347.3253    4194.5131   -11541.838    90.448869   -781.67055   -672.95846   -918.54478    135.76705   -1.3097452    136.01761      46.7237      46.7237      46.7237           90           90           90     102002.7   -791.05793 
  506000       505496   -6845.2273    479.50604   -7324.7333    4228.5921   -11553.325      92.8242   -547.52054   -381.86458   -863.74536    97.794767     83.29167   -224.63976      46.7237      46.7237      46.7237           90           90           90     102002.7   -597.71016 
  507000       506496   -6868.5442    475.68286    -7344.227    4216.8613   -11561.088    92.084098   -758.91891    -454.2365   -497.58755   -124.52408     -80.2366    80.841334      46.7237      46.7237      46.7237           90           90           90     102002.7   -570.24765 
  508000       507496   -6867.6145    461.78829   -7329.4028    4233.0042   -11562.407    89.394345   -252.42667    -786.2546   -1218.3062   -52.955452   -48.181373   -46.559565      46.7237      46.7237      46.7237           90           90           90     102002.7   -752.32917 
  509000       508496   -6878.8781    462.07776   -7340.9558    4203.7065   -11544.662    89.450383   -707.56413   -357.01852   -753.34578   -229.72116    98.742696    -88.56373      46.7237      46.7237      46.7237           90           90           90     102002.7   -605.97614 
  510000       509496   -6870.8621    471.55369   -7342.4158    4218.2959   -11560.712     91.28476   -1075.6491    -752.9307   -720.67155    163.38988    271.97734    90.774702      46.7237      46.7237      46.7237           90           90           90     102002.7   -849.75044 
  511000       510496   -6837.7692    469.59699   -7307.3662    4241.6751   -11549.041    90.905977   -732.91714   -467.33708   -1270.4001    127.95416    150.74009   -105.19958      46.7237      46.7237      46.7237           90           90           90     102002.7   -823.55143 
  512000       511496   -6876.7833    461.83982   -7338.6231    4223.3386   -11561.962    89.404322     -289.613   -744.96329   -651.21628    72.319375   -103.81871    1.3079519      46.7237      46.7237      46.7237           90           90           90     102002.7   -561.93086 
  513000       512496   -6863.7077    471.46792   -7335.1756    4213.3883   -11548.564    91.268157   -869.69557   -511.99629   -134.44059   -33.121931    76.454089    41.206579      46.7237      46.7237      46.7237           90           90           90     102002.7   -505.37748 
  514000       513496   -6889.6185    468.57865   -7358.1972    4200.8007   -11558.998    90.708844    -729.3332   -730.84204   -1116.1659    235.62867   -86.634874    71.840081      46.7237      46.7237      46.7237           90           90           90     102002.7   -858.78039 
  515000       514496   -6869.4434    474.47703   -7343.9204    4225.4871   -11569.407     91.85067   -820.19265    -494.7268   -958.16131   -25.343811   -30.660815   -106.91754      46.7237      46.7237      46.7237           90           90           90     102002.7   -757.69359 
  516000       515496   -6857.0417    473.22074   -7330.2624    4230.6335   -11560.896    91.607473   -939.50045   -363.18448   -1080.5616    119.57838   -28.459198   -11.889916      46.7237      46.7237      46.7237           90           90           90     102002.7   -794.41551 
  517000       516496   -6860.7406    486.33656   -7347.0772     4223.351   -11570.428    94.146473    -788.5018   -800.76859   -659.86214    65.207975    262.18337    224.89566      46.7237      46.7237      46.7237           90           90           90     102002.7   -749.71084 
  518000       517496   -6888.4744    466.90624   -7355.3806      4199.15   -11554.531    90.385094    -488.2253   -772.20601   -1070.8603    41.849221    -4.441284   -51.632858      46.7237      46.7237      46.7237           90           90           90     102002.7   -777.09721 
  519000       518496   -6863.4979    471.62851   -7335.1264    4222.8528   -11557.979    91.299246   -804.18389   -1015.6205   -876.86694    223.95584    28.515421    119.72409      46.7237      46.7237      46.7237           90           90           90     102002.7   -898.89044 
  520000       519496   -6861.9607    478.12087   -7340.0816     4217.897   -11557.979    92.556055   -653.59372   -1215.6393   -347.76696   -113.67099   -47.373906    162.93097      46.7237      46.7237      46.7237           90           90           90     102002.7   -738.99998 
  521000       520496   -6871.7794    467.40545   -7339.1848    4212.6736   -11551.858    90.481733   -855.78696   -933.51313   -687.61938   -39.129522   -97.386251    42.382566      46.7237      46.7237      46.7237           90           90           90     102002.7   -825.63982 
  522000       521496   -6885.2095    457.18473   -7342.3942    4227.3343   -11569.728    88.503176   -1188.5664   -950.87617   -808.03874   -334.51147   -19.226181     88.09021      46.7237      46.7237      46.7237           90           90           90     102002.7   -982.49376 
  523000       522496   -6858.0962     477.3203   -7335.4165    4215.7585   -11551.175    92.401079   -831.29899   -517.12309   -1162.0091    160.86237   -17.002282    6.2345101      46.7237      46.7237      46.7237           90           90           90     102002.7   -836.81038 
  524000       523496   -6884.6669    460.78552   -7345.4524    4209.8775    -11555.33    89.200226   -687.11686   -1166.6729   -1220.2446   -218.05464    3.3000561    50.317005      46.7237      46.7237      46.7237           90           90           90     102002.7   -1024.6781 
  525000       524496   -6846.1571    480.28931   -7326.4465    4221.8301   -11548.277    92.975829   -1080.0387   -514.79005   -1068.0156     25.59383   -90.136298    16.600727      46.7237      46.7237      46.7237           90           90           90     102002.7   -887.61477 
  526000       525496   -6866.9339    461.08036   -7328.0142    4233.3927   -11561.407    89.257303   -904.79184   -581.21156   -560.85218    39.460491   -161.97018    63.333044      46.7237      46.7237      46.7237           90           90           90     102002.7   -682.28519 
  527000       526496   -6871.0436    473.46724   -7344.5108    4200.8849   -11545.396    91.655191   -549.93654   -1018.0384   -798.28949    134.67094    155.56469   -9.0395838      46.7237      46.7237      46.7237           90           90           90     102002.7   -788.75481 
  528000       527496   -6855.0416    464.36152   -7319.4031    4246.5661   -11565.969    89.892479   -941.72672   -667.43999   -561.49268     226.9415   -172.10008    124.62953      46.7237      46.7237      46.7237           90           90           90     102002.7   -723.55313 
  529000       528496   -6862.8233    466.98283   -7329.8061     4228.238   -11558.044     90.39992   -388.51334   -373.03058   -788.90013    -76.43728      16.1203   -235.26898      46.7237      46.7237      46.7237           90           90           90     102002.7   -516.81468 
  530000       529496   -6870.3464    471.00387   -7341.3502    4223.4128   -11564.763    91.178326   -463.34239   -649.06965   -1191.9491   -2.1738304    21.430935    135.00334      46.7237      46.7237      46.7237           90           90           90     102002.7   -768.12039 
  531000       530496   -6862.1002    471.52342   -7333.6236    4223.2905   -11556.914    91.278901   -900.49722   -89.880064   -784.13586    92.764232   -111.98168    91.511283      46.7237      46.7237      46.7237           90           90           90     102002.7   -591.50438 
  532000       531496   -6879.0645    473.46428   -7352.5288    4188.5989   -11541.128    91.654619   -720.40106   -629.17339   -892.54337   -57.010207    -81.88406    116.58045      46.7237      46.7237      46.7237           90           90           90     102002.7   -747.37261 
  533000       532496   -6835.0789    482.33043   -7317.4094    4249.8528   -11567.262    93.370955   -807.41527   -745.06907   -1038.5958   -106.69658   -13.599596   -212.32761      46.7237      46.7237      46.7237           90           90           90     102002.7   -863.69339 
  534000       533496   -6882.9622    469.49208   -7352.4543    4208.7053    -11561.16    90.885669   -1053.2585   -654.44377   -668.47389    70.850514   -152.66197    14.054606      46.7237      46.7237      46.7237           90           90           90     102002.7   -792.05874 
  535000       534496   -6879.2706    464.45847   -7343.7291    4208.8054   -11552.535    89.911248   -604.51793   -974.20896   -917.86061    223.03572    34.033497    40.803624      46.7237      46.7237      46.7237           90           90           90     102002.7   -832.19583 
  536000       535496   -6883.1995    456.03402   -7339.2335    4216.3701   -11555.604    88.280418   -747.87823     -1010.05   -645.27859   -167.89775    51.692436   -334.70119      46.7237      46.7237      46.7237           90           90           90     102002.7   -801.06894 
  537000       536496   -6869.4852    450.72499   -7320.2102    4245.7638   -11565.974    87.252679   -889.97226   -1185.2246   -797.18582    73.347569    -55.48121    28.412967      46.7237      46.7237      46.7237           90           90           90     102002.7   -957.46089 
  538000       537496    -6899.329    452.77091   -7352.0999    4192.8869   -11544.987    87.648735    -562.4704   -672.65182   -497.76346    35.892735    27.465848     13.97476      46.7237      46.7237      46.7237           90           90           90     102002.7   -577.62856 
  539000       538496   -6860.2053    469.79606   -7330.0014    4223.2974   -11553.299    90.944514   -641.76691   -767.17783   -638.28427    -77.47268   -68.429188    142.21078      46.7237      46.7237      46.7237           90           90           90     102002.7   -682.40967 
  540000       539496   -6887.3316    460.16681   -7347.4984    4203.5502   -11551.049    89.080456   -723.62672   -492.15659    -883.1521    50.085992   -78.117501    112.97561      46.7237      46.7237      46.7237           90           90           90     102002.7   -699.64514 
  541000       540496   -6868.9435     472.6378   -7341.5813    4211.5098   -11553.091    91.494627   -1102.4547   -879.06619   -694.86508    14.543196   -140.29528    4.5111265      46.7237      46.7237      46.7237           90           90           90     102002.7   -892.12867 
  542000       541496   -6890.8535    461.04406   -7351.8976    4190.7838   -11542.681    89.250275   -662.21217   -965.41929    -606.8254   -3.9560941     142.7025    66.523098      46.7237      46.7237      46.7237           90           90           90     102002.7   -744.81896 
  543000       542496   -6876.5209    464.93429   -7341.4552    4215.5531   -11557.008    90.003359   -602.72073   -928.05551   -1063.3533    -262.9577   -193.60244   -126.93718      46.7237      46.7237      46.7237           90           90           90     102002.7   -864.70986 
  544000       543496   -6832.2548    478.93933   -7311.1942     4238.366    -11549.56    92.714495   -1225.6617    -649.1091   -680.30446   -109.78506    205.81363   -138.85953      46.7237      46.7237      46.7237           90           90           90     102002.7   -851.69176 
  545000       544496   -6876.5747    472.14376   -7348.7185     4202.112    -11550.83    91.398988   -1050.1747   -454.12128   -240.27583    117.68105   -29.402035   -28.308248      46.7237      46.7237      46.7237           90           90           90     102002.7   -581.52393 
  546000       545496   -6891.6191    448.45334   -7340.0724    4210.4734   -11550.546    86.812926   -731.00774   -754.37299   -794.80704   -65.194073    39.235341    -89.95577      46.7237      46.7237      46.7237           90           90           90     102002.7   -760.06259 
  547000       546496   -6859.5172    477.12388    -7336.641    4210.3338   -11546.975    92.363055   -502.37021   -143.33997   -398.15979   -207.81504   -50.699259     178.2049      46.7237      46.7237      46.7237           90           90           90     102002.7   -347.95666 
  548000       547496   -6864.2335    466.83527   -7331.0688    4232.9665   -11564.035    90.371356   -910.33444   -384.06041   -364.79814   -239.61715   -244.48522    204.77493      46.7237      46.7237      46.7237           90           90           90     102002.7   -553.06433 
  549000       548496   -6881.4837    457.07804   -7338.5617    4219.6854   -11558.247    88.482522   -670.15746   -604.67183   -732.08622   -135.73082    59.230403    14.757513      46.7237      46.7237      46.7237           90           90           90     102002.7   -668.97183 
  550000       549496   -6848.3267    481.32647   -7329.6532    4225.1574   -11554.811    93.176605   -531.62429   -240.24694   -626.11461   -232.71665   -218.88114   -89.110647      46.7237      46.7237      46.7237           90           90           90     102002.7   -465.99528 
  551000       550496   -6893.7795    457.69152   -7351.4711     4219.367   -11570.838    88.601282   -820.44166   -1002.5638   -1056.1976   -271.29595    259.06855    134.33001      46.7237      46.7237      46.7237           90           90           90     102002.7   -959.73434 
  552000       551496   -6860.4791     468.1333   -7328.6124    4236.8521   -11565.464    90.622632   -593.76193    -1225.976   -492.65464   -24.223901   -109.47107    50.607538      46.7237      46.7237      46.7237           90           90           90     102002.7   -770.79752 
  553000       552496   -6886.4168    457.66765   -7344.0844    4215.9706   -11560.055    88.596661   -549.87018   -349.38831   -805.00315   -134.24998    94.917381    32.609656      46.7237      46.7237      46.7237           90           90           90     102002.7   -568.08721 
  554000       553496   -6845.4233    484.05394   -7329.4772    4223.4266   -11552.904    93.704596   -422.10718   -693.71639   -424.33416   -118.05866   -132.09673   -61.128153      46.7237      46.7237      46.7237           90           90           90     102002.7   -513.38591 
  555000       554496   -6850.0861    483.01218   -7333.0983    4228.4062   -11561.504     93.50293   -411.74433   -337.32739    -883.5251   -130.21303    43.125624    71.298656      46.7237      46.7237      46.7237           90           90           90     102002.7   -544.19894 
[...]
  936000       935496    -6859.782    476.13459   -7335.9166    4216.3792   -11552.296    92.171545   -336.35357    -506.5959   -571.72171   -172.23069     56.86186    2.1609593      46.7237      46.7237      46.7237           90           90           90     102002.7   -471.55706 
  937000       936496   -6867.6071    474.27094   -7341.8781     4226.646   -11568.524    91.810774   -48.738705    -806.0557    -436.0404   -152.69118   -16.887608    202.60569      46.7237      46.7237      46.7237           90           90           90     102002.7   -430.27827 
  938000       937496   -6868.4271    486.46967   -7354.8967    4200.8509   -11555.748    94.172241   -552.29725     -211.046   -622.27076    321.66872   -70.085553    28.204045      46.7237      46.7237      46.7237           90           90           90     102002.7   -461.87133 
  939000       938496   -6860.0198    463.43677   -7323.4566     4239.044   -11562.501    89.713464   -544.69984   -926.62439   -470.74014    23.541609     103.8714    83.832474      46.7237      46.7237      46.7237           90           90           90     102002.7   -647.35479 
  940000       939496   -6884.0487    451.53813   -7335.5868    4220.2364   -11555.823    87.410089   -563.68109   -500.67845   -961.98725   -71.618053    131.22357    127.50663      46.7237      46.7237      46.7237           90           90           90     102002.7   -675.44893 
  941000       940496   -6857.5913    484.39628   -7341.9876    4220.4558   -11562.443    93.770867   -381.66897   -682.65809   -853.04181   -169.12862     22.25116   -28.970202      46.7237      46.7237      46.7237           90           90           90     102002.7   -639.12296 
  942000       941496   -6871.6975    469.97759   -7341.6751    4216.1385   -11557.814    90.979655   -720.80619   -677.68651    -661.7608   -67.606348   -91.057003    242.14719      46.7237      46.7237      46.7237           90           90           90     102002.7   -686.75117 
  943000       942496    -6834.292    490.90903    -7325.201    4229.4594    -11554.66    95.031626   -837.72298   -664.28907   -445.35783   -52.336311   -133.63088    167.26952      46.7237      46.7237      46.7237           90           90           90     102002.7   -649.12329 
  944000       943496   -6869.2064    469.90515   -7339.1115    4226.8162   -11565.928    90.965632     -760.013    -1228.748   -1197.0173     161.2125   -100.51304    4.6783845      46.7237      46.7237      46.7237           90           90           90     102002.7   -1061.9261 
  945000       944496   -6880.1936    465.54793   -7345.7415    4218.1079   -11563.849    90.122149   -1030.4243    -827.6721   -851.89973   -26.796815   -151.96459    176.28619      46.7237      46.7237      46.7237           90           90           90     102002.7   -903.33205 
  946000       945496   -6847.1317     485.4267   -7332.5584     4222.645   -11555.203    93.970339   -333.15378   -496.84075   -633.64188    74.851698   -18.561901   -25.400722      46.7237      46.7237      46.7237           90           90           90     102002.7    -487.8788 
  947000       946496   -6879.1828    470.49566   -7349.6784    4208.3091   -11557.988    91.079944   -677.93626   -677.97733   -726.72156    81.961003    13.861909   -51.841972      46.7237      46.7237      46.7237           90           90           90     102002.7   -694.21172 
  948000       947496    -6858.989    477.08838   -7336.0774    4214.3196   -11550.397    92.356183   -655.41476   -528.90124   -766.50186    136.37571    15.132271    27.619448      46.7237      46.7237      46.7237           90           90           90     102002.7   -650.27262 
  949000       948496   -6858.2878    472.92217   -7331.2099    4231.8547   -11563.065    91.549675   -835.23843    -706.1061   -364.02682    75.401883     19.92062    27.141259      46.7237      46.7237      46.7237           90           90           90     102002.7   -635.12379 
  950000       949496   -6867.6352    478.44622   -7346.0815    4222.1518   -11568.233    92.619038   -827.76478    -770.7687   -1033.1272   -63.390746    105.96156   -103.95934      46.7237      46.7237      46.7237           90           90           90     102002.7   -877.22023 
  951000       950496   -6873.6525    465.28037   -7338.9329    4206.3246   -11545.258    90.070352   -653.03669   -1000.0493   -658.53866    145.17244    298.28154    134.64148      46.7237      46.7237      46.7237           90           90           90     102002.7   -770.54156 
  952000       951496   -6856.9248    475.90905   -7332.8338    4244.9144   -11577.748    92.127884   -939.34278    -545.1573    -509.6221   -106.56577   -107.61862   -2.4016244      46.7237      46.7237      46.7237           90           90           90     102002.7   -664.70739 
  953000       952496   -6865.0209    481.12671   -7346.1476    4219.8015   -11565.949    93.137934   -516.99286   -172.63671   -833.48275   -130.88507    60.721627   -146.71668      46.7237      46.7237      46.7237           90           90           90     102002.7    -507.7041 
  954000       953496   -6870.2505    469.51762   -7339.7681    4227.0447   -11566.813    90.890613   -749.02067   -608.20146   -719.47173    160.07713    144.79746   -67.681168      46.7237      46.7237      46.7237           90           90           90     102002.7   -692.23129 
  955000       954496   -6843.6631    496.03503   -7339.6981    4222.5567   -11562.255    96.023931   -317.64274   -655.48755   -434.77125   -107.45471   -36.397444    -45.46106      46.7237      46.7237      46.7237           90           90           90     102002.7   -469.30051 
  956000       955496     -6877.73    460.59084   -7338.3208    4216.3509   -11554.672     89.16254   -715.12994   -97.546099    -711.7808   -271.14275   -19.199664    -182.5317      46.7237      46.7237      46.7237           90           90           90     102002.7   -508.15228 
  957000       956496   -6866.6093    480.64537   -7347.2547    4212.3554    -11559.61    93.044755   -901.02119   -1040.0624   -789.97911    36.185486    37.982871   -184.33028      46.7237      46.7237      46.7237           90           90           90     102002.7   -910.35422 
  958000       957496   -6882.8667    458.03735   -7340.9041    4209.1818   -11550.086    88.668229    -702.3285    -656.7106   -475.23657   -103.49508   -57.737385   -32.499204      46.7237      46.7237      46.7237           90           90           90     102002.7   -611.42523 
  959000       958496   -6852.0393    471.37365   -7323.4129    4229.4275    -11552.84    91.249907   -774.08199   -509.93833   -1199.5939    37.538846   -15.040756    29.328855      46.7237      46.7237      46.7237           90           90           90     102002.7   -827.87139 
  960000       959496   -6899.6548    448.41479   -7348.0696    4207.1826   -11555.252    86.805464   -802.80962   -633.47926   -806.91753    45.551704    64.937862   -73.601539      46.7237      46.7237      46.7237           90           90           90     102002.7   -747.73547 
  961000       960496   -6868.9375    466.03449    -7334.972    4226.0036   -11560.976    90.216337   -1001.6131   -874.96743   -824.80929   -8.9899241    94.672078    67.100608      46.7237      46.7237      46.7237           90           90           90     102002.7   -900.46326 
  962000       961496   -6879.8031     458.9647   -7338.7678    4232.6388   -11571.407    88.847746   -337.01766    -723.5476   -1063.1355    11.034566   -38.728937     209.8836      46.7237      46.7237      46.7237           90           90           90     102002.7   -707.90025 
  963000       962496   -6864.4135    476.72784   -7341.1413    4213.5719   -11554.713    92.286388   -576.60029   -732.74355    -894.7894    -19.44975     143.0669    103.00011      46.7237      46.7237      46.7237           90           90           90     102002.7   -734.71108 
  964000       963496   -6877.4881    467.85575   -7345.3439    4218.2378   -11563.582    90.568903   -1082.7543    -706.2679   -502.12328    13.153448   -120.39377   -35.856873      46.7237      46.7237      46.7237           90           90           90     102002.7   -763.71515 
  965000       964496   -6871.6862    469.47187   -7341.1581    4216.1053   -11557.263    90.881756     -659.048    -870.4179   -961.33605   -151.74121   -1.0267184    13.216391      46.7237      46.7237      46.7237           90           90           90     102002.7   -830.26732 
  966000       965496   -6862.1367    466.29473   -7328.4314    4230.4743   -11558.906    90.266715    -938.1226   -1089.0349   -779.49854    150.14659    132.41026   -38.992727      46.7237      46.7237      46.7237           90           90           90     102002.7   -935.55202 
  967000       966496   -6879.5137     471.5409   -7351.0546    4195.7292   -11546.784    91.282285   -778.92068    -694.2375   -155.52626    26.267782     23.46852    117.01307      46.7237      46.7237      46.7237           90           90           90     102002.7   -542.89481 
  968000       967496   -6876.8838     468.2069   -7345.0907    4218.4224   -11563.513    90.636879   -698.69057   -693.52521   -595.13748    -271.1988   -69.897064   -200.05783      46.7237      46.7237      46.7237           90           90           90     102002.7   -662.45109 
  969000       968496   -6862.8308    477.99784   -7340.8286    4218.2392   -11559.068    92.532238    -661.6076   -1125.5119   -724.45577   -49.241088    -206.8675   -69.462761      46.7237      46.7237      46.7237           90           90           90     102002.7   -837.19174 
  970000       969496   -6874.0813    476.80893   -7350.8902    4194.3662   -11545.256    92.302086   -581.94025   -887.53852   -554.63656   -60.454152    152.12911    151.01558      46.7237      46.7237      46.7237           90           90           90     102002.7   -674.70511 
  971000       970496   -6884.0765    457.40787   -7341.4843    4217.6625   -11559.147    88.546372   -573.57718   -850.61853   -797.69694    12.855756   -42.956202   -132.41445      46.7237      46.7237      46.7237           90           90           90     102002.7   -740.63088 
  972000       971496   -6861.1829    477.05443   -7338.2373     4226.185   -11564.422    92.349611   -767.17564   -695.16598   -1085.2765   -86.064915    12.363915   -286.06256      46.7237      46.7237      46.7237           90           90           90     102002.7   -849.20604 
  973000       972496   -6881.4814    464.72807   -7346.2095    4210.3616   -11556.571    89.963437   -584.44878   -1078.2416   -449.35666   -63.558874   -292.89631   -144.98557      46.7237      46.7237      46.7237           90           90           90     102002.7   -704.01569 
  974000       973496   -6853.1488    473.96596   -7327.1148    4239.8712   -11566.986    91.751735   -640.70444   -694.26764   -995.22048     3.166697     219.5572    35.894128      46.7237      46.7237      46.7237           90           90           90     102002.7   -776.73085 
  975000       974496   -6865.3388    468.41508   -7333.7538    4224.5169   -11558.271     90.67718   -983.62383   -293.75377    -1408.516    106.55494   -43.103088    36.832768      46.7237      46.7237      46.7237           90           90           90     102002.7   -895.29787 
  976000       975496   -6898.8991    460.36269   -7359.2618    4193.5098   -11552.772    89.118374   -584.70375   -597.07663   -742.26698   -260.82782   -133.64068    4.5313513      46.7237      46.7237      46.7237           90           90           90     102002.7   -641.34912 
  977000       976496   -6869.6826    481.18085   -7350.8634    4213.8093   -11564.673    93.148416    -900.3112   -503.67551   -808.92837    178.74819    171.89222    68.763437      46.7237      46.7237      46.7237           90           90           90     102002.7   -737.63836 
  978000       977496   -6869.3173    473.00701   -7342.3243    4208.8167   -11551.141      91.5661    -893.9845   -633.74273   -804.54684    199.92847   -14.022358    -1.094204      46.7237      46.7237      46.7237           90           90           90     102002.7   -777.42469 
  979000       978496   -6878.8046    469.09783   -7347.9024    4215.8787   -11563.781    90.809348   -634.44927   -935.44728   -808.32209   -195.84329    205.07539    200.46605      46.7237      46.7237      46.7237           90           90           90     102002.7   -792.73954 
  980000       979496   -6878.0908    464.02847   -7342.1192    4198.8385   -11540.958    89.828006    -722.1676   -407.71464   -758.31359     125.4737   -96.381944    12.609962      46.7237      46.7237      46.7237           90           90           90     102002.7   -629.39861 
  981000       980496   -6878.9395    468.78225   -7347.7218    4216.6273   -11564.349    90.748258   -777.19741     -457.858   -490.79502   -146.50443    7.7258698   -48.286398      46.7237      46.7237      46.7237           90           90           90     102002.7   -575.28347 
  982000       981496   -6870.0175    463.66941   -7333.6869    4222.8958   -11556.583    89.758498   -370.24608   -603.32631   -801.00634    244.67853     35.30823    189.26261      46.7237      46.7237      46.7237           90           90           90     102002.7   -591.52624 
  983000       982496   -6892.0482    460.08893   -7352.1371     4216.347   -11568.484    89.065378   -597.21786   -782.55645   -763.95172   -26.104967    159.17799   -68.179558      46.7237      46.7237      46.7237           90           90           90     102002.7   -714.57534 
  984000       983496   -6866.0343    472.60295   -7338.6372    4225.7659   -11564.403    91.487879   -1297.5492   -550.86888   -544.86769    49.636444    28.527337    151.32228      46.7237      46.7237      46.7237           90           90           90     102002.7   -797.76192 
  985000       984496   -6860.4542     482.4245   -7342.8787    4223.1319   -11566.011    93.389165   -274.93531   -666.75313    -985.6782    60.776785   -11.339608     90.30154      46.7237      46.7237      46.7237           90           90           90     102002.7   -642.45555 
  986000       985496   -6873.4123    459.15705   -7332.5693    4230.6829   -11563.252    88.884983    -448.0685     -848.037   -479.58924    208.55623   -71.496127   -49.502132      46.7237      46.7237      46.7237           90           90           90     102002.7   -591.89825 
  987000       986496   -6872.7681    480.08671   -7352.8548     4209.843   -11562.698    92.936608   -473.65197   -406.61107   -477.67161     4.625643    -14.17828   -12.640148      46.7237      46.7237      46.7237           90           90           90     102002.7   -452.64488 
  988000       987496   -6859.5471    478.01555   -7337.5626    4216.8947   -11554.457    92.535666   -982.36456    -551.4997   -784.62375   -138.88567   -72.276628    177.82251      46.7237      46.7237      46.7237           90           90           90     102002.7   -772.82934 
  989000       988496   -6877.8854    467.34101   -7345.2264    4220.2149   -11565.441    90.469259   -1048.9548   -224.43085   -767.61215   -119.97788   -20.752685   -277.86489      46.7237      46.7237      46.7237           90           90           90     102002.7   -680.33259 
  990000       989496   -6831.5466    487.56329   -7319.1099    4240.9283   -11560.038    94.383946   -901.55011   -559.96143   -609.49675   -54.724796    -116.1976   -99.911041      46.7237      46.7237      46.7237           90           90           90     102002.7   -690.33609 
  991000       990496    -6874.211    462.12264   -7336.3336    4214.7808   -11551.114     89.45907   -565.03674   -432.26013   -677.38134   -79.547204   -69.489265   -146.82352      46.7237      46.7237      46.7237           90           90           90     102002.7   -558.22607 
  992000       991496   -6876.6133    460.16012   -7336.7734    4220.6414   -11557.415     89.07916   -904.53277   -765.76224   -727.03842   -24.361354   -44.224497   -160.06548      46.7237      46.7237      46.7237           90           90           90     102002.7   -799.11115 
  993000       992496   -6850.1368    478.03298   -7328.1698    4238.3059   -11566.476     92.53904   -453.24852   -775.92434   -1194.1935    39.222207   -28.017485   -58.348585      46.7237      46.7237      46.7237           90           90           90     102002.7   -807.78879 
  994000       993496   -6866.7113    472.40234   -7339.1136    4217.4109   -11556.524    91.449045   -386.27548   -1030.8701   -1001.0203    164.34619   -167.46737   -98.867707      46.7237      46.7237      46.7237           90           90           90     102002.7   -806.05531 
  995000       994496   -6880.3327    461.81326    -7342.146    4227.2425   -11569.389    89.399181   -1174.4137   -773.42702   -731.33819    52.202531   -111.62976   -124.99297      46.7237      46.7237      46.7237           90           90           90     102002.7   -893.05964 
  996000       995496    -6860.995    474.00857   -7335.0036    4219.6092   -11554.613    91.759983   -727.49529   -924.47703   -546.62462    157.27486   -106.47359   -113.23258      46.7237      46.7237      46.7237           90           90           90     102002.7   -732.86565 
  997000       996496   -6853.4077    483.88821   -7337.2959    4222.0351   -11559.331    93.672515   -861.31504   -776.53853     -400.935   -27.972623     283.3457   -153.33143      46.7237      46.7237      46.7237           90           90           90     102002.7   -679.59619 
  998000       997496   -6872.4096    473.75165   -7346.1613    4213.7885    -11559.95     91.71025   -909.31756    -459.7173   -288.11058   -62.055374   -160.89628    175.68968      46.7237      46.7237      46.7237           90           90           90     102002.7   -552.38181 
  999000       998496   -6836.9528    483.37137   -7320.3242    4234.3072   -11554.631    93.572463   -72.854537   -514.04202   -414.22134    7.0655945   -54.501465   -49.346254      46.7237      46.7237      46.7237           90           90           90     102002.7   -333.70597 
 1000000       999496   -6869.2614     470.5453   -7339.8067    4204.0575   -11543.864    91.089554   -586.62937   -634.61068   -255.43045    62.430437    311.31402    159.91851      46.7237      46.7237      46.7237           90           90           90     102002.7    -492.2235 
 1000504      1000000   -6862.7675    469.05672   -7331.8242    4208.8872   -11540.711    90.801391   -597.06661   -627.24938   -577.04078   -133.54365     1.124427    41.146898      46.7237      46.7237      46.7237           90           90           90     102002.7   -600.45226 
Loop time of 1408.01 on 16 procs for 500000 steps with 1734 atoms

Performance: 30.682 ns/day, 0.782 hours/ns, 355.111 timesteps/s
99.8% CPU use with 16 MPI tasks x no OpenMP threads

MPI task timing breakdown:
Section |  min time  |  avg time  |  max time  |%varavg| %total
---------------------------------------------------------------
Pair    | 575.79     | 767.28     | 980.83     | 477.6 | 54.49
Bond    | 176.47     | 183.3      | 190.78     |  27.7 | 13.02
Neigh   | 2.8726     | 2.8843     | 2.8959     |   0.4 |  0.20
Comm    | 210.65     | 426.87     | 622.82     | 638.7 | 30.32
Output  | 0.096684   | 0.10161    | 0.10202    |   0.4 |  0.01
Modify  | 21.762     | 22.196     | 22.7       |   6.5 |  1.58
Other   |            | 5.382      |            |       |  0.38

Nlocal:    108.375 ave 136 max 92 min
Histogram: 2 3 1 3 3 1 1 1 0 1
Nghost:    2200.12 ave 2215 max 2166 min
Histogram: 1 0 0 1 0 3 3 2 2 4
Neighs:    11448.3 ave 17484 max 7086 min
Histogram: 1 4 2 0 3 2 0 3 0 1

Total # of neighbors = 183173
Ave neighs/atom = 105.636
Ave special neighs/atom = 6.6436
Neighbor list builds = 2556
Dangerous builds = 0
Total wall time: 0:44:49
