LAMMPS (30 Mar 2018)
Reading data file ...
  orthogonal box = (0 0 0) to (46.7237 46.7237 46.7237)
  2 by 3 by 4 MPI processor grid
  reading atoms ...
  1731 atoms
  scanning bonds ...
  5 = max bonds/atom
  scanning angles ...
  10 = max angles/atom
  scanning dihedrals ...
  32 = max dihedrals/atom
  scanning impropers ...
  3 = max impropers/atom
  reading bonds ...
  2064 bonds
  reading angles ...
  3696 angles
  reading dihedrals ...
  6240 dihedrals
  reading impropers ...
  1008 impropers
Finding 1-2 1-3 1-4 neighbors ...
  special bond factors lj:   0          0          0         
  special bond factors coul: 0          0          0         
  5 = max # of 1-2 neighbors
  8 = max # of 1-3 neighbors
  20 = max # of 1-4 neighbors
  19 = max # of special neighbors
Finding 1-2 1-3 1-4 neighbors ...
  special bond factors lj:   0          0          1         
  special bond factors coul: 1          1          1         
  5 = max # of 1-2 neighbors
  8 = max # of 1-3 neighbors
  19 = max # of special neighbors
WARNING: Using 'neigh_modify every 1 delay 0 check yes' setting during minimization (../min.cpp:168)
Neighbor list info ...
  update every 1 steps, delay 0 steps, check yes
  max neighbors/atom: 2000, page size: 100000
  master list distance cutoff = 16
  ghost atom cutoff = 16
  binsize = 8, bins = 6 6 6
  3 neighbor lists, perpetual/occasional/extra = 3 0 0
  (1) pair buck6d/coul/gauss/dsf, perpetual, skip from (3)
      attributes: half, newton on
      pair build: skip
      stencil: none
      bin: none
  (2) pair lj/cut, perpetual, skip from (3)
      attributes: half, newton on
      pair build: skip
      stencil: none
      bin: none
  (3) neighbor class addition, perpetual
      attributes: half, newton on
      pair build: half/bin/newton
      stencil: half/bin/3d/newton
      bin: standard
Setting up cg style minimization ...
  Unit style    : real
  Current step  : 0
WARNING: Inconsistent image flags (../domain.cpp:786)
Per MPI rank memory allocation (min/avg/max) = 22.87 | 23.28 | 24.42 Mbytes
Step Temp E_pair E_mol TotEng Press 
       0            0   -11522.208    6482.8914    -5039.317    6290.4574 
     504            0   -11548.172    3741.3797    -7806.792   -513.45877 
Loop time of 1.19094 on 24 procs for 504 steps with 1731 atoms

99.7% CPU use with 24 MPI tasks x no OpenMP threads

Minimization stats:
  Stopping criterion = max force evaluations
  Energy initial, next-to-last, final = 
        -5039.31699578     -7806.76056677     -7806.79203984
  Force two-norm initial, final = 2576.96 8.47809
  Force max component initial, final = 151.962 0.913515
  Final line search alpha, max atom move = 0.00524987 0.00479583
  Iterations, force evaluations = 504 1001

MPI task timing breakdown:
Section |  min time  |  avg time  |  max time  |%varavg| %total
---------------------------------------------------------------
Pair    | 0.46815    | 0.60093    | 0.71267    |   9.0 | 50.46
Bond    | 0.12599    | 0.15759    | 0.20586    |   4.6 | 13.23
Neigh   | 0.0056197  | 0.0060462  | 0.0064483  |   0.4 |  0.51
Comm    | 0.28504    | 0.40309    | 0.55152    |  10.4 | 33.85
Output  | 0          | 0          | 0          |   0.0 |  0.00
Modify  | 0          | 0          | 0          |   0.0 |  0.00
Other   |            | 0.02328    |            |       |  1.95

Nlocal:    72.125 ave 82 max 61 min
Histogram: 4 1 2 1 1 3 4 3 2 3
Nghost:    1968.5 ave 2140 max 1878 min
Histogram: 16 0 0 0 0 0 0 0 0 8
Neighs:    7634.04 ave 10950 max 4056 min
Histogram: 1 0 3 6 2 2 2 6 1 1

Total # of neighbors = 183217
Ave neighs/atom = 105.845
Ave special neighs/atom = 6.65511
Neighbor list builds = 11
Dangerous builds = 0
Neighbor list info ...
  update every 1 steps, delay 10 steps, check yes
  max neighbors/atom: 2000, page size: 100000
  master list distance cutoff = 16
  ghost atom cutoff = 16
  binsize = 8, bins = 6 6 6
  3 neighbor lists, perpetual/occasional/extra = 3 0 0
  (1) pair buck6d/coul/gauss/dsf, perpetual, skip from (3)
      attributes: half, newton on
      pair build: skip
      stencil: none
      bin: none
  (2) pair lj/cut, perpetual, skip from (3)
      attributes: half, newton on
      pair build: skip
      stencil: none
      bin: none
  (3) neighbor class addition, perpetual
      attributes: half, newton on
      pair build: half/bin/newton
      stencil: half/bin/3d/newton
      bin: standard
Setting up Verlet run ...
  Unit style    : real
  Current step  : 504
  Time step     : 1
WARNING: Inconsistent image flags (../domain.cpp:786)
Per MPI rank memory allocation (min/avg/max) = 22.52 | 22.7 | 23.31 Mbytes
Step Temp PotEng TotEng Press Volume Lx Ly Lz 
     504          110    -7806.792   -7239.5439   -259.24781     102002.7      46.7237      46.7237      46.7237 
    1000    98.930716   -7312.8218   -6802.6557   -929.46422     102002.7      46.7237      46.7237      46.7237 
    2000    110.73534   -7222.5494   -6651.5092   -507.74596     102002.7      46.7237      46.7237      46.7237 
    3000    106.93103   -7225.6693   -6674.2472   -848.83512     102002.7      46.7237      46.7237      46.7237 
    4000    108.21255    -7230.386   -6672.3554   -394.25061     102002.7      46.7237      46.7237      46.7237 
    5000    110.22754   -7218.4131   -6649.9915   -641.42776     102002.7      46.7237      46.7237      46.7237 
    6000    109.93473   -7243.0497   -6676.1381   -860.13415     102002.7      46.7237      46.7237      46.7237 
    7000    111.54099   -7238.3096   -6663.1149   -296.71699     102002.7      46.7237      46.7237      46.7237 
    8000    114.44756   -7230.5335   -6640.3501   -659.21605     102002.7      46.7237      46.7237      46.7237 
    9000    109.59489   -7232.8142   -6667.6551    -416.8572     102002.7      46.7237      46.7237      46.7237 
   10000     110.9296   -7241.1664   -6669.1244   -578.87792     102002.7      46.7237      46.7237      46.7237 
   11000    110.66773   -7232.7991   -6662.1076    -461.8638     102002.7      46.7237      46.7237      46.7237 
   12000    109.04381   -7231.2453   -6668.9281   -566.84061     102002.7      46.7237      46.7237      46.7237 
   13000    111.73996   -7235.8954   -6659.6746   -926.32562     102002.7      46.7237      46.7237      46.7237 
   14000     112.9875   -7216.0994   -6633.4453   -899.88523     102002.7      46.7237      46.7237      46.7237 
   15000    110.34534   -7247.7112   -6678.6822   -1037.1665     102002.7      46.7237      46.7237      46.7237 
   16000     109.3082   -7211.6454   -6647.9647    -647.1518     102002.7      46.7237      46.7237      46.7237 
   17000     110.6095   -7244.7661   -6674.3748    -680.8448     102002.7      46.7237      46.7237      46.7237 
   18000    111.22508   -7231.5894   -6658.0237   -502.51977     102002.7      46.7237      46.7237      46.7237 
   19000    105.88512   -7225.0359   -6679.0074   -801.94032     102002.7      46.7237      46.7237      46.7237 
   20000    115.44325   -7248.7444   -6653.4264   -777.25249     102002.7      46.7237      46.7237      46.7237 
   21000     113.1732   -7233.7304   -6650.1187   -867.59365     102002.7      46.7237      46.7237      46.7237 
   22000    110.80559    -7249.875   -6678.4726   -685.30376     102002.7      46.7237      46.7237      46.7237 
   23000    111.20016   -7233.4948   -6660.0577   -547.94195     102002.7      46.7237      46.7237      46.7237 
   24000    106.65536    -7242.514   -6692.5135   -1007.2135     102002.7      46.7237      46.7237      46.7237 
   25000    112.19275   -7245.0771   -6666.5213   -567.10435     102002.7      46.7237      46.7237      46.7237 
   26000    112.23126   -7219.8428   -6641.0885   -555.69485     102002.7      46.7237      46.7237      46.7237 
   27000    108.44623   -7221.3312   -6662.0955   -657.75581     102002.7      46.7237      46.7237      46.7237 
   28000    109.47699   -7225.8362   -6661.2851   -875.70067     102002.7      46.7237      46.7237      46.7237 
   29000    111.73253   -7217.3074    -6641.125   -935.74644     102002.7      46.7237      46.7237      46.7237 
   30000    108.30859   -7233.5836   -6675.0577   -908.10633     102002.7      46.7237      46.7237      46.7237 
   31000    112.26544   -7239.3285   -6660.3979   -885.01024     102002.7      46.7237      46.7237      46.7237 
   32000    109.78871   -7208.0729   -6641.9143   -484.91508     102002.7      46.7237      46.7237      46.7237 
   33000    111.31628   -7222.4459     -6648.41   -956.24832     102002.7      46.7237      46.7237      46.7237 
   34000    108.13235   -7234.7322   -6677.1152   -613.04291     102002.7      46.7237      46.7237      46.7237 
   35000    110.67362   -7221.3791   -6650.6572   -668.12999     102002.7      46.7237      46.7237      46.7237 
   36000    109.39951     -7246.08   -6681.9285   -910.00934     102002.7      46.7237      46.7237      46.7237 
   37000    110.44176    -7238.151   -6668.6247   -432.09403     102002.7      46.7237      46.7237      46.7237 
   38000    113.65628   -7244.7743   -6658.6715   -984.10319     102002.7      46.7237      46.7237      46.7237 
   39000    109.11213   -7241.3816   -6678.7121   -673.60061     102002.7      46.7237      46.7237      46.7237 
   40000    109.23447   -7212.2449   -6648.9445   -1020.7951     102002.7      46.7237      46.7237      46.7237 
   41000    113.74943   -7234.5762    -6647.993   -753.79858     102002.7      46.7237      46.7237      46.7237 
   42000    110.83456   -7239.1582   -6667.6064    -513.2973     102002.7      46.7237      46.7237      46.7237 
   43000    114.23129   -7232.8894   -6643.8213   -671.03391     102002.7      46.7237      46.7237      46.7237 
   44000    108.69849   -7241.2678   -6680.7312   -675.74094     102002.7      46.7237      46.7237      46.7237 
   45000    112.33941   -7230.7382   -6651.4262   -792.37002     102002.7      46.7237      46.7237      46.7237 
   46000    110.85606   -7224.0404   -6652.3778   -664.59318     102002.7      46.7237      46.7237      46.7237 
   47000    109.16181   -7235.1405   -6672.2147   -750.25029     102002.7      46.7237      46.7237      46.7237 
   48000    113.38459   -7233.7237   -6649.0219   -348.93246     102002.7      46.7237      46.7237      46.7237 
   49000    110.86847   -7243.0864   -6671.3597   -630.43708     102002.7      46.7237      46.7237      46.7237 
   50000    107.86876   -7228.4371   -6672.1793    -752.7973     102002.7      46.7237      46.7237      46.7237 
   51000    112.35876   -7236.0255   -6656.6137   -639.63558     102002.7      46.7237      46.7237      46.7237 
   52000    112.35034   -7242.1322   -6662.7638   -713.79179     102002.7      46.7237      46.7237      46.7237 
   53000    112.41861   -7225.6144    -6645.894   -609.10852     102002.7      46.7237      46.7237      46.7237 
   54000    113.55707   -7255.4383    -6669.847   -892.03955     102002.7      46.7237      46.7237      46.7237 
   55000    111.05673   -7204.8789   -6632.1813    -726.1981     102002.7      46.7237      46.7237      46.7237 
   56000    109.32687   -7228.2325   -6664.4555   -641.08499     102002.7      46.7237      46.7237      46.7237 
   57000    112.56983    -7230.603   -6650.1027     -741.483     102002.7      46.7237      46.7237      46.7237 
   58000    111.10131   -7236.0362   -6663.1088    -656.6926     102002.7      46.7237      46.7237      46.7237 
   59000     112.4931   -7248.3577   -6668.2531   -737.92267     102002.7      46.7237      46.7237      46.7237 
   60000    110.85921   -7249.9116   -6678.2326   -662.84674     102002.7      46.7237      46.7237      46.7237 
   61000    111.18886   -7215.1003   -6641.7214    -780.5671     102002.7      46.7237      46.7237      46.7237 
   62000    108.94304   -7220.6103   -6658.8127   -932.25034     102002.7      46.7237      46.7237      46.7237 
   63000    106.25334   -7218.5692   -6670.6418   -780.96865     102002.7      46.7237      46.7237      46.7237 
   64000    110.67244   -7230.0828    -6659.367   -790.47906     102002.7      46.7237      46.7237      46.7237 
   65000     105.8514   -7217.7794   -6671.9248   -606.81137     102002.7      46.7237      46.7237      46.7237 
   66000    109.49666   -7223.9224   -6659.2698    -673.0897     102002.7      46.7237      46.7237      46.7237 
   67000    111.01054    -7237.658   -6665.1987   -631.12111     102002.7      46.7237      46.7237      46.7237 
   68000    106.85872   -7248.3479   -6697.2987   -944.87911     102002.7      46.7237      46.7237      46.7237 
   69000    109.04961   -7237.4335   -6675.0863   -574.46544     102002.7      46.7237      46.7237      46.7237 
   70000    111.49626   -7232.8909   -6657.9268   -844.43036     102002.7      46.7237      46.7237      46.7237 
   71000    105.87276    -7230.412   -6684.4473   -893.04158     102002.7      46.7237      46.7237      46.7237 
   72000    109.28899    -7225.272   -6661.6904   -779.03408     102002.7      46.7237      46.7237      46.7237 
   73000    105.31182   -7234.3723   -6691.3002   -716.07593     102002.7      46.7237      46.7237      46.7237 
   74000    105.98927   -7206.9517   -6660.3861   -708.80326     102002.7      46.7237      46.7237      46.7237 
   75000    112.45419    -7224.316   -6644.4121   -619.46855     102002.7      46.7237      46.7237      46.7237 
   76000    109.51774   -7220.7016   -6655.9403   -354.84743     102002.7      46.7237      46.7237      46.7237 
   77000    107.42435   -7216.1513   -6662.1853   -650.79317     102002.7      46.7237      46.7237      46.7237 
   78000    109.08905   -7243.9974   -6681.4468   -263.26593     102002.7      46.7237      46.7237      46.7237 
   79000    111.23495   -7223.4712   -6649.8546   -559.45738     102002.7      46.7237      46.7237      46.7237 
   80000    108.12298    -7228.901   -6671.3323   -545.74448     102002.7      46.7237      46.7237      46.7237 
   81000    112.04316   -7228.9106   -6651.1263   -758.36683     102002.7      46.7237      46.7237      46.7237 
   82000    111.98642   -7235.9289   -6658.4372   -754.24057     102002.7      46.7237      46.7237      46.7237 
   83000    109.44206   -7205.8547   -6641.4837   -534.17974     102002.7      46.7237      46.7237      46.7237 
   84000    112.91543   -7234.1893   -6651.9068   -544.42583     102002.7      46.7237      46.7237      46.7237 
   85000    109.71624    -7243.756   -6677.9711   -528.94767     102002.7      46.7237      46.7237      46.7237 
   86000    109.54867   -7235.0395   -6670.1188   -670.07913     102002.7      46.7237      46.7237      46.7237 
   87000    112.36817   -7238.4141   -6658.9538   -659.52718     102002.7      46.7237      46.7237      46.7237 
   88000    109.43211   -7249.7588   -6685.4392   -563.79441     102002.7      46.7237      46.7237      46.7237 
   89000    109.68303    -7230.958   -6665.3444   -739.12388     102002.7      46.7237      46.7237      46.7237 
   90000    109.10391   -7226.8998   -6664.2726    -840.8367     102002.7      46.7237      46.7237      46.7237 
   91000    109.60566   -7225.6735   -6660.4589    -877.3339     102002.7      46.7237      46.7237      46.7237 
   92000    110.48387     -7223.16   -6653.4166   -876.14635     102002.7      46.7237      46.7237      46.7237 
   93000    108.25479   -7251.4093   -6693.1609   -651.52061     102002.7      46.7237      46.7237      46.7237 
   94000    113.09087   -7220.9469   -6637.7597   -566.09512     102002.7      46.7237      46.7237      46.7237 
   95000    109.16657   -7232.4082   -6669.4578   -695.83315     102002.7      46.7237      46.7237      46.7237 
   96000    108.70904   -7240.3369   -6679.7459   -723.67813     102002.7      46.7237      46.7237      46.7237 
   97000    111.79586   -7223.5515   -6647.0425   -834.71998     102002.7      46.7237      46.7237      46.7237 
   98000    110.54579   -7228.6607    -6658.598      -694.41     102002.7      46.7237      46.7237      46.7237 
   99000    114.27286   -7223.6273   -6634.3448   -987.10077     102002.7      46.7237      46.7237      46.7237 
  100000    108.37691   -7240.3592    -6681.481   -635.86007     102002.7      46.7237      46.7237      46.7237 
  101000    111.23319   -7225.4537   -6651.8463   -739.95671     102002.7      46.7237      46.7237      46.7237 
  102000    107.00666   -7226.4939   -6674.6818   -896.67363     102002.7      46.7237      46.7237      46.7237 
  103000    114.26843   -7217.0933   -6627.8337   -835.18739     102002.7      46.7237      46.7237      46.7237 
  104000    110.36848   -7221.5273    -6652.379   -673.24106     102002.7      46.7237      46.7237      46.7237 
  105000    106.08246   -7245.1424   -6698.0963   -888.81256     102002.7      46.7237      46.7237      46.7237 
  106000    109.26124   -7226.9281   -6663.4896   -738.19806     102002.7      46.7237      46.7237      46.7237 
  107000    106.36598   -7236.9212   -6688.4129   -725.92138     102002.7      46.7237      46.7237      46.7237 
  108000    110.39384   -7245.4298   -6676.1507   -693.23201     102002.7      46.7237      46.7237      46.7237 
  109000    111.20845   -7233.5018   -6660.0219   -701.73809     102002.7      46.7237      46.7237      46.7237 
  110000    111.85441   -7234.7066   -6657.8957   -650.25051     102002.7      46.7237      46.7237      46.7237 
  111000    113.51508   -7252.4984   -6667.1236   -567.35548     102002.7      46.7237      46.7237      46.7237 
  112000    108.36627   -7235.0299   -6676.2066    -842.0579     102002.7      46.7237      46.7237      46.7237 
  113000    113.10212   -7232.9287   -6649.6836   -610.39095     102002.7      46.7237      46.7237      46.7237 
  114000    107.68818    -7240.044   -6684.7174   -883.35126     102002.7      46.7237      46.7237      46.7237 
  115000    109.94329     -7226.63   -6659.6743    -687.0712     102002.7      46.7237      46.7237      46.7237 
  116000    108.44786   -7244.1196   -6684.8755   -1029.9928     102002.7      46.7237      46.7237      46.7237 
  117000     110.1681    -7226.285     -6658.17   -639.37766     102002.7      46.7237      46.7237      46.7237 
  118000    105.91254   -7233.7136   -6687.5436   -852.24007     102002.7      46.7237      46.7237      46.7237 
  119000    109.34129   -7222.4514   -6658.6001   -765.13199     102002.7      46.7237      46.7237      46.7237 
  120000    111.09317   -7231.0046   -6658.1193   -522.99411     102002.7      46.7237      46.7237      46.7237 
  121000    110.43338    -7227.901    -6658.418   -875.29833     102002.7      46.7237      46.7237      46.7237 
  122000    112.78628   -7225.2872   -6643.6707   -607.60733     102002.7      46.7237      46.7237      46.7237 
  123000    111.99163   -7242.0567   -6664.5381   -691.13266     102002.7      46.7237      46.7237      46.7237 
  124000    111.13479   -7225.6328   -6652.5327   -500.72523     102002.7      46.7237      46.7237      46.7237 
  125000    109.72333   -7245.3192   -6679.4978   -761.65816     102002.7      46.7237      46.7237      46.7237 
  126000    107.80503   -7238.0023   -6682.0732   -459.71472     102002.7      46.7237      46.7237      46.7237 
  127000    112.77818   -7232.0139   -6650.4392   -539.89361     102002.7      46.7237      46.7237      46.7237 
  128000    108.55057   -7243.2292   -6683.4554   -778.25118     102002.7      46.7237      46.7237      46.7237 
  129000    108.58307   -7224.7223    -6664.781   -638.51941     102002.7      46.7237      46.7237      46.7237 
  130000    112.13108    -7207.827   -6629.5894   -1038.0777     102002.7      46.7237      46.7237      46.7237 
  131000    110.95982   -7236.3291   -6664.1313   -574.06345     102002.7      46.7237      46.7237      46.7237 
  132000    109.34436   -7230.1509   -6666.2838   -1001.3317     102002.7      46.7237      46.7237      46.7237 
  133000    109.67071   -7218.7033   -6653.1532   -631.84641     102002.7      46.7237      46.7237      46.7237 
  134000    108.35984   -7232.5393   -6673.7491   -553.47337     102002.7      46.7237      46.7237      46.7237 
  135000    110.67298   -7238.1012   -6667.3826   -622.98309     102002.7      46.7237      46.7237      46.7237 
  136000    109.95776   -7214.7011   -6647.6707   -613.91414     102002.7      46.7237      46.7237      46.7237 
  137000    112.52756    -7250.116   -6669.8337   -768.08128     102002.7      46.7237      46.7237      46.7237 
  138000    109.32588   -7225.6376   -6661.8658   -765.25754     102002.7      46.7237      46.7237      46.7237 
  139000    110.15067   -7236.1839   -6668.1587   -676.89045     102002.7      46.7237      46.7237      46.7237 
  140000    108.09872   -7225.1763   -6667.7327   -792.18286     102002.7      46.7237      46.7237      46.7237 
  141000     106.9527   -7245.9204   -6694.3866    -811.0358     102002.7      46.7237      46.7237      46.7237 
  142000    111.75862   -7238.9876   -6662.6706   -708.41927     102002.7      46.7237      46.7237      46.7237 
  143000    111.88269   -7224.5301   -6647.5733   -858.62005     102002.7      46.7237      46.7237      46.7237 
  144000    108.54484   -7233.4207   -6673.6765   -874.11431     102002.7      46.7237      46.7237      46.7237 
  145000    111.83912   -7236.2254   -6659.4933   -737.10004     102002.7      46.7237      46.7237      46.7237 
  146000    110.30765   -7213.7492   -6644.9146   -970.92821     102002.7      46.7237      46.7237      46.7237 
  147000    107.03542   -7236.7463   -6684.7859   -614.03471     102002.7      46.7237      46.7237      46.7237 
  148000    108.05066   -7228.5026   -6671.3068   -859.57829     102002.7      46.7237      46.7237      46.7237 
  149000    108.30074   -7232.3501   -6673.8647   -744.96668     102002.7      46.7237      46.7237      46.7237 
  150000    112.82648    -7222.804   -6640.9803   -363.25862     102002.7      46.7237      46.7237      46.7237 
  151000      107.545   -7215.6522    -6661.064   -690.74401     102002.7      46.7237      46.7237      46.7237 
  152000    110.14463   -7236.7546   -6668.7606   -692.34296     102002.7      46.7237      46.7237      46.7237 
  153000    111.28633   -7234.5276   -6660.6461   -557.00341     102002.7      46.7237      46.7237      46.7237 
  154000    108.13302    -7239.234   -6681.6135   -818.53013     102002.7      46.7237      46.7237      46.7237 
  155000    111.29503   -7233.3515   -6659.4251   -945.98313     102002.7      46.7237      46.7237      46.7237 
  156000    111.05391   -7234.8632   -6662.1803   -770.94375     102002.7      46.7237      46.7237      46.7237 
  157000    110.85424   -7238.6381   -6666.9848   -573.55222     102002.7      46.7237      46.7237      46.7237 
  158000    110.77935   -7219.0355   -6647.7684   -426.92043     102002.7      46.7237      46.7237      46.7237 
  159000    109.14298   -7244.1697    -6681.341   -571.47899     102002.7      46.7237      46.7237      46.7237 
  160000    110.28506   -7227.5388   -6658.8206   -464.08856     102002.7      46.7237      46.7237      46.7237 
  161000    105.91331   -7221.4131   -6675.2392   -484.03135     102002.7      46.7237      46.7237      46.7237 
  162000    109.97593    -7234.703    -6667.579   -798.07388     102002.7      46.7237      46.7237      46.7237 
  163000    113.63884   -7216.5666   -6630.5537   -796.71221     102002.7      46.7237      46.7237      46.7237 
  164000    112.39673    -7242.573   -6662.9654   -547.36078     102002.7      46.7237      46.7237      46.7237 
  165000    110.25826    -7243.091    -6674.511   -741.77337     102002.7      46.7237      46.7237      46.7237 
  166000    111.36631   -7236.2003   -6661.9064   -705.76556     102002.7      46.7237      46.7237      46.7237 
  167000    106.41094    -7242.184   -6693.4439    -656.3065     102002.7      46.7237      46.7237      46.7237 
  168000    111.95944    -7240.564   -6663.2114   -681.17404     102002.7      46.7237      46.7237      46.7237 
  169000    109.77686   -7219.9434   -6653.8459   -656.50666     102002.7      46.7237      46.7237      46.7237 
  170000    108.01139    -7244.065   -6687.0718    -515.4588     102002.7      46.7237      46.7237      46.7237 
  171000    108.21869   -7216.7725   -6658.7102   -407.78046     102002.7      46.7237      46.7237      46.7237 
  172000     108.7617   -7222.7199   -6661.8575   -560.11264     102002.7      46.7237      46.7237      46.7237 
  173000    110.65964    -7256.944   -6686.2942    -667.9449     102002.7      46.7237      46.7237      46.7237 
  174000    109.05675   -7223.9325   -6661.5485   -672.22593     102002.7      46.7237      46.7237      46.7237 
  175000    109.39651   -7252.1181    -6687.982   -821.05089     102002.7      46.7237      46.7237      46.7237 
  176000    107.58415   -7232.3277   -6677.5376   -394.70134     102002.7      46.7237      46.7237      46.7237 
  177000    113.77938   -7229.0733   -6642.3357   -831.80999     102002.7      46.7237      46.7237      46.7237 
  178000    111.51108   -7244.4365    -6669.396    -664.3986     102002.7      46.7237      46.7237      46.7237 
  179000    111.10773   -7248.5421   -6675.5816   -845.19397     102002.7      46.7237      46.7237      46.7237 
  180000    115.13236   -7227.3621   -6633.6474   -866.67971     102002.7      46.7237      46.7237      46.7237 
  181000    113.82474   -7235.7587   -6648.7871    -658.8678     102002.7      46.7237      46.7237      46.7237 
  182000    106.95484   -7263.4151   -6711.8703   -614.43835     102002.7      46.7237      46.7237      46.7237 
  183000    109.10473   -7213.7875    -6651.156   -547.44562     102002.7      46.7237      46.7237      46.7237 
  184000    110.31593   -7246.8509   -6677.9735   -745.02173     102002.7      46.7237      46.7237      46.7237 
  185000    111.45074   -7205.0893     -6630.36   -843.45435     102002.7      46.7237      46.7237      46.7237 
  186000    109.26784   -7239.0881   -6675.6155   -939.40627     102002.7      46.7237      46.7237      46.7237 
  187000    109.41742   -7209.5519    -6645.308   -739.08642     102002.7      46.7237      46.7237      46.7237 
  188000    109.61599   -7225.4591   -6660.1912   -733.61619     102002.7      46.7237      46.7237      46.7237 
  189000    110.58127     -7244.35   -6674.1043   -546.78979     102002.7      46.7237      46.7237      46.7237 
  190000    110.00836   -7227.0979   -6659.8066   -550.57048     102002.7      46.7237      46.7237      46.7237 
  191000     109.0598   -7259.2349   -6696.8351   -789.39885     102002.7      46.7237      46.7237      46.7237 
  192000    110.41058   -7227.3325   -6657.9671   -625.90361     102002.7      46.7237      46.7237      46.7237 
  193000    108.05287   -7245.5644   -6688.3572   -735.50922     102002.7      46.7237      46.7237      46.7237 
  194000    108.35708   -7223.2104   -6664.4344   -629.44952     102002.7      46.7237      46.7237      46.7237 
  195000    109.82792   -7225.6155   -6659.2548   -555.89448     102002.7      46.7237      46.7237      46.7237 
  196000    107.54679   -7236.5569   -6681.9594   -337.28476     102002.7      46.7237      46.7237      46.7237 
  197000    112.17142   -7241.0534   -6662.6077   -446.71214     102002.7      46.7237      46.7237      46.7237 
  198000    110.82381   -7244.4327   -6672.9364   -920.66648     102002.7      46.7237      46.7237      46.7237 
  199000    109.61212   -7224.7646   -6659.5167   -583.46817     102002.7      46.7237      46.7237      46.7237 
  200000    109.86403   -7229.8572   -6663.3102   -619.25093     102002.7      46.7237      46.7237      46.7237 
  201000       107.35   -7251.6584   -6698.0758    -386.3811     102002.7      46.7237      46.7237      46.7237 
  202000    109.01112   -7225.2006   -6663.0519   -369.45084     102002.7      46.7237      46.7237      46.7237 
  203000    108.37382   -7227.0592   -6668.1969   -594.15286     102002.7      46.7237      46.7237      46.7237 
  204000    112.43966   -7205.6133   -6625.7843   -596.98396     102002.7      46.7237      46.7237      46.7237 
  205000    112.20198   -7235.3541   -6656.7508   -475.42213     102002.7      46.7237      46.7237      46.7237 
  206000    111.55861   -7227.4355   -6652.1499    -713.5261     102002.7      46.7237      46.7237      46.7237 
  207000    116.12548   -7241.8909   -6643.0549   -635.71454     102002.7      46.7237      46.7237      46.7237 
  208000    109.38153   -7229.4997   -6665.4408   -745.10455     102002.7      46.7237      46.7237      46.7237 
  209000    111.18457   -7221.0052   -6647.6484   -829.68917     102002.7      46.7237      46.7237      46.7237 
  210000    111.02131   -7241.7776   -6669.2628   -568.53261     102002.7      46.7237      46.7237      46.7237 
  211000    109.62583   -7243.0801   -6677.7615   -453.98883     102002.7      46.7237      46.7237      46.7237 
  212000    111.62659   -7224.9759   -6649.3398   -556.72649     102002.7      46.7237      46.7237      46.7237 
  213000     107.5065    -7226.447   -6672.0574   -696.83814     102002.7      46.7237      46.7237      46.7237 
  214000    112.87779    -7228.895   -6646.8066    -894.0869     102002.7      46.7237      46.7237      46.7237 
  215000    108.86248   -7239.2316   -6677.8494   -644.51255     102002.7      46.7237      46.7237      46.7237 
  216000     107.9295    -7249.505    -6692.934   -690.94207     102002.7      46.7237      46.7237      46.7237 
  217000    111.30002   -7238.3131    -6664.361   -756.60045     102002.7      46.7237      46.7237      46.7237 
  218000    107.65226   -7254.4133    -6699.272   -619.35295     102002.7      46.7237      46.7237      46.7237 
  219000    110.63139   -7233.7336   -6663.2295   -569.98666     102002.7      46.7237      46.7237      46.7237 
  220000    111.30014   -7238.3426   -6664.3898   -848.48964     102002.7      46.7237      46.7237      46.7237 
  221000    111.98025    -7229.818   -6652.3581   -763.89393     102002.7      46.7237      46.7237      46.7237 
  222000    112.21636   -7226.5805    -6647.903   -615.47723     102002.7      46.7237      46.7237      46.7237 
  223000    106.29664    -7221.345   -6673.1943   -767.04746     102002.7      46.7237      46.7237      46.7237 
  224000    109.62097   -7224.0724   -6658.7788   -614.95558     102002.7      46.7237      46.7237      46.7237 
  225000    112.33772   -7239.7566   -6660.4533   -975.32628     102002.7      46.7237      46.7237      46.7237 
  226000    112.64909   -7246.5375   -6665.6285   -679.50982     102002.7      46.7237      46.7237      46.7237 
  227000    109.64595   -7238.1924     -6672.77   -795.26128     102002.7      46.7237      46.7237      46.7237 
  228000    111.99474   -7221.0653   -6643.5306   -658.48676     102002.7      46.7237      46.7237      46.7237 
  229000    107.39858    -7231.237   -6677.4039   -802.48543     102002.7      46.7237      46.7237      46.7237 
  230000    106.77167   -7224.2293    -6673.629   -984.63369     102002.7      46.7237      46.7237      46.7237 
  231000    109.22247    -7247.394   -6684.1554   -632.98267     102002.7      46.7237      46.7237      46.7237 
  232000    111.29875   -7246.0738   -6672.1282   -766.57864     102002.7      46.7237      46.7237      46.7237 
  233000    110.67127    -7246.711   -6676.0013   -986.91536     102002.7      46.7237      46.7237      46.7237 
  234000    111.00987   -7219.0656   -6646.6097   -645.20222     102002.7      46.7237      46.7237      46.7237 
  235000    112.27108   -7237.2238   -6658.2642   -549.13741     102002.7      46.7237      46.7237      46.7237 
  236000    108.19649   -7225.3461   -6667.3982   -656.77154     102002.7      46.7237      46.7237      46.7237 
  237000    109.26703   -7234.5541   -6671.0858    -540.3237     102002.7      46.7237      46.7237      46.7237 
  238000    113.93719   -7235.0979   -6647.5465   -757.29076     102002.7      46.7237      46.7237      46.7237 
  239000    106.85521   -7214.6129   -6663.5818   -736.32456     102002.7      46.7237      46.7237      46.7237 
  240000    110.64754   -7222.1352   -6651.5478   -385.88724     102002.7      46.7237      46.7237      46.7237 
  241000    108.11059   -7225.1017   -6667.5968   -783.50199     102002.7      46.7237      46.7237      46.7237 
  242000    106.69983   -7236.6492   -6686.4194   -592.54248     102002.7      46.7237      46.7237      46.7237 
  243000    110.50033   -7221.1012    -6651.273   -870.56051     102002.7      46.7237      46.7237      46.7237 
  244000    107.70727   -7244.9449   -6689.5199   -985.51768     102002.7      46.7237      46.7237      46.7237 
  245000    110.83705   -7228.3148   -6656.7501   -896.36727     102002.7      46.7237      46.7237      46.7237 
  246000    109.76106   -7233.4692   -6667.4533   -1052.3884     102002.7      46.7237      46.7237      46.7237 
  247000     109.8484   -7209.7994   -6643.3331   -685.00119     102002.7      46.7237      46.7237      46.7237 
  248000    110.59216   -7245.7567   -6675.4549   -880.72994     102002.7      46.7237      46.7237      46.7237 
  249000    112.89354   -7227.1601   -6644.9905    -751.1744     102002.7      46.7237      46.7237      46.7237 
  250000    111.14675   -7238.5953   -6665.4336    -844.8465     102002.7      46.7237      46.7237      46.7237 
  251000    110.09305   -7233.1546   -6665.4266   -706.29891     102002.7      46.7237      46.7237      46.7237 
  252000    110.49312   -7242.6114   -6672.8203   -931.70042     102002.7      46.7237      46.7237      46.7237 
  253000    110.28703   -7231.2199   -6662.4916   -760.02731     102002.7      46.7237      46.7237      46.7237 
  254000    109.51625    -7242.321   -6677.5675   -620.35629     102002.7      46.7237      46.7237      46.7237 
  255000    109.94246   -7232.9811   -6666.0297    -684.9044     102002.7      46.7237      46.7237      46.7237 
  256000    113.54144   -7216.8579   -6631.3472   -549.27723     102002.7      46.7237      46.7237      46.7237 
  257000    111.83128   -7241.1226   -6664.4309   -956.28258     102002.7      46.7237      46.7237      46.7237 
  258000    109.18455   -7223.6868   -6660.6438   -967.98832     102002.7      46.7237      46.7237      46.7237 
  259000    111.01221    -7221.846   -6649.3781   -656.68135     102002.7      46.7237      46.7237      46.7237 
  260000    108.04029   -7235.7592   -6678.6169   -887.44258     102002.7      46.7237      46.7237      46.7237 
  261000    109.20178   -7227.5011   -6664.3693   -640.50483     102002.7      46.7237      46.7237      46.7237 
  262000    110.28335   -7246.4733    -6677.764   -581.23225     102002.7      46.7237      46.7237      46.7237 
  263000    105.26517   -7227.1298   -6684.2982   -626.97314     102002.7      46.7237      46.7237      46.7237 
  264000    111.99239   -7237.3836   -6659.8611   -840.77658     102002.7      46.7237      46.7237      46.7237 
  265000    113.23799   -7254.1997   -6670.2539   -952.03614     102002.7      46.7237      46.7237      46.7237 
  266000    112.04363   -7223.7561   -6645.9693    -619.0993     102002.7      46.7237      46.7237      46.7237 
  267000     110.5505   -7238.6924   -6668.6054   -712.31677     102002.7      46.7237      46.7237      46.7237 
  268000    111.38761   -7240.9494   -6666.5456   -772.90002     102002.7      46.7237      46.7237      46.7237 
  269000    112.64842   -7244.7835    -6663.878   -557.42716     102002.7      46.7237      46.7237      46.7237 
  270000    109.02677   -7236.2515   -6674.0221   -759.21007     102002.7      46.7237      46.7237      46.7237 
  271000    112.43669   -7239.8302   -6660.0165   -819.49426     102002.7      46.7237      46.7237      46.7237 
  272000    104.78226   -7231.1235   -6690.7822   -830.06112     102002.7      46.7237      46.7237      46.7237 
  273000    111.75234   -7227.5049   -6651.2203   -879.45696     102002.7      46.7237      46.7237      46.7237 
  274000    106.54359   -7249.3615   -6699.9374   -1003.9172     102002.7      46.7237      46.7237      46.7237 
  275000    110.71912   -7212.8477   -6641.8912   -753.26846     102002.7      46.7237      46.7237      46.7237 
  276000    108.62926   -7236.5499   -6676.3704   -687.03003     102002.7      46.7237      46.7237      46.7237 
  277000    109.52659    -7226.119   -6661.3121   -695.18552     102002.7      46.7237      46.7237      46.7237 
  278000    109.72151   -7254.8746   -6689.0626   -651.04376     102002.7      46.7237      46.7237      46.7237 
  279000    109.80585   -7221.4775   -6655.2305   -928.72505     102002.7      46.7237      46.7237      46.7237 
  280000    109.09927   -7244.1889   -6681.5856   -745.99255     102002.7      46.7237      46.7237      46.7237 
  281000     110.3081    -7233.627   -6664.7901   -690.25931     102002.7      46.7237      46.7237      46.7237 
  282000    110.65287   -7242.6829    -6672.068   -649.85629     102002.7      46.7237      46.7237      46.7237 
  283000    105.80409   -7223.0434   -6677.4327   -563.66297     102002.7      46.7237      46.7237      46.7237 
  284000    107.01211    -7219.207   -6667.3668   -709.77892     102002.7      46.7237      46.7237      46.7237 
  285000    106.54881   -7230.7704   -6681.3193   -619.65023     102002.7      46.7237      46.7237      46.7237 
  286000    109.27302    -7234.751   -6671.2518   -780.33155     102002.7      46.7237      46.7237      46.7237 
  287000    110.08956   -7225.3669   -6657.6569   -555.94139     102002.7      46.7237      46.7237      46.7237 
  288000    108.04344   -7237.9822   -6680.8236   -405.77707     102002.7      46.7237      46.7237      46.7237 
  289000    114.54669   -7202.7197   -6612.0252   -666.76335     102002.7      46.7237      46.7237      46.7237 
  290000    109.69303   -7231.1288   -6665.4637   -470.25274     102002.7      46.7237      46.7237      46.7237 
  291000    111.39837   -7232.3573    -6657.898   -686.84357     102002.7      46.7237      46.7237      46.7237 
  292000    110.03339   -7237.0554   -6669.6351   -588.29596     102002.7      46.7237      46.7237      46.7237 
  293000    111.05198   -7244.6976   -6672.0246   -610.46197     102002.7      46.7237      46.7237      46.7237 
  294000    110.90624   -7225.1674   -6653.2459   -716.24722     102002.7      46.7237      46.7237      46.7237 
  295000    109.49404   -7214.9177   -6650.2787   -843.73384     102002.7      46.7237      46.7237      46.7237 
  296000    107.48877   -7237.5059   -6683.2077   -787.69014     102002.7      46.7237      46.7237      46.7237 
  297000    112.82479   -7237.8579   -6656.0429    -762.5713     102002.7      46.7237      46.7237      46.7237 
  298000    108.10384   -7227.4589   -6669.9888     -985.127     102002.7      46.7237      46.7237      46.7237 
  299000    110.29792   -7229.1416   -6660.3571    -812.8706     102002.7      46.7237      46.7237      46.7237 
  300000    109.64404   -7238.5851   -6673.1725    -863.2217     102002.7      46.7237      46.7237      46.7237 
  301000    109.34634   -7220.7465   -6656.8691   -804.92896     102002.7      46.7237      46.7237      46.7237 
  302000    111.22432   -7256.3419   -6682.7802   -785.87952     102002.7      46.7237      46.7237      46.7237 
  303000    108.64053   -7230.7893   -6670.5517   -764.84657     102002.7      46.7237      46.7237      46.7237 
  304000     110.7371   -7219.3593   -6648.3101   -857.19516     102002.7      46.7237      46.7237      46.7237 
  305000    112.69647   -7218.2265   -6637.0732   -669.06184     102002.7      46.7237      46.7237      46.7237 
  306000    109.36595   -7231.0263   -6667.0478   -720.33102     102002.7      46.7237      46.7237      46.7237 
  307000    111.01463   -7231.4251   -6658.9448   -676.04457     102002.7      46.7237      46.7237      46.7237 
  308000    105.21439   -7233.3842   -6690.8145   -710.88753     102002.7      46.7237      46.7237      46.7237 
  309000    108.38272   -7212.7736   -6653.8654   -642.34124     102002.7      46.7237      46.7237      46.7237 
  310000    113.41177   -7238.3952   -6653.5532   -609.76429     102002.7      46.7237      46.7237      46.7237 
  311000    111.19292    -7231.896   -6658.4962    -744.7484     102002.7      46.7237      46.7237      46.7237 
  312000    110.22338   -7224.2117   -6655.8117   -614.86063     102002.7      46.7237      46.7237      46.7237 
  313000    109.46789   -7241.6052    -6677.101   -791.87477     102002.7      46.7237      46.7237      46.7237 
  314000    108.86037   -7235.6755   -6674.3042   -737.20196     102002.7      46.7237      46.7237      46.7237 
  315000    111.33365   -7228.1242   -6653.9986   -911.80407     102002.7      46.7237      46.7237      46.7237 
  316000    108.64798   -7232.5658   -6672.2897   -790.01554     102002.7      46.7237      46.7237      46.7237 
  317000    111.24484   -7239.7349   -6666.0674   -749.57588     102002.7      46.7237      46.7237      46.7237 
  318000    107.42217    -7222.691   -6668.7362   -459.25383     102002.7      46.7237      46.7237      46.7237 
  319000    108.98343    -7239.236   -6677.2301   -610.84692     102002.7      46.7237      46.7237      46.7237 
  320000    112.18016   -7218.2033   -6639.7125   -758.00909     102002.7      46.7237      46.7237      46.7237 
  321000    108.26677    -7238.984   -6680.6738   -557.46661     102002.7      46.7237      46.7237      46.7237 
  322000     109.3257   -7241.7221   -6677.9511   -874.43906     102002.7      46.7237      46.7237      46.7237 
  323000    113.79384   -7216.5369   -6629.7247   -623.55933     102002.7      46.7237      46.7237      46.7237 
  324000    110.42538   -7250.4519   -6681.0102   -770.35798     102002.7      46.7237      46.7237      46.7237 
  325000     112.2943   -7215.0511   -6635.9717   -822.06579     102002.7      46.7237      46.7237      46.7237 
  326000    109.83902   -7229.6489   -6663.2309   -689.59651     102002.7      46.7237      46.7237      46.7237 
  327000    108.86175   -7223.7419   -6662.3634   -675.60028     102002.7      46.7237      46.7237      46.7237 
  328000    108.09208   -7212.4318   -6655.0224   -729.86077     102002.7      46.7237      46.7237      46.7237 
  329000    111.14426   -7219.3965   -6646.2476   -852.27051     102002.7      46.7237      46.7237      46.7237 
  330000    106.81662   -7223.5359   -6672.7038   -616.77044     102002.7      46.7237      46.7237      46.7237 
  331000    108.81398   -7228.9253   -6667.7933   -943.88001     102002.7      46.7237      46.7237      46.7237 
  332000    113.47993   -7237.9394    -6652.746   -688.20723     102002.7      46.7237      46.7237      46.7237 
  333000    109.23033   -7244.0348   -6680.7557   -643.93581     102002.7      46.7237      46.7237      46.7237 
  334000    108.70489    -7227.761   -6667.1915   -706.24316     102002.7      46.7237      46.7237      46.7237 
  335000    109.70632   -7212.8197    -6647.086   -803.03242     102002.7      46.7237      46.7237      46.7237 
  336000    109.10318   -7245.4233   -6682.7999   -954.88343     102002.7      46.7237      46.7237      46.7237 
  337000    110.97397   -7236.4692   -6664.1984    -771.9515     102002.7      46.7237      46.7237      46.7237 
  338000    109.92107   -7233.4076   -6666.5664   -983.53922     102002.7      46.7237      46.7237      46.7237 
  339000    115.16947   -7232.9841    -6639.078    -764.9303     102002.7      46.7237      46.7237      46.7237 
  340000    109.96601   -7230.6901   -6663.6172   -745.77435     102002.7      46.7237      46.7237      46.7237 
  341000    107.14562   -7237.2186   -6684.6899    -825.2538     102002.7      46.7237      46.7237      46.7237 
  342000    110.36822   -7226.8656   -6657.7186   -662.59918     102002.7      46.7237      46.7237      46.7237 
  343000    108.51427   -7236.3183   -6676.7317    -686.5277     102002.7      46.7237      46.7237      46.7237 
  344000    110.69657   -7239.5008   -6668.6606   -667.82279     102002.7      46.7237      46.7237      46.7237 
  345000    112.58853   -7229.3828   -6648.7861   -760.88909     102002.7      46.7237      46.7237      46.7237 
  346000    110.28648   -7199.1329   -6630.4074    -815.3649     102002.7      46.7237      46.7237      46.7237 
  347000    107.66485   -7231.0469   -6675.8407   -783.01666     102002.7      46.7237      46.7237      46.7237 
  348000    108.58952   -7248.3389   -6688.3643   -366.97621     102002.7      46.7237      46.7237      46.7237 
  349000    111.53383   -7222.1637   -6647.0059   -831.67581     102002.7      46.7237      46.7237      46.7237 
  350000    107.15991   -7231.6492   -6679.0468    -560.7034     102002.7      46.7237      46.7237      46.7237 
  351000    107.05102   -7213.3509   -6661.3101   -480.41489     102002.7      46.7237      46.7237      46.7237 
  352000     110.5052   -7223.9679   -6654.1145   -692.69428     102002.7      46.7237      46.7237      46.7237 
  353000    110.46252   -7242.0702   -6672.4369   -540.42768     102002.7      46.7237      46.7237      46.7237 
  354000    113.15824   -7208.9978   -6625.4632   -686.32839     102002.7      46.7237      46.7237      46.7237 
  355000    109.37014   -7228.1575   -6664.1574   -756.74561     102002.7      46.7237      46.7237      46.7237 
  356000    109.15237   -7223.8243   -6660.9472   -684.57308     102002.7      46.7237      46.7237      46.7237 
  357000    111.90865   -7225.0133   -6647.9226   -880.78769     102002.7      46.7237      46.7237      46.7237 
  358000      108.234   -7227.8507   -6669.7094   -619.90755     102002.7      46.7237      46.7237      46.7237 
  359000    111.61824   -7226.6585   -6651.0654   -863.74362     102002.7      46.7237      46.7237      46.7237 
  360000    108.53642   -7245.9427   -6686.2419   -678.17222     102002.7      46.7237      46.7237      46.7237 
  361000     110.9259   -7220.8709   -6648.8481   -618.25356     102002.7      46.7237      46.7237      46.7237 
  362000    113.98959   -7234.1125   -6646.2908   -609.88423     102002.7      46.7237      46.7237      46.7237 
  363000    108.32104   -7223.0685   -6664.4785   -589.58222     102002.7      46.7237      46.7237      46.7237 
  364000    113.68779   -7235.1311   -6648.8657   -596.44734     102002.7      46.7237      46.7237      46.7237 
  365000    109.14707   -7230.6821   -6667.8323   -478.60254     102002.7      46.7237      46.7237      46.7237 
  366000    110.15755    -7227.478   -6659.4174   -810.73477     102002.7      46.7237      46.7237      46.7237 
  367000    109.87473   -7228.0195   -6661.4174   -593.37401     102002.7      46.7237      46.7237      46.7237 
  368000    106.13379   -7244.0111   -6696.7002   -880.35891     102002.7      46.7237      46.7237      46.7237 
  369000     109.0922   -7220.3781   -6657.8113   -501.62271     102002.7      46.7237      46.7237      46.7237 
  370000    111.22206   -7208.6411   -6635.0911    -909.6126     102002.7      46.7237      46.7237      46.7237 
  371000    108.47345   -7237.9514   -6678.5754    -856.3423     102002.7      46.7237      46.7237      46.7237 
  372000    110.51548   -7232.3956   -6662.4892   -779.12091     102002.7      46.7237      46.7237      46.7237 
  373000    111.74879   -7221.7824   -6645.5161    -858.3404     102002.7      46.7237      46.7237      46.7237 
  374000    110.22896   -7228.2864   -6659.8576   -794.19007     102002.7      46.7237      46.7237      46.7237 
  375000    112.51161   -7226.0117   -6645.8117   -765.92366     102002.7      46.7237      46.7237      46.7237 
  376000     109.2907    -7233.725   -6670.1346   -643.79189     102002.7      46.7237      46.7237      46.7237 
  377000    109.03465   -7229.4983   -6667.2283   -636.32559     102002.7      46.7237      46.7237      46.7237 
  378000    107.53589   -7241.1343   -6686.5931   -558.22235     102002.7      46.7237      46.7237      46.7237 
  379000    112.32151   -7229.1688   -6649.9491   -879.75739     102002.7      46.7237      46.7237      46.7237 
  380000    108.93012   -7239.9332   -6678.2023   -705.71109     102002.7      46.7237      46.7237      46.7237 
  381000    108.03583   -7222.3573    -6665.238   -629.60842     102002.7      46.7237      46.7237      46.7237 
  382000      109.393   -7245.8681   -6681.7501   -782.75732     102002.7      46.7237      46.7237      46.7237 
  383000    113.90947   -7232.4745    -6645.066   -569.39804     102002.7      46.7237      46.7237      46.7237 
  384000     108.8605   -7232.1605   -6670.7886   -814.31993     102002.7      46.7237      46.7237      46.7237 
  385000    110.42504   -7232.1063   -6662.6663   -708.89846     102002.7      46.7237      46.7237      46.7237 
  386000    112.57687   -7233.2676   -6652.7311   -812.29073     102002.7      46.7237      46.7237      46.7237 
  387000    109.25974   -7244.6856   -6681.2549     -722.907     102002.7      46.7237      46.7237      46.7237 
  388000    109.23482   -7234.7978   -6671.4956   -925.01037     102002.7      46.7237      46.7237      46.7237 
  389000    110.63012   -7230.8782   -6660.3807   -1036.8732     102002.7      46.7237      46.7237      46.7237 
  390000    108.11227   -7235.3032   -6677.7897   -781.91708     102002.7      46.7237      46.7237      46.7237 
  391000    111.59905   -7240.1502   -6664.6561   -653.74344     102002.7      46.7237      46.7237      46.7237 
  392000    108.61584   -7243.6621   -6683.5518   -845.74361     102002.7      46.7237      46.7237      46.7237 
  393000    108.32418    -7232.174   -6673.5677   -714.58552     102002.7      46.7237      46.7237      46.7237 
  394000    109.67243    -7236.887    -6671.328   -1122.1237     102002.7      46.7237      46.7237      46.7237 
  395000    105.78067   -7230.9006   -6685.4108   -943.82355     102002.7      46.7237      46.7237      46.7237 
  396000    113.24195   -7235.4892   -6651.5229   -780.21037     102002.7      46.7237      46.7237      46.7237 
  397000    109.93253   -7230.8132    -6663.913   -767.76633     102002.7      46.7237      46.7237      46.7237 
  398000    113.38277   -7238.0755   -6653.3831   -920.90545     102002.7      46.7237      46.7237      46.7237 
  399000    107.14619    -7228.301   -6675.7694   -599.80952     102002.7      46.7237      46.7237      46.7237 
  400000    108.51608   -7251.1477   -6691.5518   -774.04856     102002.7      46.7237      46.7237      46.7237 
  401000    110.53721   -7221.5419   -6651.5235   -792.17856     102002.7      46.7237      46.7237      46.7237 
  402000    111.29503   -7220.4085   -6646.4821    -760.9722     102002.7      46.7237      46.7237      46.7237 
  403000    110.58469   -7246.5212   -6676.2579   -1070.8775     102002.7      46.7237      46.7237      46.7237 
  404000    108.34758   -7249.9774   -6691.2505   -754.25196     102002.7      46.7237      46.7237      46.7237 
  405000    112.38853   -7238.3457   -6658.7804   -678.30083     102002.7      46.7237      46.7237      46.7237 
  406000    108.15948    -7216.105    -6658.348   -766.51751     102002.7      46.7237      46.7237      46.7237 
  407000    106.40988   -7235.3355   -6686.6009   -822.21667     102002.7      46.7237      46.7237      46.7237 
  408000      108.339    -7235.069   -6676.3863    -845.6727     102002.7      46.7237      46.7237      46.7237 
  409000    106.91609   -7236.3809   -6685.0359   -866.38476     102002.7      46.7237      46.7237      46.7237 
  410000    109.14214   -7216.3569   -6653.5326   -1027.8197     102002.7      46.7237      46.7237      46.7237 
  411000    108.85651   -7235.6719   -6674.3205   -843.43425     102002.7      46.7237      46.7237      46.7237 
  412000     108.3164   -7228.2626   -6669.6965   -779.20617     102002.7      46.7237      46.7237      46.7237 
  413000     108.4035   -7244.6068   -6685.5915    -547.9672     102002.7      46.7237      46.7237      46.7237 
  414000    111.90377   -7237.8442   -6660.7787   -890.02492     102002.7      46.7237      46.7237      46.7237 
  415000    111.51843   -7232.7733   -6657.6949   -761.59977     102002.7      46.7237      46.7237      46.7237 
  416000    111.58016   -7232.7743   -6657.3775   -836.87723     102002.7      46.7237      46.7237      46.7237 
  417000    111.41001   -7256.8953    -6682.376   -757.06922     102002.7      46.7237      46.7237      46.7237 
  418000    110.55434   -7223.2208   -6653.1141   -980.05479     102002.7      46.7237      46.7237      46.7237 
  419000      112.037   -7232.3652   -6654.6126   -513.36408     102002.7      46.7237      46.7237      46.7237 
  420000    108.67093   -7253.9022   -6693.5078    -893.4429     102002.7      46.7237      46.7237      46.7237 
  421000      108.405   -7214.6417   -6655.6186   -620.65075     102002.7      46.7237      46.7237      46.7237 
  422000    109.11141   -7223.6229   -6660.9571   -878.28814     102002.7      46.7237      46.7237      46.7237 
  423000    108.60863   -7233.3243   -6673.2512   -688.15802     102002.7      46.7237      46.7237      46.7237 
  424000    107.55665   -7237.9101   -6683.2618   -697.79721     102002.7      46.7237      46.7237      46.7237 
  425000     111.0206   -7223.4184   -6650.9073   -1009.0499     102002.7      46.7237      46.7237      46.7237 
  426000     109.4188   -7231.3412   -6667.0902   -608.62547     102002.7      46.7237      46.7237      46.7237 
  427000    112.46808   -7234.4888   -6654.5132   -1107.4765     102002.7      46.7237      46.7237      46.7237 
  428000    110.81747   -7237.8286   -6666.3649   -701.79838     102002.7      46.7237      46.7237      46.7237 
  429000    108.81447   -7219.4562   -6658.3216   -785.69337     102002.7      46.7237      46.7237      46.7237 
  430000    112.87062   -7243.7591   -6661.7077   -580.30918     102002.7      46.7237      46.7237      46.7237 
  431000    111.04779   -7241.5952   -6668.9438   -650.05767     102002.7      46.7237      46.7237      46.7237 
  432000     104.4732   -7243.0566   -6704.3091   -423.23471     102002.7      46.7237      46.7237      46.7237 
  433000    111.15736   -7220.8779   -6647.6615   -518.44855     102002.7      46.7237      46.7237      46.7237 
  434000    111.63035   -7218.3946   -6642.7391    -594.1173     102002.7      46.7237      46.7237      46.7237 
  435000    108.01614   -7232.6205   -6675.6027   -271.18635     102002.7      46.7237      46.7237      46.7237 
  436000    111.11451   -7218.5138   -6645.5183   -739.02967     102002.7      46.7237      46.7237      46.7237 
  437000    111.84686   -7234.3847   -6657.6126    -474.3618     102002.7      46.7237      46.7237      46.7237 
  438000    107.50692   -7252.9033   -6698.5114   -798.26264     102002.7      46.7237      46.7237      46.7237 
  439000    109.67609      -7207.2   -6641.6222   -723.34136     102002.7      46.7237      46.7237      46.7237 
  440000     108.2937   -7237.9779   -6679.5288   -489.96292     102002.7      46.7237      46.7237      46.7237 
  441000    112.05714   -7236.9994    -6659.143   -592.53984     102002.7      46.7237      46.7237      46.7237 
  442000    109.59536   -7238.6685   -6673.5069   -497.97479     102002.7      46.7237      46.7237      46.7237 
  443000     109.6527   -7235.8021   -6670.3449   -691.93183     102002.7      46.7237      46.7237      46.7237 
  444000    111.49936   -7234.5401   -6659.5601   -860.56873     102002.7      46.7237      46.7237      46.7237 
  445000    106.71342   -7234.5301   -6684.2302     -722.067     102002.7      46.7237      46.7237      46.7237 
  446000    111.14751   -7242.5331   -6669.3675   -802.00685     102002.7      46.7237      46.7237      46.7237 
  447000    108.20373   -7260.0044   -6702.0192   -543.70521     102002.7      46.7237      46.7237      46.7237 
  448000    110.97386    -7235.013   -6662.7428   -748.15779     102002.7      46.7237      46.7237      46.7237 
  449000    109.89605   -7232.0308   -6665.3187   -478.71148     102002.7      46.7237      46.7237      46.7237 
  450000    106.68596   -7243.5005   -6693.3422    -951.2779     102002.7      46.7237      46.7237      46.7237 
  451000    108.93387   -7233.9499   -6672.1996   -693.60814     102002.7      46.7237      46.7237      46.7237 
  452000    112.11515   -7214.3399   -6636.1843   -635.58779     102002.7      46.7237      46.7237      46.7237 
  453000    110.45585   -7237.5304   -6667.9315   -730.31543     102002.7      46.7237      46.7237      46.7237 
  454000    112.30743    -7218.644   -6639.4968   -436.62102     102002.7      46.7237      46.7237      46.7237 
  455000    108.07833   -7233.0467   -6675.7082   -1015.6353     102002.7      46.7237      46.7237      46.7237 
  456000    113.12758   -7222.3494   -6638.9729   -669.23758     102002.7      46.7237      46.7237      46.7237 
  457000    112.66691   -7229.8656   -6648.8647   -786.88022     102002.7      46.7237      46.7237      46.7237 
  458000    105.67261   -7228.6295   -6683.6968   -806.69255     102002.7      46.7237      46.7237      46.7237 
  459000    106.80969   -7250.5846   -6699.7883    -389.8847     102002.7      46.7237      46.7237      46.7237 
  460000    111.29503   -7231.8406   -6657.9142    -709.9308     102002.7      46.7237      46.7237      46.7237 
  461000    104.37831   -7234.1082     -6695.85   -626.38496     102002.7      46.7237      46.7237      46.7237 
  462000    111.41335   -7230.6343   -6656.0978   -787.28171     102002.7      46.7237      46.7237      46.7237 
  463000    108.09919   -7233.6266   -6676.1806   -480.25075     102002.7      46.7237      46.7237      46.7237 
  464000    111.12181   -7222.5054   -6649.4723   -507.08035     102002.7      46.7237      46.7237      46.7237 
  465000    106.81931   -7213.7727   -6662.9267   -548.75418     102002.7      46.7237      46.7237      46.7237 
  466000    113.53657   -7232.6487   -6647.1632   -442.06466     102002.7      46.7237      46.7237      46.7237 
  467000    108.39746   -7237.1932   -6678.2091   -589.68645     102002.7      46.7237      46.7237      46.7237 
  468000     113.0095   -7234.7327   -6651.9652    -418.5273     102002.7      46.7237      46.7237      46.7237 
  469000    108.75216   -7225.2663    -6664.453    -673.4885     102002.7      46.7237      46.7237      46.7237 
  470000    108.57554   -7241.0088   -6681.1063   -269.58883     102002.7      46.7237      46.7237      46.7237 
  471000     108.6988   -7228.2871    -6667.749   -447.22169     102002.7      46.7237      46.7237      46.7237 
  472000    109.11011   -7212.9511    -6650.292    -514.0087     102002.7      46.7237      46.7237      46.7237 
  473000    105.75897   -7233.0989   -6687.7209   -543.26291     102002.7      46.7237      46.7237      46.7237 
  474000    111.68161   -7226.9233   -6651.0034   -525.96451     102002.7      46.7237      46.7237      46.7237 
  475000    111.69653   -7251.6417   -6675.6449   -313.78915     102002.7      46.7237      46.7237      46.7237 
  476000    112.65844   -7222.1082    -6641.151   -290.78872     102002.7      46.7237      46.7237      46.7237 
  477000    107.58155    -7227.716   -6672.9394   -585.80147     102002.7      46.7237      46.7237      46.7237 
  478000    112.74439    -7242.402   -6661.0015   -872.24632     102002.7      46.7237      46.7237      46.7237 
  479000    109.83082   -7218.7837    -6652.408   -574.12647     102002.7      46.7237      46.7237      46.7237 
  480000    110.81538   -7230.4003   -6658.9473   -473.00081     102002.7      46.7237      46.7237      46.7237 
  481000    109.08704   -7235.2929   -6672.7527   -678.32712     102002.7      46.7237      46.7237      46.7237 
  482000    107.56979   -7247.6373   -6692.9212   -598.03208     102002.7      46.7237      46.7237      46.7237 
  483000    114.10442   -7228.4652   -6640.0514   -731.69017     102002.7      46.7237      46.7237      46.7237 
  484000    109.02258   -7223.8877   -6661.6799   -834.14178     102002.7      46.7237      46.7237      46.7237 
  485000    108.07698   -7223.9044   -6666.5729   -647.12797     102002.7      46.7237      46.7237      46.7237 
  486000    113.16946   -7231.1297   -6647.5372   -861.19447     102002.7      46.7237      46.7237      46.7237 
  487000    107.76508    -7217.585   -6661.8619   -739.79304     102002.7      46.7237      46.7237      46.7237 
  488000    109.26307   -7245.6797   -6682.2318   -681.33505     102002.7      46.7237      46.7237      46.7237 
  489000    110.83211   -7218.5535   -6647.0143   -767.81703     102002.7      46.7237      46.7237      46.7237 
  490000    108.11597   -7214.4364   -6656.9038     -790.434     102002.7      46.7237      46.7237      46.7237 
  491000    109.57731   -7234.4311   -6669.3627   -675.80494     102002.7      46.7237      46.7237      46.7237 
  492000    106.24516   -7224.6264   -6676.7413   -906.00299     102002.7      46.7237      46.7237      46.7237 
  493000    113.61877   -7217.8236   -6631.9142   -1004.7424     102002.7      46.7237      46.7237      46.7237 
  494000    109.46468   -7235.2385   -6670.7509    -500.3507     102002.7      46.7237      46.7237      46.7237 
  495000    104.69845    -7232.449   -6692.5398     -792.294     102002.7      46.7237      46.7237      46.7237 
  496000    114.00102   -7245.7304   -6657.8498   -448.58107     102002.7      46.7237      46.7237      46.7237 
  497000    108.95775   -7227.5319   -6665.6584   -569.12681     102002.7      46.7237      46.7237      46.7237 
  498000    107.22487   -7234.3507   -6681.4133   -780.28148     102002.7      46.7237      46.7237      46.7237 
  499000    110.03802   -7217.8352    -6650.391   -458.33858     102002.7      46.7237      46.7237      46.7237 
  500000     113.1404   -7244.9236    -6661.481   -644.04109     102002.7      46.7237      46.7237      46.7237 
  500504    110.54761   -7244.6991    -6674.627   -631.65823     102002.7      46.7237      46.7237      46.7237 
Loop time of 557.86 on 24 procs for 500000 steps with 1731 atoms

Performance: 77.439 ns/day, 0.310 hours/ns, 896.282 timesteps/s
99.9% CPU use with 24 MPI tasks x no OpenMP threads

MPI task timing breakdown:
Section |  min time  |  avg time  |  max time  |%varavg| %total
---------------------------------------------------------------
Pair    | 166.82     | 272.76     | 347.72     | 316.9 | 48.89
Bond    | 69.854     | 78.442     | 84.546     |  42.9 | 14.06
Neigh   | 1.5271     | 1.5427     | 1.5599     |   1.0 |  0.28
Comm    | 119.48     | 197.83     | 308.58     | 378.8 | 35.46
Output  | 0.31091    | 0.3112     | 0.31525    |   0.2 |  0.06
Modify  | 3.5095     | 3.9237     | 4.2168     |  10.3 |  0.70
Other   |            | 3.055      |            |       |  0.55

Nlocal:    72.125 ave 95 max 49 min
Histogram: 1 2 2 3 2 5 5 1 1 2
Nghost:    1975.25 ave 2145 max 1871 min
Histogram: 8 8 0 0 0 0 0 0 2 6
Neighs:    7645.08 ave 11469 max 2757 min
Histogram: 1 0 2 4 1 6 3 3 3 1

Total # of neighbors = 183482
Ave neighs/atom = 105.998
Ave special neighs/atom = 6.65511
Neighbor list builds = 2945
Dangerous builds = 0
Neighbor list info ...
  update every 1 steps, delay 10 steps, check yes
  max neighbors/atom: 2000, page size: 100000
  master list distance cutoff = 16
  ghost atom cutoff = 16
  binsize = 8, bins = 6 6 6
  3 neighbor lists, perpetual/occasional/extra = 3 0 0
  (1) pair buck6d/coul/gauss/dsf, perpetual, skip from (3)
      attributes: half, newton on
      pair build: skip
      stencil: none
      bin: none
  (2) pair lj/cut, perpetual, skip from (3)
      attributes: half, newton on
      pair build: skip
      stencil: none
      bin: none
  (3) neighbor class addition, perpetual
      attributes: half, newton on
      pair build: half/bin/newton
      stencil: half/bin/3d/newton
      bin: standard
Setting up Verlet run ...
  Unit style    : real
  Current step  : 500504
  Time step     : 1
WARNING: Inconsistent image flags (../domain.cpp:786)
Per MPI rank memory allocation (min/avg/max) = 23.92 | 24.44 | 24.57 Mbytes
Step Time TotEng KinEng PotEng E_mol E_pair Temp Pxx Pyy Pzz Pxy Pxz Pyz Cella Cellb Cellc CellAlpha CellBeta CellGamma Volume Press 
  500504       500000    -6674.627    570.07207   -7244.6991    4301.9113    -11546.61    110.54761   -622.18721   -637.22676   -635.56072   -80.080506    82.039837    39.261295      46.7237      46.7237      46.7237           90           90           90     102002.7   -631.65823 
  501000       500496   -6686.6163     562.4424   -7249.0587    4286.2407   -11535.299    109.06807   -503.31425   -303.39829   -515.88328   -6.7605516    100.63249    33.119487      46.7237      46.7237      46.7237           90           90           90     102002.7   -440.86528 
  502000       501496   -6665.9421     566.1985   -7232.1406    4318.6133   -11550.754    109.79645   -589.22094   -526.19643   -462.82207    11.819789   -16.911923    26.182639      46.7237      46.7237      46.7237           90           90           90     102002.7   -526.07981 
  503000       502496    -6637.122    577.46144   -7214.5835    4338.7547   -11553.338    111.98055   -548.51123    -838.3314   -805.04466    4.9327945   -206.87254    105.75512      46.7237      46.7237      46.7237           90           90           90     102002.7    -730.6291 
  504000       503496   -6651.2248    564.51089   -7215.7357    4341.9471   -11557.683    109.46919   -433.87407   -656.91196   -662.02505   -249.59751   -34.149352    223.81589      46.7237      46.7237      46.7237           90           90           90     102002.7   -584.27036 
  505000       504496   -6686.6013    555.03866     -7241.64    4288.9905    -11530.63    107.63235   -461.35866   -1161.2474   -465.88225   -68.474476  -0.83582683    296.25354      46.7237      46.7237      46.7237           90           90           90     102002.7   -696.16276 
  506000       505496   -6660.4963    576.86807   -7237.3644    4311.9068   -11549.271    111.86548   -757.51541   -413.36433   -730.53479    -60.83224   -200.25511    52.135432      46.7237      46.7237      46.7237           90           90           90     102002.7   -633.80484 
  507000       506496   -6696.2827    554.79043   -7251.0731    4266.9799   -11518.053    107.58421   -652.72593   -245.48822   -488.26115   -126.06796   -62.319344   -15.104018      46.7237      46.7237      46.7237           90           90           90     102002.7   -462.15843 
  508000       507496   -6660.9149    574.45239   -7235.3673    4289.2537   -11524.621    111.39704   -831.74543   -957.58381   -544.84688    120.27044    146.05622     48.60705      46.7237      46.7237      46.7237           90           90           90     102002.7   -778.05871 
  509000       508496   -6678.4894     548.9603   -7227.4497    4309.8804    -11537.33    106.45364   -510.16195   -583.81204   -541.73099   -103.60017    114.45899   -71.748935      46.7237      46.7237      46.7237           90           90           90     102002.7   -545.23499 
  510000       509496   -6668.6671    567.08797   -7235.7551    4321.3471   -11557.102    109.96894   -409.48194   -689.55382   -873.65595   -209.88559   -164.10844   -16.479735      46.7237      46.7237      46.7237           90           90           90     102002.7   -657.56391 
  511000       510496    -6654.525    571.61583   -7226.1408    4323.6201   -11549.761    110.84697   -737.94458    -838.5088   -1043.6074   -98.614442   -166.05648    39.770301      46.7237      46.7237      46.7237           90           90           90     102002.7   -873.35359 
  512000       511496   -6678.3026    564.60039    -7242.903    4296.6053   -11539.508    109.48655   -905.48955   -615.16035   -1004.0066   -84.249581    -167.6711   -173.39906      46.7237      46.7237      46.7237           90           90           90     102002.7   -841.55217 
  513000       512496   -6657.8316    569.67887   -7227.5105     4314.563   -11542.073    110.47136   -675.05578   -720.70771   -622.93925    38.025256    15.996868   -94.956172      46.7237      46.7237      46.7237           90           90           90     102002.7   -672.90092 
  514000       513496   -6675.6172    556.52605   -7232.1433    4309.9816   -11542.125    107.92078   -740.06088   -753.91675   -362.75792    36.679844   -281.43394   -58.430977      46.7237      46.7237      46.7237           90           90           90     102002.7   -618.91185 
  515000       514496   -6647.0945    565.74138   -7212.8358     4319.841   -11532.677    109.70781   -414.35727   -760.57146   -663.15811    -58.03477   -114.56716    302.55863      46.7237      46.7237      46.7237           90           90           90     102002.7   -612.69561 
  516000       515496   -6675.0137    543.72053   -7218.7343    4315.7789   -11534.513    105.43755   -874.60442   -692.29849   -707.91837    199.71074    243.96792   -137.99833      46.7237      46.7237      46.7237           90           90           90     102002.7   -758.27376 
  517000       516496    -6688.152    556.93903    -7245.091    4288.4029   -11533.494    108.00087   -700.75997   -1154.9347   -647.57466    159.94863   -288.74832    -70.15302      46.7237      46.7237      46.7237           90           90           90     102002.7   -834.42311 
  518000       517496   -6664.9584    576.13538   -7241.0938    4300.0924   -11541.186     111.7234   -504.65376   -758.49969   -817.79905   -81.544756       10.451   -18.843501      46.7237      46.7237      46.7237           90           90           90     102002.7   -693.65083 
  519000       518496   -6671.8702    558.98086   -7230.8511    4317.0932   -11547.944    108.39682   -1003.4076   -687.45923   -932.63683    18.103419    32.120922   -184.97778      46.7237      46.7237      46.7237           90           90           90     102002.7   -874.50121 
  520000       519496   -6702.2923    540.45269    -7242.745    4304.6679   -11547.413    104.80386    -724.4705   -884.28377   -877.50973    29.595299    128.46189   -121.12445      46.7237      46.7237      46.7237           90           90           90     102002.7   -828.75467 
  521000       520496   -6660.1388    580.48066   -7240.6195    4309.9193   -11550.539    112.56603    -390.9832   -408.66182   -639.04026    -194.9105    311.67933   -160.93226      46.7237      46.7237      46.7237           90           90           90     102002.7   -479.56176 
  522000       521496   -6662.4151    561.37005   -7223.7852    4310.6563   -11534.441    108.86013   -630.59651   -647.99962   -1104.9088    111.47153   -202.66956    29.490532      46.7237      46.7237      46.7237           90           90           90     102002.7   -794.50165 
  523000       522496   -6669.0846    558.72852   -7227.8131     4327.247    -11555.06    108.34788   -761.43335   -880.33986   -941.13337    68.609515    67.434682    70.924743      46.7237      46.7237      46.7237           90           90           90     102002.7   -860.96886 
  524000       523496   -6675.9392    538.39519   -7214.3344    4308.4786   -11522.813    104.40487    -957.5965   -1079.5936   -631.10784   -285.14955    215.97827   -123.27522      46.7237      46.7237      46.7237           90           90           90     102002.7   -889.43266 
  525000       524496   -6697.7411    541.00917   -7238.7503    4298.3848   -11537.135    104.91177   -823.02843   -511.34399   -1071.7721    142.95162   -140.38653   -73.079061      46.7237      46.7237      46.7237           90           90           90     102002.7   -802.04818 
  526000       525496   -6662.3381    549.09146   -7211.4296    4322.9829   -11534.412    106.47908   -365.43482   -579.86085   -252.29791    265.58667    15.794514    44.939282      46.7237      46.7237      46.7237           90           90           90     102002.7   -399.19786 
  527000       526496   -6682.5858    547.56156   -7230.1474    4311.8894   -11542.037     106.1824   -650.88349   -729.51482    -770.4401   -235.74171    299.76909    51.968946      46.7237      46.7237      46.7237           90           90           90     102002.7   -716.94613 
  528000       527496   -6667.5871    567.03671   -7234.6238    4305.7076   -11540.331      109.959   -734.76639   -307.22046   -664.12835   -6.9352979    79.376046   -254.37273      46.7237      46.7237      46.7237           90           90           90     102002.7   -568.70507 
  529000       528496   -6663.6148    553.91668   -7217.5315    4309.9824   -11527.514    107.41478   -730.82909   -624.44825   -1031.5819    248.61974   -8.8269352   -47.015473      46.7237      46.7237      46.7237           90           90           90     102002.7   -795.61974 
  530000       529496   -6657.7043    572.79609   -7230.5004    4320.2453   -11550.746    111.07585   -672.97943   -958.37043   -1033.0546   -168.46531    65.666171    230.82017      46.7237      46.7237      46.7237           90           90           90     102002.7   -888.13481 
  531000       530496   -6695.0004    542.14085   -7237.1412    4314.7341   -11551.875    105.13123   -651.16498   -719.51853   -1163.5369   -23.172861    116.95659   -5.6849635      46.7237      46.7237      46.7237           90           90           90     102002.7   -844.74015 
  532000       531496   -6669.3543    568.87665    -7238.231    4296.7759   -11535.007     110.3158   -525.76048   -528.06733   -686.01755    239.10123   -119.82725    -188.1477      46.7237      46.7237      46.7237           90           90           90     102002.7   -579.94845 
  533000       532496    -6666.969    563.44423   -7230.4132    4315.5745   -11545.988    109.26235    -553.1471   -568.92126   -754.06975   -288.25823    53.896182    83.481905      46.7237      46.7237      46.7237           90           90           90     102002.7   -625.37937 
  534000       533496   -6667.3671    562.66979   -7230.0369    4309.8978   -11539.935    109.11217    126.04015   -887.58918   -350.92971    8.0339256    122.71762   -117.10625      46.7237      46.7237      46.7237           90           90           90     102002.7   -370.82625 
  535000       534496   -6682.7339    547.14372   -7229.8776    4316.6187   -11546.496    106.10138    -742.1289   -111.89028   -1026.2564     92.23729    13.800874   -77.754884      46.7237      46.7237      46.7237           90           90           90     102002.7   -626.75854 
  536000       535496   -6681.0499    551.65702    -7232.707     4307.406   -11540.113    106.97659   -449.24521   -638.65967   -404.02238    35.158605   -174.20739   -162.91271      46.7237      46.7237      46.7237           90           90           90     102002.7   -497.30908 
  537000       536496   -6662.3712    568.36322   -7230.7344    4313.1672   -11543.902    110.21623   -462.53455   -657.61563   -955.82141    85.851043   -129.76923    138.27858      46.7237      46.7237      46.7237           90           90           90     102002.7   -691.99053 
  538000       537496   -6685.5323    569.31708   -7254.8494    4275.9505     -11530.8     110.4012   -745.73357   -992.44215   -931.98933    -46.33852    225.37708    146.95192      46.7237      46.7237      46.7237           90           90           90     102002.7   -890.05502 
  539000       538496   -6668.8252    553.28616   -7222.1114    4328.8868   -11550.998    107.29251   -832.18753   -270.08518   -1188.2994   -26.103514      30.1895    22.842187      46.7237      46.7237      46.7237           90           90           90     102002.7   -763.52403 
  540000       539496   -6631.9241     574.4463   -7206.3704    4341.6922   -11548.063    111.39586   -978.68728   -1105.9514   -1055.8178   -17.877986   -25.599292   -163.33558      46.7237      46.7237      46.7237           90           90           90     102002.7   -1046.8188 
  541000       540496   -6666.7774    547.49171   -7214.2691     4309.073   -11523.342    106.16886   -380.05707   -629.17552   -406.35311   -355.26325    101.71685     132.4581      46.7237      46.7237      46.7237           90           90           90     102002.7    -471.8619 
  542000       541496   -6650.4028    575.51011   -7225.9129    4326.8855   -11552.798    111.60215   -1013.4341   -981.48124   -1081.4602    77.486694   -39.608939    166.79954      46.7237      46.7237      46.7237           90           90           90     102002.7   -1025.4585 
  543000       542496   -6684.2828    557.50007   -7241.7829     4303.908   -11545.691    108.10967   -1207.9572   -392.20354   -830.72146   -66.965571     117.7069   -1.8693236      46.7237      46.7237      46.7237           90           90           90     102002.7   -810.29406 
  544000       543496   -6665.9261    564.05162   -7229.9777    4306.6841   -11536.662    109.38013   -779.97741   -1128.8162   -988.25476    182.49027    85.763736   -398.78477      46.7237      46.7237      46.7237           90           90           90     102002.7   -965.68278 
  545000       544496   -6658.9488    570.12779   -7229.0766    4317.6966   -11546.773    110.55842   -729.47725   -760.98609   -1219.8546    81.058408   -10.039073   -84.510576      46.7237      46.7237      46.7237           90           90           90     102002.7   -903.43931 
  546000       545496   -6677.3498    548.93345   -7226.2832    4322.2017   -11548.485    106.44844   -1095.1283   -1222.9796   -1180.3375    7.6974699    68.627054    116.12156      46.7237      46.7237      46.7237           90           90           90     102002.7   -1166.1485 
  547000       546496   -6651.9301    568.78635   -7220.7164    4330.7647   -11551.481    110.29829   -873.31228   -1106.6126   -296.84226    25.131829   -133.82184    166.41301      46.7237      46.7237      46.7237           90           90           90     102002.7   -758.92239 
  548000       547496   -6655.1899    561.31416   -7216.5041     4311.222   -11527.726    108.84929   -268.15066   -1302.6715   -1133.5615   -161.47745   -63.100888    45.045557      46.7237      46.7237      46.7237           90           90           90     102002.7   -901.46123 
  549000       548496   -6693.5012    538.23922   -7231.7405    4316.1735   -11547.914    104.37463   -1121.0163   -796.64884   -1129.8019    165.75565    24.108664   -171.52773      46.7237      46.7237      46.7237           90           90           90     102002.7   -1015.8223 
  550000       549496   -6658.5186    567.95355   -7226.4722    4312.2604   -11538.733    110.13679   -338.91753   -736.31698   -762.16221    111.96228   -103.73698   -128.06559      46.7237      46.7237      46.7237           90           90           90     102002.7   -612.46557 
  551000       550496   -6665.9513    568.06182   -7234.0131    4319.5433   -11553.556    110.15779   -1025.2584   -1245.9913   -909.50219   -78.282339    137.49061    89.209771      46.7237      46.7237      46.7237           90           90           90     102002.7   -1060.2506 
  552000       551496   -6674.1169     557.4967   -7231.6136    4313.1865     -11544.8    108.10901   -1065.5799   -774.58844      -716.24    11.132462   -167.91285    98.602314      46.7237      46.7237      46.7237           90           90           90     102002.7   -852.13612 
  553000       552496   -6664.1914    567.20735   -7231.3988    4325.8327   -11557.231    109.99209    -707.0312   -735.39273    -547.5169    2.1459941   -300.15919   -97.345458      46.7237      46.7237      46.7237           90           90           90     102002.7   -663.31361 
  554000       553496    -6692.745    553.74075   -7246.4857    4306.1877   -11552.673    107.38066   -1106.8279   -850.06972   -865.36672   -240.42674    -71.36921    61.256905      46.7237      46.7237      46.7237           90           90           90     102002.7   -940.75477 
  555000       554496   -6658.7364    569.99338   -7228.7297    4324.2383   -11552.968    110.53235   -744.18622   -571.59191   -1012.6404   -39.012913   -280.27324   -114.10287      46.7237      46.7237      46.7237           90           90           90     102002.7   -776.13952 
[...]
  936000       935496   -6682.8089    554.75324   -7237.5621    4301.2579    -11538.82      107.577   -730.54934   -1060.0526   -601.18484   -159.21628    49.398926   -88.694376      46.7237      46.7237      46.7237           90           90           90     102002.7   -797.26228 
  937000       936496   -6632.8822    570.30921   -7203.1914    4326.8019   -11529.993     110.5936   -861.75162   -397.87126   -625.01461   -119.11935   -177.03025   -222.46941      46.7237      46.7237      46.7237           90           90           90     102002.7    -628.2125 
  938000       937496   -6667.2504     571.4789   -7238.7293    4307.2245   -11545.954    110.82042   -602.68963   -405.38853   -879.58534   -25.273237    79.895011    -32.81471      46.7237      46.7237      46.7237           90           90           90     102002.7   -629.22117 
  939000       938496   -6646.5312    571.02475   -7217.5559    4332.7101   -11550.266    110.73235   -637.61926   -671.69678   -1084.6894   -59.313565   -199.13709   -4.3465692      46.7237      46.7237      46.7237           90           90           90     102002.7   -798.00182 
  940000       939496   -6700.4012    560.50777   -7260.9089    4291.1784   -11552.087    108.69291    -1112.564   -871.03761   -376.28335    16.949526    48.538932  -0.48686874      46.7237      46.7237      46.7237           90           90           90     102002.7   -786.62832 
  941000       940496    -6666.742    569.11782   -7235.8599    4306.5814   -11542.441    110.36256   -111.89329   -488.98963   -666.26808   -59.446669    81.638174    181.03826      46.7237      46.7237      46.7237           90           90           90     102002.7   -422.38367 
  942000       941496   -6676.7832    576.92347   -7253.7067     4295.912   -11549.619    111.87622   -528.65823    -854.5069    -899.2674   -161.66386    156.83908    364.24059      46.7237      46.7237      46.7237           90           90           90     102002.7   -760.81084 
  943000       942496   -6668.0378      543.857   -7211.8948    4324.4871   -11536.382    105.46402   -510.53693   -445.21867   -1236.8159   -78.350263   -36.407913   -152.77393      46.7237      46.7237      46.7237           90           90           90     102002.7   -730.85715 
  944000       943496   -6657.0151    565.54319   -7222.5583    4321.5626   -11544.121    109.66938   -746.77547   -1100.2371   -996.08494    101.84384    309.55999    55.620061      46.7237      46.7237      46.7237           90           90           90     102002.7   -947.69916 
  945000       944496   -6673.1142    569.80609   -7242.9203    4286.5478   -11529.468    110.49603   -940.67916   -353.16133   -675.59528    -60.23849    209.88499    167.58347      46.7237      46.7237      46.7237           90           90           90     102002.7   -656.47859 
  946000       945496   -6679.5073    556.44486   -7235.9521    4309.9799   -11545.932    107.90504   -652.40032   -578.50886   -382.01874    92.327844    79.111946    15.694533      46.7237      46.7237      46.7237           90           90           90     102002.7   -537.64264 
  947000       946496   -6659.6084    562.37688   -7221.9853    4324.5634   -11546.549    109.05537   -957.12493   -857.48953   -629.99496   -139.50821    26.323633    47.477105      46.7237      46.7237      46.7237           90           90           90     102002.7    -814.8698 
  948000       947496   -6655.6047    580.04979   -7235.6545    4305.9166   -11541.571    112.48248   -350.31174    -369.4627    -743.3962   -17.699758    12.458906    91.567952      46.7237      46.7237      46.7237           90           90           90     102002.7   -487.72355 
  949000       948496   -6649.1497    569.85354   -7219.0032    4314.1216   -11533.125    110.50523   -599.77412   -714.91763   -758.71995    275.04899   -3.7924948   -150.88884      46.7237      46.7237      46.7237           90           90           90     102002.7   -691.13723 
  950000       949496   -6673.6184    552.81677   -7226.4351    4316.6491   -11543.084    107.20149   -714.62078   -841.05169   -311.49761    29.929591   -195.15007   -103.54131      46.7237      46.7237      46.7237           90           90           90     102002.7   -622.39003 
  951000       950496   -6670.4419    569.64724   -7240.0892    4297.9495   -11538.039    110.46523   -555.17498   -820.87893   -567.50996   -77.048917     60.81453   -256.52148      46.7237      46.7237      46.7237           90           90           90     102002.7   -647.85462 
  952000       951496   -6636.6072    578.72191   -7215.3291    4336.6582   -11551.987    112.22498   -820.12192   -491.13967   -785.04787   -143.39384    220.64822    219.65836      46.7237      46.7237      46.7237           90           90           90     102002.7   -698.76982 
  953000       952496    -6663.746    574.07069   -7237.8167    4319.8278   -11557.645    111.32302    -676.8625   -455.21076   -709.58133   -106.63088    86.604839    62.493279      46.7237      46.7237      46.7237           90           90           90     102002.7   -613.88486 
  954000       953496   -6633.4065    597.67187   -7231.0784    4308.1906   -11539.269    115.89973   -407.79605   -737.47662    -878.1711   -5.3329681   -151.19663   -111.59817      46.7237      46.7237      46.7237           90           90           90     102002.7   -674.48126 
  955000       954496   -6673.1166    565.47847   -7238.5951    4319.4687   -11558.064    109.65683   -191.49368   -338.07783   -1150.0083   -149.71113    51.786897   -129.20064      46.7237      46.7237      46.7237           90           90           90     102002.7   -559.85993 
  956000       955496   -6660.2431    587.86805   -7248.1111    4293.7883   -11541.899    113.99858   -950.61501   -669.48737   -906.36911   -128.49534    306.57339   -13.559718      46.7237      46.7237      46.7237           90           90           90     102002.7   -842.15716 
  957000       956496    -6672.746    574.56758   -7247.3136     4293.094   -11540.408    111.41937    -712.7249   -880.69325   -413.24762    14.454517   -94.591729    213.88697      46.7237      46.7237      46.7237           90           90           90     102002.7   -668.88859 
  958000       957496   -6634.1177    586.45788   -7220.5755      4330.67   -11551.246    113.72513   -310.86578   -782.71688   -673.49601   -125.43981    205.68635    140.25182      46.7237      46.7237      46.7237           90           90           90     102002.7   -589.02622 
  959000       958496   -6652.2017    569.43382   -7221.6355    4327.8652   -11549.501    110.42384   -333.70339   -1001.8461   -1038.6555    146.07747   -16.690709   -156.52331      46.7237      46.7237      46.7237           90           90           90     102002.7   -791.40166 
  960000       959496   -6683.7804    555.38785   -7239.1683    4304.8924   -11544.061    107.70007   -364.27117   -962.94395   -533.55501   -109.44405    55.995683     292.8434      46.7237      46.7237      46.7237           90           90           90     102002.7   -620.25671 
  961000       960496   -6659.7063    550.15066   -7209.8569    4322.9109   -11532.768    106.68448   -679.44127   -561.90813   -354.87103   -136.66471    78.076884   -191.30686      46.7237      46.7237      46.7237           90           90           90     102002.7   -532.07348 
  962000       961496   -6642.2672    590.18103   -7232.4482    4314.2454   -11546.694    114.44711   -440.09222   -264.86356   -301.37144    86.008112   -23.490092    55.741887      46.7237      46.7237      46.7237           90           90           90     102002.7    -335.4424 
  963000       962496   -6679.4283    566.51327   -7245.9416      4295.59   -11541.532    109.85749   -451.71428   -786.29708   -653.67617   -47.562491     50.38825    25.791292      46.7237      46.7237      46.7237           90           90           90     102002.7   -630.56251 
  964000       963496   -6684.8216    564.07803   -7248.8996    4280.6869   -11529.587    109.38525    -836.5075   -1033.5093    -785.6001   -126.61944    29.458936   -248.92342      46.7237      46.7237      46.7237           90           90           90     102002.7   -885.20565 
  965000       964496   -6646.8198    573.03812   -7219.8579    4321.9259   -11541.784    111.12278   -551.32214   -670.97046   -475.39405   -49.058082    172.48048   -73.060775      46.7237      46.7237      46.7237           90           90           90     102002.7   -565.89555 
  966000       965496   -6650.3121    570.01055   -7220.3226    4324.4624   -11544.785    110.53568    -1014.115   -549.35726   -1053.1688   -4.6359955    2.2912827   -127.51728      46.7237      46.7237      46.7237           90           90           90     102002.7    -872.2137 
  967000       966496   -6677.6969    557.18624   -7234.8832    4295.3763   -11530.259    108.04881   -442.69083    -803.0813   -721.79604   -22.831803    250.83428   -145.49646      46.7237      46.7237      46.7237           90           90           90     102002.7   -655.85605 
  968000       967496   -6669.7078    563.82073   -7233.5286     4314.796   -11548.325    109.33536   -912.91429   -462.32955    -139.2296    200.74255   -109.56172   -145.72093      46.7237      46.7237      46.7237           90           90           90     102002.7   -504.82448 
  969000       968496   -6681.5861    556.61114   -7238.1972    4301.4973   -11539.695    107.93728   -833.61078   -973.80855   -756.84531    -113.9753   -119.02341   -10.139437      46.7237      46.7237      46.7237           90           90           90     102002.7   -854.75488 
  970000       969496   -6654.8438    572.69444   -7227.5382    4323.9652   -11551.503    111.05614   -510.13499   -680.51982   -799.34439   -209.64554   -141.73784    24.745981      46.7237      46.7237      46.7237           90           90           90     102002.7   -663.33306 
  971000       970496   -6676.9257    559.98861   -7236.9143    4310.7518   -11547.666    108.59224   -958.17048   -737.31654   -802.89139    21.657509   -304.54504       32.777      46.7237      46.7237      46.7237           90           90           90     102002.7    -832.7928 
  972000       971496   -6625.4785    575.52414   -7201.0026    4327.8955   -11528.898    111.60487   -738.28615    46.321919   -946.25342    201.54778   -5.4392631     51.10323      46.7237      46.7237      46.7237           90           90           90     102002.7   -546.07255 
  973000       972496   -6672.5984    554.23494   -7226.8334    4312.3923   -11539.226     107.4765   -794.33413   -742.34344   -963.43505     16.79782   -75.204662   -85.117862      46.7237      46.7237      46.7237           90           90           90     102002.7   -833.37087 
  974000       973496   -6663.1215    563.29777   -7226.4193    4319.4669   -11545.886    109.23395    -590.8178   -278.99095    -1077.747    176.39706   -484.48606   -68.166359      46.7237      46.7237      46.7237           90           90           90     102002.7   -649.18526 
  975000       974496   -6670.0547    565.98988   -7236.0446     4317.679   -11553.724      109.756   -321.15276    -441.6173   -899.64471   -27.655453    133.71745   -98.975094      46.7237      46.7237      46.7237           90           90           90     102002.7   -554.13826 
  976000       975496   -6650.0089    569.97001   -7219.9789    4335.1375   -11555.116    110.52782   -811.32092   -756.40547   -950.99772   -248.39119   -58.832838    87.609461      46.7237      46.7237      46.7237           90           90           90     102002.7   -839.57471 
  977000       976496   -6665.5896    559.74084   -7225.3304     4317.611   -11542.941    108.54419   -1003.7828   -547.43784    -409.1241     20.60064    86.054648   -129.44528      46.7237      46.7237      46.7237           90           90           90     102002.7   -653.44825 
  978000       977496   -6629.2678    581.55765   -7210.8255    4354.6846    -11565.51    112.77488   -456.25254   -530.25355   -520.10545   -101.43396     4.899981     8.163399      46.7237      46.7237      46.7237           90           90           90     102002.7   -502.20385 
  979000       978496   -6654.8158     566.2991   -7221.1149    4318.1697   -11539.285    109.81596   -877.01918   -411.36649    -1019.716   -64.965876    139.64495    135.41704      46.7237      46.7237      46.7237           90           90           90     102002.7   -769.36723 
  980000       979496    -6682.636    554.97344   -7237.6094    4306.3759   -11543.985     107.6197   -919.09366   -644.45806   -487.14346    43.893623   -124.80879   -85.294272      46.7237      46.7237      46.7237           90           90           90     102002.7   -683.56506 
  981000       980496   -6684.5656    562.22066   -7246.7863    4290.9161   -11537.702    109.02508   -744.04869   -209.86238   -873.28468    116.86388    27.049458   -129.25556      46.7237      46.7237      46.7237           90           90           90     102002.7   -609.06525 
  982000       981496   -6664.5789    564.82307   -7229.4019    4302.9495   -11532.351    109.52973   -228.73586   -915.54373   -808.91655   -155.85567   -211.75983   -179.94923      46.7237      46.7237      46.7237           90           90           90     102002.7   -651.06538 
  983000       982496   -6655.2831    578.08011   -7233.3632    4306.3741   -11539.737    112.10052   -1202.5545   -900.13332   -637.37429   -94.787481    38.165989    95.771805      46.7237      46.7237      46.7237           90           90           90     102002.7   -913.35404 
  984000       983496   -6668.4724    558.82834   -7227.3007     4313.117   -11540.418    108.36724   -982.99834   -933.95822   -1054.4852    105.10001    69.177611   -263.87164      46.7237      46.7237      46.7237           90           90           90     102002.7    -990.4806 
  985000       984496   -6638.1801    572.24658   -7210.4267    4345.5356   -11555.962    110.96929   -661.33066   -1274.2293   -928.21799    32.895014   -138.82786   -162.72131      46.7237      46.7237      46.7237           90           90           90     102002.7   -954.59264 
  986000       985496   -6659.6081    561.12871   -7220.7368    4310.7365   -11531.473    108.81333   -802.15806   -829.52869   -687.67206   -152.27551   0.46870603    113.21371      46.7237      46.7237      46.7237           90           90           90     102002.7   -773.11961 
  987000       986496   -6693.2048    569.03713   -7262.2419    4282.2732   -11544.515    110.34692   -920.09879   -606.50659   -185.72995   -32.888244   -91.014394   -37.529862      46.7237      46.7237      46.7237           90           90           90     102002.7   -570.77844 
  988000       987496   -6659.9464    576.17248   -7236.1189    4289.1759   -11525.295    111.73059   -671.35861   -1425.4172   -917.79293    51.786345   -259.41858    201.89186      46.7237      46.7237      46.7237           90           90           90     102002.7   -1004.8562 
  989000       988496   -6669.8214    559.09997   -7228.9213    4302.3605   -11531.282    108.41991    -1008.008   -546.70845   -162.07329     206.0427   -113.85352   -75.176565      46.7237      46.7237      46.7237           90           90           90     102002.7   -572.26326 
  990000       989496   -6656.4138    575.62733   -7232.0412    4311.4273   -11543.468    111.62488   -941.98617   -675.96542   -479.25733      41.3045    297.59968    98.531894      46.7237      46.7237      46.7237           90           90           90     102002.7   -699.06964 
  991000       990496   -6652.1004     574.1953   -7226.2957    4304.6877   -11530.983    111.34718   -318.57295   -800.11354   -711.18458    111.61944    63.765527    186.91122      46.7237      46.7237      46.7237           90           90           90     102002.7   -609.95702 
  992000       991496   -6673.5906    554.09994   -7227.6905    4306.9095     -11534.6    107.45032   -735.02713   -800.92652   -495.51568   -107.49956   -38.629678   -295.53862      46.7237      46.7237      46.7237           90           90           90     102002.7   -677.15644 
  993000       992496   -6648.2418    568.74404   -7216.9858    4321.5721   -11538.558    110.29008    -1055.839   -1132.6988   -582.19435     28.92073    115.98559   -33.513347      46.7237      46.7237      46.7237           90           90           90     102002.7   -923.57741 
  994000       993496   -6685.0876    564.40394   -7249.4916    4296.0238   -11545.515    109.44845   -825.82697   -793.86028   -500.00996   -30.527487    282.33683   -50.089693      46.7237      46.7237      46.7237           90           90           90     102002.7   -706.56574 
  995000       994496   -6669.2118    573.66015    -7242.872    4297.1126   -11539.985    111.24341   -723.06681   -647.47926   -660.35478    74.900226    354.07692   -388.61908      46.7237      46.7237      46.7237           90           90           90     102002.7   -676.96695 
  996000       995496   -6654.5656    566.48737    -7221.053    4323.7925   -11544.845    109.85247   -562.32043   -506.96965     -947.324    79.683382   -44.363902    59.139353      46.7237      46.7237      46.7237           90           90           90     102002.7   -672.20469 
  997000       996496   -6654.5243    576.77296   -7231.2973    4309.2753   -11540.573    111.84704   -724.81744    -357.1078   -580.32486    5.7904755    173.37831   -24.201564      46.7237      46.7237      46.7237           90           90           90     102002.7   -554.08336 
  998000       997496   -6686.4281    555.24719   -7241.6753    4308.1676   -11549.843    107.67279   -120.78247   -634.02356   -1318.7661     71.94854   -15.541383      -9.2082      46.7237      46.7237      46.7237           90           90           90     102002.7   -691.19072 
  999000       998496   -6656.9154    581.32117   -7238.2365    4295.4457   -11533.682    112.72902   -895.51053   -865.08677   -1116.3112    4.6491593    62.882985    141.05873      46.7237      46.7237      46.7237           90           90           90     102002.7   -958.96951 
 1000000       999496   -6641.8319    588.01187   -7229.8438    4307.8566     -11537.7    114.02647    -681.4444   -935.16884   -118.57964    98.580307    92.704767   -60.848857      46.7237      46.7237      46.7237           90           90           90     102002.7   -578.39763 
 1000504      1000000   -6660.2981     577.3309    -7237.629     4317.096   -11554.725    111.95523   -501.48786   -336.29523    -646.4226    44.637282    140.71728     116.9471      46.7237      46.7237      46.7237           90           90           90     102002.7   -494.73523 
Loop time of 614.509 on 24 procs for 500000 steps with 1731 atoms

Performance: 70.300 ns/day, 0.341 hours/ns, 813.658 timesteps/s
99.9% CPU use with 24 MPI tasks x no OpenMP threads

MPI task timing breakdown:
Section |  min time  |  avg time  |  max time  |%varavg| %total
---------------------------------------------------------------
Pair    | 181.39     | 299.59     | 384.61     | 335.2 | 48.75
Bond    | 71.159     | 82.56      | 91.854     |  54.2 | 13.44
Neigh   | 1.4828     | 1.501      | 1.5114     |   0.9 |  0.24
Comm    | 123.27     | 215.51     | 341.24     | 409.9 | 35.07
Output  | 0.34761    | 0.3834     | 0.38509    |   1.2 |  0.06
Modify  | 11.491     | 11.957     | 12.318     |   6.3 |  1.95
Other   |            | 3          |            |       |  0.49

Nlocal:    72.125 ave 93 max 52 min
Histogram: 2 1 4 3 4 1 4 1 1 3
Nghost:    1970.33 ave 2136 max 1872 min
Histogram: 9 7 0 0 0 0 0 0 1 7
Neighs:    7645.17 ave 12370 max 4370 min
Histogram: 4 3 2 3 1 6 3 0 0 2

Total # of neighbors = 183484
Ave neighs/atom = 105.999
Ave special neighs/atom = 6.65511
Neighbor list builds = 2865
Dangerous builds = 0
Total wall time: 0:19:34
