LAMMPS (30 Mar 2018)
Reading data file ...
  orthogonal box = (0 0 0) to (46.7237 46.7237 46.7237)
  2 by 2 by 4 MPI processor grid
  reading atoms ...
  1733 atoms
  scanning bonds ...
  5 = max bonds/atom
  scanning angles ...
  10 = max angles/atom
  scanning dihedrals ...
  32 = max dihedrals/atom
  scanning impropers ...
  3 = max impropers/atom
  reading bonds ...
  2064 bonds
  reading angles ...
  3696 angles
  reading dihedrals ...
  6240 dihedrals
  reading impropers ...
  1008 impropers
Finding 1-2 1-3 1-4 neighbors ...
  special bond factors lj:   0          0          0         
  special bond factors coul: 0          0          0         
  5 = max # of 1-2 neighbors
  8 = max # of 1-3 neighbors
  20 = max # of 1-4 neighbors
  19 = max # of special neighbors
Finding 1-2 1-3 1-4 neighbors ...
  special bond factors lj:   0          0          1         
  special bond factors coul: 1          1          1         
  5 = max # of 1-2 neighbors
  8 = max # of 1-3 neighbors
  19 = max # of special neighbors
WARNING: Using 'neigh_modify every 1 delay 0 check yes' setting during minimization (../min.cpp:168)
Neighbor list info ...
  update every 1 steps, delay 0 steps, check yes
  max neighbors/atom: 2000, page size: 100000
  master list distance cutoff = 16
  ghost atom cutoff = 16
  binsize = 8, bins = 6 6 6
  3 neighbor lists, perpetual/occasional/extra = 3 0 0
  (1) pair buck6d/coul/gauss/dsf, perpetual, skip from (3)
      attributes: half, newton on
      pair build: skip
      stencil: none
      bin: none
  (2) pair lj/cut, perpetual, skip from (3)
      attributes: half, newton on
      pair build: skip
      stencil: none
      bin: none
  (3) neighbor class addition, perpetual
      attributes: half, newton on
      pair build: half/bin/newton
      stencil: half/bin/3d/newton
      bin: standard
Setting up cg style minimization ...
  Unit style    : real
  Current step  : 0
WARNING: Inconsistent image flags (../domain.cpp:786)
Per MPI rank memory allocation (min/avg/max) = 22.89 | 23.35 | 23.79 Mbytes
Step Temp E_pair E_mol TotEng Press 
       0            0   -11526.276    6482.8914   -5043.3848    6281.9083 
     506            0   -11557.937     3745.172   -7812.7648   -497.82837 
Loop time of 2.64023 on 16 procs for 506 steps with 1733 atoms

99.9% CPU use with 16 MPI tasks x no OpenMP threads

Minimization stats:
  Stopping criterion = max force evaluations
  Energy initial, next-to-last, final = 
        -5043.38475348     -7812.75041056     -7812.76477544
  Force two-norm initial, final = 2576.98 5.58317
  Force max component initial, final = 151.971 0.677464
  Final line search alpha, max atom move = 0.0190003 0.012872
  Iterations, force evaluations = 506 1001

MPI task timing breakdown:
Section |  min time  |  avg time  |  max time  |%varavg| %total
---------------------------------------------------------------
Pair    | 1.1537     | 1.5646     | 1.8332     |  15.1 | 59.26
Bond    | 0.31107    | 0.36232    | 0.40687    |   5.1 | 13.72
Neigh   | 0.013647   | 0.013713   | 0.013754   |   0.0 |  0.52
Comm    | 0.41506    | 0.66169    | 1.0692     |  21.1 | 25.06
Output  | 0          | 0          | 0          |   0.0 |  0.00
Modify  | 0          | 0          | 0          |   0.0 |  0.00
Other   |            | 0.03789    |            |       |  1.44

Nlocal:    108.312 ave 118 max 92 min
Histogram: 1 0 0 0 2 3 5 1 3 1
Nghost:    2186.19 ave 2201 max 2173 min
Histogram: 1 0 2 3 2 4 2 1 0 1
Neighs:    11427.2 ave 15261 max 6133 min
Histogram: 1 0 0 6 0 1 0 3 3 2

Total # of neighbors = 182835
Ave neighs/atom = 105.502
Ave special neighs/atom = 6.64743
Neighbor list builds = 12
Dangerous builds = 0
Neighbor list info ...
  update every 1 steps, delay 10 steps, check yes
  max neighbors/atom: 2000, page size: 100000
  master list distance cutoff = 16
  ghost atom cutoff = 16
  binsize = 8, bins = 6 6 6
  3 neighbor lists, perpetual/occasional/extra = 3 0 0
  (1) pair buck6d/coul/gauss/dsf, perpetual, skip from (3)
      attributes: half, newton on
      pair build: skip
      stencil: none
      bin: none
  (2) pair lj/cut, perpetual, skip from (3)
      attributes: half, newton on
      pair build: skip
      stencil: none
      bin: none
  (3) neighbor class addition, perpetual
      attributes: half, newton on
      pair build: half/bin/newton
      stencil: half/bin/3d/newton
      bin: standard
Setting up Verlet run ...
  Unit style    : real
  Current step  : 506
  Time step     : 1
WARNING: Inconsistent image flags (../domain.cpp:786)
Per MPI rank memory allocation (min/avg/max) = 22.54 | 22.64 | 22.86 Mbytes
Step Temp PotEng TotEng Press Volume Lx Ly Lz 
     506          130   -7812.7648   -7141.6056   -197.04993     102002.7      46.7237      46.7237      46.7237 
    1000    111.13957   -7198.8942   -6625.1069   -744.51286     102002.7      46.7237      46.7237      46.7237 
    2000    124.27676   -7085.8447   -6444.2333   -866.90526     102002.7      46.7237      46.7237      46.7237 
    3000    126.12117   -7124.5827    -6473.449   -1065.4119     102002.7      46.7237      46.7237      46.7237 
    4000    127.24135   -7131.7811   -6474.8641   -549.22771     102002.7      46.7237      46.7237      46.7237 
    5000    132.43601    -7126.429   -6442.6933   -843.77006     102002.7      46.7237      46.7237      46.7237 
    6000    131.71904   -7166.9443   -6486.9101   -818.58183     102002.7      46.7237      46.7237      46.7237 
    7000    136.48796    -7132.811    -6428.156    -821.2237     102002.7      46.7237      46.7237      46.7237 
    8000    129.99681   -7119.5129   -6448.3702   -580.11621     102002.7      46.7237      46.7237      46.7237 
    9000    128.98163   -7137.9107   -6472.0091   -663.12857     102002.7      46.7237      46.7237      46.7237 
   10000    124.60701   -7147.5654    -6504.249   -578.48677     102002.7      46.7237      46.7237      46.7237 
   11000    129.52404   -7114.4922   -6445.7903   -845.74336     102002.7      46.7237      46.7237      46.7237 
   12000    127.12144   -7127.0719   -6470.7741    -702.3371     102002.7      46.7237      46.7237      46.7237 
   13000    133.74263   -7113.9951   -6423.5136   -800.36887     102002.7      46.7237      46.7237      46.7237 
   14000    127.58233   -7138.6953    -6480.018   -987.60978     102002.7      46.7237      46.7237      46.7237 
   15000    131.10584   -7120.8364    -6443.968   -857.13836     102002.7      46.7237      46.7237      46.7237 
   16000     125.2747   -7122.0759   -6475.3123   -932.13253     102002.7      46.7237      46.7237      46.7237 
   17000    128.58891   -7128.6442   -6464.7702   -495.46741     102002.7      46.7237      46.7237      46.7237 
   18000    130.70704    -7150.803   -6475.9936   -624.09644     102002.7      46.7237      46.7237      46.7237 
   19000    128.91559   -7123.2568   -6457.6962   -672.99839     102002.7      46.7237      46.7237      46.7237 
   20000    127.48496    -7123.302   -6465.1273   -460.88951     102002.7      46.7237      46.7237      46.7237 
   21000    130.63663   -7145.5792   -6471.1332   -681.61719     102002.7      46.7237      46.7237      46.7237 
   22000     130.4154    -7135.895   -6462.5912   -723.95124     102002.7      46.7237      46.7237      46.7237 
   23000    129.43049   -7119.6795   -6451.4606   -833.13129     102002.7      46.7237      46.7237      46.7237 
   24000    133.69264   -7119.4717   -6429.2482   -485.67212     102002.7      46.7237      46.7237      46.7237 
   25000    128.28883   -7129.2857   -6466.9609   -779.25042     102002.7      46.7237      46.7237      46.7237 
   26000    128.31408   -7137.0829   -6474.6277   -866.24765     102002.7      46.7237      46.7237      46.7237 
   27000    132.42489   -7132.6943   -6449.0159    -537.4354     102002.7      46.7237      46.7237      46.7237 
   28000    127.32302   -7115.2707   -6457.9321   -798.96299     102002.7      46.7237      46.7237      46.7237 
   29000    132.93434   -7149.3099   -6463.0015   -609.60842     102002.7      46.7237      46.7237      46.7237 
   30000    132.78584   -7129.3467   -6443.8049   -723.89817     102002.7      46.7237      46.7237      46.7237 
   31000     129.8827   -7133.6908   -6463.1372   -652.47254     102002.7      46.7237      46.7237      46.7237 
   32000     130.1474    -7129.359   -6457.4388   -578.62078     102002.7      46.7237      46.7237      46.7237 
   33000    131.35838   -7138.0949   -6459.9227   -681.94696     102002.7      46.7237      46.7237      46.7237 
   34000    128.68051   -7131.7887   -6467.4418   -427.44197     102002.7      46.7237      46.7237      46.7237 
   35000    127.37597   -7141.7696   -6484.1577   -766.23067     102002.7      46.7237      46.7237      46.7237 
   36000    125.93115    -7132.637   -6482.4843   -653.52827     102002.7      46.7237      46.7237      46.7237 
   37000    129.43282   -7128.3784   -6460.1474   -700.43381     102002.7      46.7237      46.7237      46.7237 
   38000    135.98728   -7145.6951    -6443.625   -566.54935     102002.7      46.7237      46.7237      46.7237 
   39000    129.94578   -7135.1115   -6464.2322   -593.88889     102002.7      46.7237      46.7237      46.7237 
   40000    124.42924   -7128.5015   -6486.1028   -776.26072     102002.7      46.7237      46.7237      46.7237 
   41000    129.96563   -7117.6084   -6446.6267   -709.37213     102002.7      46.7237      46.7237      46.7237 
   42000    136.06235   -7142.9314   -6440.4737   -659.67193     102002.7      46.7237      46.7237      46.7237 
   43000    126.62839   -7121.3091   -6467.5568    -488.1606     102002.7      46.7237      46.7237      46.7237 
   44000    124.50953   -7124.8555   -6482.0423   -701.59676     102002.7      46.7237      46.7237      46.7237 
   45000     130.2512   -7135.3523   -6462.8962     -566.677     102002.7      46.7237      46.7237      46.7237 
   46000    135.68557   -7117.5132   -6417.0007    -679.5786     102002.7      46.7237      46.7237      46.7237 
   47000     125.9252   -7128.3217   -6478.1997    -721.2663     102002.7      46.7237      46.7237      46.7237 
   48000    128.24509   -7122.6458   -6460.5467   -674.51353     102002.7      46.7237      46.7237      46.7237 
   49000     125.1473   -7167.0864   -6520.9806   -551.98165     102002.7      46.7237      46.7237      46.7237 
   50000    128.42384   -7111.6686   -6448.6468   -729.62962     102002.7      46.7237      46.7237      46.7237 
   51000    131.54879   -7139.4751   -6460.3199   -499.81846     102002.7      46.7237      46.7237      46.7237 
   52000    128.31651   -7100.9161   -6438.4484   -713.63725     102002.7      46.7237      46.7237      46.7237 
   53000    126.15296   -7125.5762   -6474.2784   -835.70581     102002.7      46.7237      46.7237      46.7237 
   54000    134.34975   -7129.3916   -6435.7756    -577.6242     102002.7      46.7237      46.7237      46.7237 
   55000    127.57479   -7130.1359   -6471.4975   -774.50126     102002.7      46.7237      46.7237      46.7237 
   56000    127.16547   -7123.0055   -6466.4802   -939.15872     102002.7      46.7237      46.7237      46.7237 
   57000    130.59655   -7119.7496   -6445.5106   -756.07858     102002.7      46.7237      46.7237      46.7237 
   58000    132.00681   -7126.8621   -6445.3422   -994.66029     102002.7      46.7237      46.7237      46.7237 
   59000    130.77054    -7135.391   -6460.2537   -461.83319     102002.7      46.7237      46.7237      46.7237 
   60000    129.37217   -7116.0962   -6448.1784   -873.95682     102002.7      46.7237      46.7237      46.7237 
   61000    128.49986   -7136.3322   -6472.9179   -680.75265     102002.7      46.7237      46.7237      46.7237 
   62000      130.666   -7114.9839   -6440.3864   -655.43879     102002.7      46.7237      46.7237      46.7237 
   63000    128.06385   -7147.7092   -6486.5459   -720.54139     102002.7      46.7237      46.7237      46.7237 
   64000    129.54997   -7126.4061   -6457.5704   -511.81853     102002.7      46.7237      46.7237      46.7237 
   65000    131.63774   -7137.5924    -6457.978   -636.53865     102002.7      46.7237      46.7237      46.7237 
   66000    132.08611   -7134.4156   -6452.4863   -376.03525     102002.7      46.7237      46.7237      46.7237 
   67000    129.33269   -7152.3985   -6484.6845   -618.58663     102002.7      46.7237      46.7237      46.7237 
   68000    131.50154   -7140.1825   -6461.2712   -562.84916     102002.7      46.7237      46.7237      46.7237 
   69000    131.00788   -7103.0435   -6426.6809   -543.21596     102002.7      46.7237      46.7237      46.7237 
   70000    125.65014   -7120.5753   -6471.8734   -558.04815     102002.7      46.7237      46.7237      46.7237 
   71000    130.26871   -7134.9975   -6462.4511   -468.13782     102002.7      46.7237      46.7237      46.7237 
   72000    131.57099    -7132.541   -6453.2712   -299.37494     102002.7      46.7237      46.7237      46.7237 
   73000    133.56095   -7133.8923   -6444.3487   -805.33423     102002.7      46.7237      46.7237      46.7237 
   74000     130.4981   -7143.6302   -6469.8994   -351.47492     102002.7      46.7237      46.7237      46.7237 
   75000    130.40516   -7111.9002   -6438.6492   -511.50321     102002.7      46.7237      46.7237      46.7237 
   76000    129.90176   -7150.0979   -6479.4459    -884.3566     102002.7      46.7237      46.7237      46.7237 
   77000    130.67415   -7136.0619   -6461.4222   -719.53309     102002.7      46.7237      46.7237      46.7237 
   78000    130.83729   -7134.8639    -6459.382   -714.56984     102002.7      46.7237      46.7237      46.7237 
   79000    125.32661   -7121.8854   -6474.8537    -867.6795     102002.7      46.7237      46.7237      46.7237 
   80000    125.69529   -7105.8916   -6456.9566   -869.50692     102002.7      46.7237      46.7237      46.7237 
   81000    127.26007   -7137.7262   -6480.7127   -519.03342     102002.7      46.7237      46.7237      46.7237 
   82000    131.71927   -7144.3171   -6464.2817    -738.7541     102002.7      46.7237      46.7237      46.7237 
   83000    132.11508   -7126.7769    -6444.698   -639.10917     102002.7      46.7237      46.7237      46.7237 
   84000    132.25673   -7117.1572    -6434.347   -488.41425     102002.7      46.7237      46.7237      46.7237 
   85000     128.4302   -7130.3603   -6467.3056   -914.61118     102002.7      46.7237      46.7237      46.7237 
   86000    130.75783   -7134.1834   -6459.1117   -596.05516     102002.7      46.7237      46.7237      46.7237 
   87000    127.30993   -7124.1458   -6466.8748   -828.10544     102002.7      46.7237      46.7237      46.7237 
   88000    127.73433    -7128.735   -6469.2729    -820.9324     102002.7      46.7237      46.7237      46.7237 
   89000    130.66754   -7107.9352   -6433.3297   -919.51272     102002.7      46.7237      46.7237      46.7237 
   90000     131.9737   -7153.3884   -6472.0395   -571.23644     102002.7      46.7237      46.7237      46.7237 
   91000    128.15933   -7144.5392   -6482.8829   -566.32387     102002.7      46.7237      46.7237      46.7237 
   92000      130.965   -7129.4399   -6453.2987   -592.33802     102002.7      46.7237      46.7237      46.7237 
   93000    128.22892   -7153.9625    -6491.947   -627.81423     102002.7      46.7237      46.7237      46.7237 
   94000    132.45543   -7123.0095   -6439.1735    -781.4913     102002.7      46.7237      46.7237      46.7237 
   95000    127.48753   -7122.1175   -6463.9295   -631.42988     102002.7      46.7237      46.7237      46.7237 
   96000     131.6396    -7145.235   -6465.6109    -890.2086     102002.7      46.7237      46.7237      46.7237 
   97000    132.39389   -7137.1405   -6453.6222   -779.23718     102002.7      46.7237      46.7237      46.7237 
   98000    130.91057   -7136.7227   -6460.8624    -723.2208     102002.7      46.7237      46.7237      46.7237 
   99000    128.16748   -7125.5589   -6463.8606   -854.86112     102002.7      46.7237      46.7237      46.7237 
  100000    135.10204   -7117.7142   -6420.2144   -767.11168     102002.7      46.7237      46.7237      46.7237 
  101000    132.40345   -7133.7771   -6450.2094   -585.42587     102002.7      46.7237      46.7237      46.7237 
  102000    130.53407   -7166.9047   -6492.9882   -748.26818     102002.7      46.7237      46.7237      46.7237 
  103000    128.94897   -7116.3414   -6450.6084   -558.14234     102002.7      46.7237      46.7237      46.7237 
  104000    130.07869   -7128.6539   -6457.0885   -778.25399     102002.7      46.7237      46.7237      46.7237 
  105000    128.64976   -7147.7294   -6483.5412   -578.14662     102002.7      46.7237      46.7237      46.7237 
  106000    131.21336   -7121.5518   -6444.1283   -765.48899     102002.7      46.7237      46.7237      46.7237 
  107000    124.81719   -7121.5124   -6477.1109   -669.88102     102002.7      46.7237      46.7237      46.7237 
  108000    135.27023    -7130.385   -6432.0168   -694.73767     102002.7      46.7237      46.7237      46.7237 
  109000    128.42749   -7121.0843   -6458.0436   -528.92898     102002.7      46.7237      46.7237      46.7237 
  110000    133.75418   -7110.9483   -6420.4072    -687.5005     102002.7      46.7237      46.7237      46.7237 
  111000    129.08153   -7128.6336   -6462.2163    -404.5231     102002.7      46.7237      46.7237      46.7237 
  112000    131.76883   -7148.8822   -6468.5909   -463.56001     102002.7      46.7237      46.7237      46.7237 
  113000    130.47463   -7121.8427   -6448.2331   -599.56706     102002.7      46.7237      46.7237      46.7237 
  114000    125.83126   -7124.8319   -6475.1949   -917.40436     102002.7      46.7237      46.7237      46.7237 
  115000    130.20514   -7107.5502    -6435.332   -715.61579     102002.7      46.7237      46.7237      46.7237 
  116000     127.8744   -7131.3615   -6471.1763   -687.13391     102002.7      46.7237      46.7237      46.7237 
  117000    132.71111    -7124.635    -6439.479   -559.89123     102002.7      46.7237      46.7237      46.7237 
  118000    128.49314   -7116.4797   -6453.1001   -698.65602     102002.7      46.7237      46.7237      46.7237 
  119000    125.19594   -7129.5464   -6483.1894   -840.70271     102002.7      46.7237      46.7237      46.7237 
  120000    130.20505   -7103.8514   -6431.6336   -636.49742     102002.7      46.7237      46.7237      46.7237 
  121000    130.69009   -7148.1605   -6473.4385   -940.77127     102002.7      46.7237      46.7237      46.7237 
  122000    127.09574   -7140.1096   -6483.9444   -1008.1384     102002.7      46.7237      46.7237      46.7237 
  123000    128.03712   -7126.5849   -6465.5596   -771.26303     102002.7      46.7237      46.7237      46.7237 
  124000     131.3653   -7123.3252   -6445.1173   -817.40205     102002.7      46.7237      46.7237      46.7237 
  125000    129.17069   -7137.5383   -6470.6606   -583.88568     102002.7      46.7237      46.7237      46.7237 
  126000    125.39822    -7141.323   -6493.9217   -640.27683     102002.7      46.7237      46.7237      46.7237 
  127000    128.64909   -7147.8145   -6483.6297   -489.84035     102002.7      46.7237      46.7237      46.7237 
  128000    128.69119   -7138.6235   -6474.2214   -918.09794     102002.7      46.7237      46.7237      46.7237 
  129000    129.84608   -7113.5332   -6443.1686   -721.60287     102002.7      46.7237      46.7237      46.7237 
  130000     133.5611   -7127.0896   -6437.5453   -463.62665     102002.7      46.7237      46.7237      46.7237 
  131000    126.28957   -7152.6279   -6500.6247   -766.49039     102002.7      46.7237      46.7237      46.7237 
  132000    127.59057   -7129.7822   -6471.0623   -675.33155     102002.7      46.7237      46.7237      46.7237 
  133000     125.7826   -7111.3761   -6461.9903   -569.09774     102002.7      46.7237      46.7237      46.7237 
  134000    128.14522   -7148.0776   -6486.4942   -617.23343     102002.7      46.7237      46.7237      46.7237 
  135000    133.33514   -7146.3859   -6458.0082   -762.66101     102002.7      46.7237      46.7237      46.7237 
  136000    129.43118   -7102.7519   -6434.5294    -751.5424     102002.7      46.7237      46.7237      46.7237 
  137000    130.23438   -7123.4094   -6451.0402   -810.63444     102002.7      46.7237      46.7237      46.7237 
  138000    130.42513   -7133.8115   -6460.4575   -806.09372     102002.7      46.7237      46.7237      46.7237 
  139000     131.3995   -7116.9352   -6438.5507   -910.51107     102002.7      46.7237      46.7237      46.7237 
  140000    130.94745   -7119.4395   -6443.3888    -762.8314     102002.7      46.7237      46.7237      46.7237 
  141000    131.71815   -7159.5564   -6479.5268   -813.78938     102002.7      46.7237      46.7237      46.7237 
  142000    129.46833   -7141.9172   -6473.5028   -869.34989     102002.7      46.7237      46.7237      46.7237 
  143000    132.04578   -7121.4492   -6439.7281   -713.69858     102002.7      46.7237      46.7237      46.7237 
  144000    132.21608   -7143.3821   -6460.7818   -626.44886     102002.7      46.7237      46.7237      46.7237 
  145000    128.77924   -7129.8237   -6464.9671   -662.83138     102002.7      46.7237      46.7237      46.7237 
  146000     131.8508   -7122.4765   -6441.7621   -467.53876     102002.7      46.7237      46.7237      46.7237 
  147000    131.80663   -7139.1672   -6458.6808   -536.99476     102002.7      46.7237      46.7237      46.7237 
  148000    128.70046    -7160.772   -6496.3221   -386.67189     102002.7      46.7237      46.7237      46.7237 
  149000    126.96811   -7106.0561   -6450.5499   -771.64831     102002.7      46.7237      46.7237      46.7237 
  150000    136.75205   -7132.4697   -6426.4512   -1117.6735     102002.7      46.7237      46.7237      46.7237 
  151000    131.16703   -7136.1627   -6458.9784   -713.72986     102002.7      46.7237      46.7237      46.7237 
  152000    127.10778   -7153.8283    -6497.601   -833.27849     102002.7      46.7237      46.7237      46.7237 
  153000    131.88608   -7114.2025   -6433.3059   -720.39343     102002.7      46.7237      46.7237      46.7237 
  154000    126.37885   -7125.8003   -6473.3363   -666.52905     102002.7      46.7237      46.7237      46.7237 
  155000    133.12006   -7123.2332   -6435.9658   -730.15398     102002.7      46.7237      46.7237      46.7237 
  156000    129.92962   -7129.2602   -6458.4644   -789.81954     102002.7      46.7237      46.7237      46.7237 
  157000    134.59594   -7115.0724   -6420.1854   -511.07076     102002.7      46.7237      46.7237      46.7237 
  158000    130.19075   -7137.0929   -6464.9489   -755.55806     102002.7      46.7237      46.7237      46.7237 
  159000    129.42383   -7117.0887   -6448.9042   -804.66831     102002.7      46.7237      46.7237      46.7237 
  160000    132.42252   -7146.2139   -6462.5478   -912.67551     102002.7      46.7237      46.7237      46.7237 
  161000     131.5821   -7111.4986   -6432.1714   -890.47686     102002.7      46.7237      46.7237      46.7237 
  162000    131.84636   -7119.9474   -6439.2559    -849.4234     102002.7      46.7237      46.7237      46.7237 
  163000    130.45244   -7145.6209   -6472.1258   -648.07329     102002.7      46.7237      46.7237      46.7237 
  164000    126.79396   -7128.4292   -6473.8221   -832.46669     102002.7      46.7237      46.7237      46.7237 
  165000    132.83155   -7126.1708    -6440.393   -807.84506     102002.7      46.7237      46.7237      46.7237 
  166000    134.19374   -7107.5829   -6414.7724   -699.90269     102002.7      46.7237      46.7237      46.7237 
  167000    128.95762   -7141.2399   -6475.4623   -989.43852     102002.7      46.7237      46.7237      46.7237 
  168000    132.04613   -7125.1744   -6443.4516   -1056.4336     102002.7      46.7237      46.7237      46.7237 
  169000    125.75938   -7126.0671   -6476.8012    -630.2413     102002.7      46.7237      46.7237      46.7237 
  170000     128.7306   -7115.7127   -6451.1071   -1258.6967     102002.7      46.7237      46.7237      46.7237 
  171000    132.28295   -7135.8886   -6452.9431   -611.82338     102002.7      46.7237      46.7237      46.7237 
  172000    127.16926   -7137.9674   -6481.4227   -1022.4961     102002.7      46.7237      46.7237      46.7237 
  173000    132.00897   -7126.2147   -6444.6837   -1043.2334     102002.7      46.7237      46.7237      46.7237 
  174000      129.181   -7129.0328   -6462.1019   -905.00053     102002.7      46.7237      46.7237      46.7237 
  175000    134.99701    -7128.861   -6431.9034   -761.31464     102002.7      46.7237      46.7237      46.7237 
  176000    132.41927   -7131.9136   -6448.2643   -619.80674     102002.7      46.7237      46.7237      46.7237 
  177000    128.92605   -7115.5155   -6449.9008   -966.52987     102002.7      46.7237      46.7237      46.7237 
  178000    131.09381   -7140.6884   -6463.8821   -741.98945     102002.7      46.7237      46.7237      46.7237 
  179000    129.24788   -7135.4076   -6468.1314   -799.24467     102002.7      46.7237      46.7237      46.7237 
  180000    129.99239   -7138.7196   -6467.5997   -558.31307     102002.7      46.7237      46.7237      46.7237 
  181000    126.81596   -7115.5202   -6460.7994   -616.15386     102002.7      46.7237      46.7237      46.7237 
  182000    132.29223   -7114.4525   -6431.4591   -293.03085     102002.7      46.7237      46.7237      46.7237 
  183000    129.72703    -7133.309   -6463.5591   -386.33474     102002.7      46.7237      46.7237      46.7237 
  184000    128.27457   -7112.4022    -6450.151   -524.40247     102002.7      46.7237      46.7237      46.7237 
  185000    128.69727   -7143.5649   -6479.1314   -736.98152     102002.7      46.7237      46.7237      46.7237 
  186000    135.85504   -7119.5156   -6418.1282   -744.38053     102002.7      46.7237      46.7237      46.7237 
  187000     128.7537   -7127.1365   -6462.4116   -785.36246     102002.7      46.7237      46.7237      46.7237 
  188000     127.7504   -7117.1763   -6457.6313   -507.63826     102002.7      46.7237      46.7237      46.7237 
  189000    133.23314   -7136.9827   -6449.1316   -739.06497     102002.7      46.7237      46.7237      46.7237 
  190000    127.51934   -7133.3506   -6474.9985   -730.59867     102002.7      46.7237      46.7237      46.7237 
  191000    131.24111   -7122.9696   -6445.4028   -862.04226     102002.7      46.7237      46.7237      46.7237 
  192000    130.81405   -7112.9859    -6437.624   -934.98465     102002.7      46.7237      46.7237      46.7237 
  193000    131.34018   -7128.6629   -6450.5847   -791.76045     102002.7      46.7237      46.7237      46.7237 
  194000    131.48156   -7151.0414   -6472.2333   -768.82291     102002.7      46.7237      46.7237      46.7237 
  195000    130.85029   -7119.9645   -6444.4154   -855.80087     102002.7      46.7237      46.7237      46.7237 
  196000    135.20179   -7139.2169   -6441.2021   -531.13162     102002.7      46.7237      46.7237      46.7237 
  197000    126.93562   -7119.3299   -6463.9914   -915.27472     102002.7      46.7237      46.7237      46.7237 
  198000    130.24018   -7123.0585   -6450.6593   -622.37994     102002.7      46.7237      46.7237      46.7237 
  199000    130.02771   -7127.4154   -6456.1131   -542.34297     102002.7      46.7237      46.7237      46.7237 
  200000    127.75994    -7152.347   -6492.7527   -1050.9047     102002.7      46.7237      46.7237      46.7237 
  201000    127.10499   -7107.1298   -6450.9168   -686.64114     102002.7      46.7237      46.7237      46.7237 
  202000    132.39376   -7132.7584   -6449.2408   -946.83243     102002.7      46.7237      46.7237      46.7237 
  203000    123.04466    -7128.838   -6493.5875    -539.9717     102002.7      46.7237      46.7237      46.7237 
  204000    130.74678   -7129.4296    -6454.415   -836.85797     102002.7      46.7237      46.7237      46.7237 
  205000    131.04379   -7135.5381   -6458.9901   -604.22626     102002.7      46.7237      46.7237      46.7237 
  206000    128.26025   -7130.2493    -6468.072   -616.98337     102002.7      46.7237      46.7237      46.7237 
  207000    135.76316   -7119.3326   -6418.4195   -359.24947     102002.7      46.7237      46.7237      46.7237 
  208000    129.62313   -7138.1923   -6468.9788   -476.07682     102002.7      46.7237      46.7237      46.7237 
  209000    128.42984   -7154.3505   -6491.2976     -679.419     102002.7      46.7237      46.7237      46.7237 
  210000    129.73862   -7128.6488   -6458.8391   -618.31122     102002.7      46.7237      46.7237      46.7237 
  211000    125.21878   -7136.2407   -6489.7658   -589.15389     102002.7      46.7237      46.7237      46.7237 
  212000    129.55148   -7114.1293   -6445.2857   -180.33065     102002.7      46.7237      46.7237      46.7237 
  213000    137.49646    -7153.515   -6443.6534   -752.11313     102002.7      46.7237      46.7237      46.7237 
  214000     129.0777   -7127.9379   -6461.5404   -952.48456     102002.7      46.7237      46.7237      46.7237 
  215000    133.04325   -7136.0938    -6449.223   -879.37497     102002.7      46.7237      46.7237      46.7237 
  216000    123.71719   -7110.3563   -6471.6338   -770.67226     102002.7      46.7237      46.7237      46.7237 
  217000    133.23616   -7126.3771   -6438.5104   -914.05005     102002.7      46.7237      46.7237      46.7237 
  218000    127.53285   -7141.1624   -6482.7405   -857.84325     102002.7      46.7237      46.7237      46.7237 
  219000    130.41704   -7144.6772   -6471.3649   -742.06106     102002.7      46.7237      46.7237      46.7237 
  220000    130.16816   -7130.3829   -6458.3556   -672.25761     102002.7      46.7237      46.7237      46.7237 
  221000    129.14006   -7122.3616   -6455.6421   -964.99318     102002.7      46.7237      46.7237      46.7237 
  222000    124.34756   -7128.6009   -6486.6239   -1312.0872     102002.7      46.7237      46.7237      46.7237 
  223000    129.71504   -7120.2273   -6450.5393   -832.39465     102002.7      46.7237      46.7237      46.7237 
  224000    124.67141   -7139.2142   -6495.5653   -861.03085     102002.7      46.7237      46.7237      46.7237 
  225000    132.75879   -7144.0457   -6458.6436    -823.1514     102002.7      46.7237      46.7237      46.7237 
  226000    134.75997   -7137.9789   -6442.2451   -683.46378     102002.7      46.7237      46.7237      46.7237 
  227000    129.88718   -7141.5431   -6470.9663   -1068.0007     102002.7      46.7237      46.7237      46.7237 
  228000    129.20465   -7102.4727   -6435.4197   -772.57723     102002.7      46.7237      46.7237      46.7237 
  229000    129.07283   -7130.3196   -6463.9472   -765.36857     102002.7      46.7237      46.7237      46.7237 
  230000     133.1391   -7120.9078   -6433.5422   -623.61802     102002.7      46.7237      46.7237      46.7237 
  231000    129.25112   -7124.9061   -6457.6132   -827.16649     102002.7      46.7237      46.7237      46.7237 
  232000    129.01591   -7130.3528   -6464.2742   -1096.1993     102002.7      46.7237      46.7237      46.7237 
  233000    132.80709   -7117.5021   -6431.8506   -912.85369     102002.7      46.7237      46.7237      46.7237 
  234000     123.8603   -7132.4187   -6492.9574   -852.48341     102002.7      46.7237      46.7237      46.7237 
  235000    131.13043   -7146.2223    -6469.227   -777.75624     102002.7      46.7237      46.7237      46.7237 
  236000    127.58619    -7105.783   -6447.0858   -1121.3343     102002.7      46.7237      46.7237      46.7237 
  237000    129.12283   -7136.1325   -6469.5019   -721.54166     102002.7      46.7237      46.7237      46.7237 
  238000    132.72974   -7110.4251   -6425.1729   -1099.1166     102002.7      46.7237      46.7237      46.7237 
  239000    128.96923   -7125.0584   -6459.2208   -627.07151     102002.7      46.7237      46.7237      46.7237 
  240000     129.0878   -7145.4156   -6478.9659   -952.29889     102002.7      46.7237      46.7237      46.7237 
  241000    131.85927   -7129.3615   -6448.6034   -785.48048     102002.7      46.7237      46.7237      46.7237 
  242000    130.43746   -7123.5848   -6450.1671   -725.00278     102002.7      46.7237      46.7237      46.7237 
  243000    131.28658   -7146.9601   -6469.1586   -820.57414     102002.7      46.7237      46.7237      46.7237 
  244000    130.29271   -7104.5839   -6431.9135   -442.54323     102002.7      46.7237      46.7237      46.7237 
  245000    126.49261   -7165.5432   -6512.4919   -742.73769     102002.7      46.7237      46.7237      46.7237 
  246000    131.13549   -7110.6325    -6433.611   -850.79842     102002.7      46.7237      46.7237      46.7237 
  247000    131.38321   -7131.3161   -6453.0158   -720.58171     102002.7      46.7237      46.7237      46.7237 
  248000    128.50811   -7128.8399   -6465.3829   -1029.0595     102002.7      46.7237      46.7237      46.7237 
  249000     134.5325   -7121.0444   -6426.4849   -916.94576     102002.7      46.7237      46.7237      46.7237 
  250000    129.32634   -7114.1636   -6446.4823   -719.13159     102002.7      46.7237      46.7237      46.7237 
  251000    127.42161   -7137.6395   -6479.7919   -908.26207     102002.7      46.7237      46.7237      46.7237 
  252000    126.41093   -7108.7055   -6456.0758   -931.39466     102002.7      46.7237      46.7237      46.7237 
  253000    131.39329   -7133.8313   -6455.4788   -790.53034     102002.7      46.7237      46.7237      46.7237 
  254000    127.94145    -7133.858   -6473.3266   -752.08171     102002.7      46.7237      46.7237      46.7237 
  255000    128.17923   -7115.7672   -6454.0082   -408.33787     102002.7      46.7237      46.7237      46.7237 
  256000    128.83548   -7149.8653   -6484.7183    -806.6052     102002.7      46.7237      46.7237      46.7237 
  257000    129.75501    -7122.758   -6452.8637   -510.48874     102002.7      46.7237      46.7237      46.7237 
  258000    133.52804   -7135.7242   -6446.3505   -711.02625     102002.7      46.7237      46.7237      46.7237 
  259000    126.06118   -7103.2267   -6452.4027   -731.46506     102002.7      46.7237      46.7237      46.7237 
  260000    129.81753   -7138.9155   -6468.6984   -475.45993     102002.7      46.7237      46.7237      46.7237 
  261000    130.98537   -7102.6256   -6426.3791   -477.84385     102002.7      46.7237      46.7237      46.7237 
  262000    129.81699   -7112.4833    -6442.269   -755.41953     102002.7      46.7237      46.7237      46.7237 
  263000    129.44231   -7150.4964   -6482.2164   -397.50003     102002.7      46.7237      46.7237      46.7237 
  264000    131.08021   -7153.2485   -6476.5124   -450.32788     102002.7      46.7237      46.7237      46.7237 
  265000    138.11803   -7123.9546   -6410.8839   -727.61382     102002.7      46.7237      46.7237      46.7237 
  266000    128.78467   -7133.9756   -6469.0909   -574.39435     102002.7      46.7237      46.7237      46.7237 
  267000    132.08944   -7125.5414   -6443.5949   -923.62196     102002.7      46.7237      46.7237      46.7237 
  268000    129.61589   -7128.8325   -6459.6563   -591.35005     102002.7      46.7237      46.7237      46.7237 
  269000    128.42565   -7141.2483   -6478.2172   -638.03128     102002.7      46.7237      46.7237      46.7237 
  270000    134.49784   -7131.0228   -6436.6423    -961.6792     102002.7      46.7237      46.7237      46.7237 
  271000     130.5817   -7129.7233   -6455.5609   -1118.9095     102002.7      46.7237      46.7237      46.7237 
  272000    133.72066   -7150.4321    -6460.064    -1098.166     102002.7      46.7237      46.7237      46.7237 
  273000    128.77555   -7164.4794   -6499.6417   -789.91699     102002.7      46.7237      46.7237      46.7237 
  274000    127.17484   -7102.1092   -6445.5356   -818.86837     102002.7      46.7237      46.7237      46.7237 
  275000    124.57699   -7122.5695    -6479.408   -494.51675     102002.7      46.7237      46.7237      46.7237 
  276000    131.18951   -7102.4179   -6425.1176   -762.15384     102002.7      46.7237      46.7237      46.7237 
  277000    125.91591   -7110.0526   -6459.9787   -1028.5311     102002.7      46.7237      46.7237      46.7237 
  278000    130.67103   -7136.0013   -6461.3777   -744.37794     102002.7      46.7237      46.7237      46.7237 
  279000    129.19579   -7138.0016   -6470.9944   -990.82684     102002.7      46.7237      46.7237      46.7237 
  280000    134.10839   -7111.5612   -6419.1913   -806.52897     102002.7      46.7237      46.7237      46.7237 
  281000    128.85479   -7130.6612   -6465.4145   -857.50857     102002.7      46.7237      46.7237      46.7237 
  282000    130.34676   -7115.8704    -6442.921   -871.49652     102002.7      46.7237      46.7237      46.7237 
  283000    130.63278   -7125.9686   -6451.5425   -964.53971     102002.7      46.7237      46.7237      46.7237 
  284000    128.96373   -7150.5203   -6484.7111   -330.92084     102002.7      46.7237      46.7237      46.7237 
  285000    132.34358   -7139.9357   -6456.6772    -614.0999     102002.7      46.7237      46.7237      46.7237 
  286000    130.46047    -7132.482   -6458.9455   -819.38521     102002.7      46.7237      46.7237      46.7237 
  287000     134.7366    -7121.671   -6426.0578   -587.33956     102002.7      46.7237      46.7237      46.7237 
  288000    128.06763   -7121.0209   -6459.8381   -867.26103     102002.7      46.7237      46.7237      46.7237 
  289000    125.90898   -7119.1458   -6469.1076   -480.91866     102002.7      46.7237      46.7237      46.7237 
  290000    131.50007   -7123.0137     -6444.11   -734.16206     102002.7      46.7237      46.7237      46.7237 
  291000    129.53019   -7141.0463   -6472.3126   -1032.1404     102002.7      46.7237      46.7237      46.7237 
  292000    128.15593    -7132.546   -6470.9073    -401.2328     102002.7      46.7237      46.7237      46.7237 
  293000    132.59777   -7117.5156   -6432.9447   -904.52271     102002.7      46.7237      46.7237      46.7237 
  294000    129.59857   -7105.7226   -6436.6359   -933.36976     102002.7      46.7237      46.7237      46.7237 
  295000    131.85564   -7139.5065   -6458.7671   -1022.3009     102002.7      46.7237      46.7237      46.7237 
  296000    128.46947   -7135.2197   -6471.9623   -1048.3735     102002.7      46.7237      46.7237      46.7237 
  297000    129.85096   -7141.1182   -6470.7285   -706.54931     102002.7      46.7237      46.7237      46.7237 
  298000     128.4076   -7126.2478   -6463.3098   -581.87704     102002.7      46.7237      46.7237      46.7237 
  299000     129.8398   -7127.2562    -6456.924   -626.68975     102002.7      46.7237      46.7237      46.7237 
  300000    129.30072   -7149.1387   -6481.5897   -618.27054     102002.7      46.7237      46.7237      46.7237 
  301000    130.33663   -7125.1636   -6452.2664   -606.61195     102002.7      46.7237      46.7237      46.7237 
  302000    132.08107   -7111.2145   -6429.3112   -1242.4712     102002.7      46.7237      46.7237      46.7237 
  303000    130.27255   -7125.7698   -6453.2035   -771.66542     102002.7      46.7237      46.7237      46.7237 
  304000     132.1453   -7135.9505   -6453.7156   -908.27087     102002.7      46.7237      46.7237      46.7237 
  305000    130.72591   -7125.2698   -6450.3629   -820.13388     102002.7      46.7237      46.7237      46.7237 
  306000    128.98609   -7155.8449   -6489.9203   -683.06608     102002.7      46.7237      46.7237      46.7237 
  307000    132.30548   -7113.6889   -6430.6271    -577.8368     102002.7      46.7237      46.7237      46.7237 
  308000    127.77678   -7136.4336   -6476.7523   -954.10681     102002.7      46.7237      46.7237      46.7237 
  309000    131.19228   -7124.3365   -6447.0218   -460.98268     102002.7      46.7237      46.7237      46.7237 
  310000    129.95662   -7134.7983   -6463.8631   -911.07256     102002.7      46.7237      46.7237      46.7237 
  311000    129.03993   -7118.0266    -6451.824   -963.30011     102002.7      46.7237      46.7237      46.7237 
  312000    131.05608   -7137.7626   -6461.1511   -288.50859     102002.7      46.7237      46.7237      46.7237 
  313000    129.99368   -7153.7599   -6482.6334    -1022.016     102002.7      46.7237      46.7237      46.7237 
  314000    130.46326   -7125.3872   -6451.8364   -884.77907     102002.7      46.7237      46.7237      46.7237 
  315000    132.31626   -7132.7448   -6449.6273   -1150.2249     102002.7      46.7237      46.7237      46.7237 
  316000    126.81475   -7121.1968   -6466.4823   -620.00475     102002.7      46.7237      46.7237      46.7237 
  317000    128.33813   -7124.6342   -6462.0548   -602.02833     102002.7      46.7237      46.7237      46.7237 
  318000    135.34755   -7125.3943   -6426.6269   -860.13208     102002.7      46.7237      46.7237      46.7237 
  319000    132.04744      -7129.2   -6447.4704   -671.97733     102002.7      46.7237      46.7237      46.7237 
  320000    123.82854   -7122.8739   -6483.5765   -918.85832     102002.7      46.7237      46.7237      46.7237 
  321000    130.60501   -7129.8514   -6455.5687   -732.82966     102002.7      46.7237      46.7237      46.7237 
  322000    124.85573   -7139.1247   -6494.5241   -626.15557     102002.7      46.7237      46.7237      46.7237 
  323000    134.56535   -7136.4445   -6441.7155     -489.329     102002.7      46.7237      46.7237      46.7237 
  324000    130.06637   -7161.1647   -6489.6629   -595.92777     102002.7      46.7237      46.7237      46.7237 
  325000    134.31395   -7139.3332   -6445.9021   -503.91358     102002.7      46.7237      46.7237      46.7237 
  326000    132.82976   -7125.3395    -6439.571   -649.66707     102002.7      46.7237      46.7237      46.7237 
  327000    129.25563   -7143.9423   -6476.6261   -676.19751     102002.7      46.7237      46.7237      46.7237 
  328000    130.22856   -7117.0166   -6444.6774   -360.71798     102002.7      46.7237      46.7237      46.7237 
  329000    132.50089   -7108.0503   -6423.9796   -781.12948     102002.7      46.7237      46.7237      46.7237 
  330000    128.24805    -7128.115   -6466.0007     -633.054     102002.7      46.7237      46.7237      46.7237 
  331000    130.25946   -7120.8682   -6448.3695   -744.08472     102002.7      46.7237      46.7237      46.7237 
  332000    130.77632   -7109.5747   -6434.4076   -636.53089     102002.7      46.7237      46.7237      46.7237 
  333000    132.54725   -7130.5323   -6446.2222    -533.2141     102002.7      46.7237      46.7237      46.7237 
  334000    125.39926    -7136.909   -6489.5023     -789.446     102002.7      46.7237      46.7237      46.7237 
  335000    130.20359   -7127.0801   -6454.8699   -695.54878     102002.7      46.7237      46.7237      46.7237 
  336000    133.26773   -7130.2917    -6442.262   -750.20429     102002.7      46.7237      46.7237      46.7237 
  337000    125.61278   -7137.7543   -6489.2453   -779.01088     102002.7      46.7237      46.7237      46.7237 
  338000    131.71525   -7121.7726   -6441.7579   -507.73267     102002.7      46.7237      46.7237      46.7237 
  339000    127.29854   -7141.0039   -6483.7917   -595.79949     102002.7      46.7237      46.7237      46.7237 
  340000    130.76191   -7129.6248    -6454.532   -459.06628     102002.7      46.7237      46.7237      46.7237 
  341000    131.42674   -7114.0438   -6435.5187   -740.15715     102002.7      46.7237      46.7237      46.7237 
  342000    132.75442   -7128.6531   -6443.2735   -967.48679     102002.7      46.7237      46.7237      46.7237 
  343000    131.07092   -7140.9557   -6464.2676   -907.46262     102002.7      46.7237      46.7237      46.7237 
  344000    132.14299   -7123.0662   -6440.8433   -682.36089     102002.7      46.7237      46.7237      46.7237 
  345000    128.16142   -7148.4817   -6486.8147   -786.16871     102002.7      46.7237      46.7237      46.7237 
  346000    129.99454   -7138.4176   -6467.2866   -844.52051     102002.7      46.7237      46.7237      46.7237 
  347000     128.7534   -7138.9932   -6474.2699   -757.44293     102002.7      46.7237      46.7237      46.7237 
  348000    129.19255   -7134.8662   -6467.8757    -775.5637     102002.7      46.7237      46.7237      46.7237 
  349000    126.38132   -7131.6223   -6479.1455   -606.37808     102002.7      46.7237      46.7237      46.7237 
  350000    128.82702   -7136.6124   -6471.5091   -913.97748     102002.7      46.7237      46.7237      46.7237 
  351000    134.21301   -7124.8538   -6431.9438   -653.98853     102002.7      46.7237      46.7237      46.7237 
  352000    128.99848   -7145.4078   -6479.4192   -893.91917     102002.7      46.7237      46.7237      46.7237 
  353000    130.42487    -7135.776   -6462.4233   -970.64803     102002.7      46.7237      46.7237      46.7237 
  354000    127.79228   -7113.3948   -6453.6336   -842.14456     102002.7      46.7237      46.7237      46.7237 
  355000    131.11782   -7164.2345   -6487.3043   -874.74767     102002.7      46.7237      46.7237      46.7237 
  356000    129.67261   -7108.6964   -6439.2275   -772.99586     102002.7      46.7237      46.7237      46.7237 
  357000    127.43084   -7128.7394   -6470.8442   -662.78904     102002.7      46.7237      46.7237      46.7237 
  358000    129.52683   -7136.4446   -6467.7283    -646.5712     102002.7      46.7237      46.7237      46.7237 
  359000    130.34381   -7132.6026   -6459.6684   -807.70411     102002.7      46.7237      46.7237      46.7237 
  360000    129.05003   -7130.3558   -6464.1011   -690.60964     102002.7      46.7237      46.7237      46.7237 
  361000    131.34813   -7118.2727   -6440.1535   -982.23294     102002.7      46.7237      46.7237      46.7237 
  362000    130.42714   -7141.4664    -6468.102   -674.92317     102002.7      46.7237      46.7237      46.7237 
  363000    135.71026   -7119.5737   -6418.9338   -779.32811     102002.7      46.7237      46.7237      46.7237 
  364000    127.41808   -7124.3104    -6466.481   -782.33819     102002.7      46.7237      46.7237      46.7237 
  365000     130.3709   -7135.5814   -6462.5073   -643.49441     102002.7      46.7237      46.7237      46.7237 
  366000    132.58878   -7143.8908   -6459.3664   -1091.7313     102002.7      46.7237      46.7237      46.7237 
  367000    127.73951   -7120.7685   -6461.2797   -647.74051     102002.7      46.7237      46.7237      46.7237 
  368000    131.61347   -7128.1196   -6448.6305   -846.91568     102002.7      46.7237      46.7237      46.7237 
  369000    129.62049   -7146.5071   -6477.3072    -937.3597     102002.7      46.7237      46.7237      46.7237 
  370000    132.91066   -7139.6914   -6453.5051   -634.04568     102002.7      46.7237      46.7237      46.7237 
  371000     131.1391   -7125.1338   -6448.0937   -775.59478     102002.7      46.7237      46.7237      46.7237 
  372000    125.44178   -7123.8723   -6476.2462   -654.52008     102002.7      46.7237      46.7237      46.7237 
  373000    127.35833   -7130.0572   -6472.5363   -850.45866     102002.7      46.7237      46.7237      46.7237 
  374000    125.07898   -7134.4099   -6488.6568   -777.57804     102002.7      46.7237      46.7237      46.7237 
  375000    130.00012   -7117.7145   -6446.5547   -588.59715     102002.7      46.7237      46.7237      46.7237 
  376000    128.58493   -7122.1646   -6458.3111   -578.21094     102002.7      46.7237      46.7237      46.7237 
  377000    133.20243    -7119.245   -6431.5525   -807.15145     102002.7      46.7237      46.7237      46.7237 
  378000    127.95071   -7132.4978   -6471.9186   -928.87582     102002.7      46.7237      46.7237      46.7237 
  379000    132.88187    -7115.555   -6429.5174   -744.85499     102002.7      46.7237      46.7237      46.7237 
  380000    130.95836   -7142.0115   -6465.9046   -813.20218     102002.7      46.7237      46.7237      46.7237 
  381000    129.97295   -7112.4597   -6441.4402   -702.93884     102002.7      46.7237      46.7237      46.7237 
  382000    131.04022   -7145.0955   -6468.5659   -990.45766     102002.7      46.7237      46.7237      46.7237 
  383000    131.83015   -7127.6463   -6447.0385   -745.89565     102002.7      46.7237      46.7237      46.7237 
  384000    126.86904    -7144.366   -6489.3713   -670.76671     102002.7      46.7237      46.7237      46.7237 
  385000    128.18033   -7135.8711   -6474.1064   -990.96264     102002.7      46.7237      46.7237      46.7237 
  386000    133.18617   -7125.8023   -6438.1937   -967.73161     102002.7      46.7237      46.7237      46.7237 
  387000    128.03295   -7158.5136   -6497.5098   -1006.3444     102002.7      46.7237      46.7237      46.7237 
  388000    128.43037   -7111.0607   -6448.0051   -839.24303     102002.7      46.7237      46.7237      46.7237 
  389000    133.30649   -7112.5022   -6424.2724   -972.92769     102002.7      46.7237      46.7237      46.7237 
  390000    128.98422   -7134.4667   -6468.5518   -846.83778     102002.7      46.7237      46.7237      46.7237 
  391000    130.53743   -7150.6475   -6476.7137    -763.1297     102002.7      46.7237      46.7237      46.7237 
  392000    129.66886   -7130.7867    -6461.337   -890.45878     102002.7      46.7237      46.7237      46.7237 
  393000     127.4313   -7131.9734   -6474.0758   -927.25281     102002.7      46.7237      46.7237      46.7237 
  394000    130.02521   -7139.5276   -6468.2382   -712.85954     102002.7      46.7237      46.7237      46.7237 
  395000    136.31226   -7114.7905   -6411.0426   -820.06376     102002.7      46.7237      46.7237      46.7237 
  396000    128.64745   -7129.7926   -6465.6163   -1147.1405     102002.7      46.7237      46.7237      46.7237 
  397000    128.70896     -7141.74   -6477.2461   -912.64065     102002.7      46.7237      46.7237      46.7237 
  398000    132.67439    -7122.862   -6437.8956   -676.53623     102002.7      46.7237      46.7237      46.7237 
  399000    132.46323   -7138.2301   -6454.3538   -662.31681     102002.7      46.7237      46.7237      46.7237 
  400000    131.11062    -7141.215    -6464.322   -901.90646     102002.7      46.7237      46.7237      46.7237 
  401000    131.03456    -7140.374   -6463.8736   -633.78192     102002.7      46.7237      46.7237      46.7237 
  402000    128.11125   -7110.8701   -6449.4621   -881.49435     102002.7      46.7237      46.7237      46.7237 
  403000    136.35779   -7140.2526   -6436.2697   -1006.6682     102002.7      46.7237      46.7237      46.7237 
  404000    131.80622   -7148.0304   -6467.5461   -807.94146     102002.7      46.7237      46.7237      46.7237 
  405000    131.29458   -7141.2656   -6463.4228   -825.74647     102002.7      46.7237      46.7237      46.7237 
  406000    130.72488   -7115.4428   -6440.5412   -826.46239     102002.7      46.7237      46.7237      46.7237 
  407000    129.40814   -7136.9531   -6468.8495   -801.44021     102002.7      46.7237      46.7237      46.7237 
  408000    134.00255   -7124.9125   -6433.0891   -882.35703     102002.7      46.7237      46.7237      46.7237 
  409000    129.19219   -7139.1695   -6472.1809    -589.9594     102002.7      46.7237      46.7237      46.7237 
  410000    129.89203   -7147.1696   -6476.5678   -774.35366     102002.7      46.7237      46.7237      46.7237 
  411000    130.50426   -7122.4181   -6448.6556   -631.23197     102002.7      46.7237      46.7237      46.7237 
  412000    131.02541   -7132.4215   -6455.9684   -650.71753     102002.7      46.7237      46.7237      46.7237 
  413000    126.12382   -7126.4009   -6475.2536   -895.90804     102002.7      46.7237      46.7237      46.7237 
  414000    129.06585   -7126.1812   -6459.8448   -811.82055     102002.7      46.7237      46.7237      46.7237 
  415000    130.18673   -7140.0559   -6467.9326   -799.53788     102002.7      46.7237      46.7237      46.7237 
  416000    132.23518   -7128.9296   -6446.2308   -845.10055     102002.7      46.7237      46.7237      46.7237 
  417000     131.5115   -7130.1937   -6451.2309   -769.79293     102002.7      46.7237      46.7237      46.7237 
  418000    129.12654   -7156.6637    -6490.014   -877.87727     102002.7      46.7237      46.7237      46.7237 
  419000    134.39487   -7133.2632   -6439.4144   -1066.6701     102002.7      46.7237      46.7237      46.7237 
  420000    126.43162   -7142.5566   -6489.8202    -824.9217     102002.7      46.7237      46.7237      46.7237 
  421000    129.24648   -7119.0276   -6451.7587   -797.73295     102002.7      46.7237      46.7237      46.7237 
  422000    130.86767   -7155.1079   -6479.4691   -665.63665     102002.7      46.7237      46.7237      46.7237 
  423000     125.9831   -7126.4382   -6476.0173   -1061.3412     102002.7      46.7237      46.7237      46.7237 
  424000    135.01243   -7140.5931   -6443.5559   -862.21236     102002.7      46.7237      46.7237      46.7237 
  425000    132.02636   -7120.0482   -6438.4274   -581.25717     102002.7      46.7237      46.7237      46.7237 
  426000    128.03586   -7133.3056   -6472.2868   -1064.3968     102002.7      46.7237      46.7237      46.7237 
  427000     130.7325   -7117.9321   -6442.9912   -805.25425     102002.7      46.7237      46.7237      46.7237 
  428000     133.3809   -7131.3118   -6442.6978   -889.09903     102002.7      46.7237      46.7237      46.7237 
  429000    129.45364   -7123.8334   -6455.4949    -769.7165     102002.7      46.7237      46.7237      46.7237 
  430000    127.30976   -7132.5849   -6475.3148   -694.27545     102002.7      46.7237      46.7237      46.7237 
  431000    132.27313   -7122.3359    -6439.441   -994.33567     102002.7      46.7237      46.7237      46.7237 
  432000    130.23572   -7137.3077   -6464.9316   -1036.3883     102002.7      46.7237      46.7237      46.7237 
  433000    127.77891   -7127.9844   -6468.2921   -664.95265     102002.7      46.7237      46.7237      46.7237 
  434000     132.2904   -7117.0527   -6434.0687   -1060.1693     102002.7      46.7237      46.7237      46.7237 
  435000    130.38018   -7144.6646   -6471.5426   -550.94613     102002.7      46.7237      46.7237      46.7237 
  436000    132.33747   -7132.0864   -6448.8594   -850.87654     102002.7      46.7237      46.7237      46.7237 
  437000    125.28706   -7125.0603   -6478.2329   -512.54086     102002.7      46.7237      46.7237      46.7237 
  438000    132.63405   -7118.4347   -6433.6766   -730.12623     102002.7      46.7237      46.7237      46.7237 
  439000    134.71067   -7134.6898   -6439.2105   -748.57013     102002.7      46.7237      46.7237      46.7237 
  440000    125.68613   -7127.4418    -6478.554   -635.54088     102002.7      46.7237      46.7237      46.7237 
  441000    129.17172   -7110.5811   -6443.6981   -559.71111     102002.7      46.7237      46.7237      46.7237 
  442000    128.75124   -7123.5317   -6458.8196   -752.16076     102002.7      46.7237      46.7237      46.7237 
  443000    126.41373   -7170.2628   -6517.6186   -924.69037     102002.7      46.7237      46.7237      46.7237 
  444000    132.48047   -7120.7587   -6436.7934   -711.82966     102002.7      46.7237      46.7237      46.7237 
  445000    126.76921   -7126.3661   -6471.8867   -658.97838     102002.7      46.7237      46.7237      46.7237 
  446000    128.51197   -7132.1354   -6468.6586   -879.72634     102002.7      46.7237      46.7237      46.7237 
  447000    131.09982    -7114.314   -6437.4767   -736.49922     102002.7      46.7237      46.7237      46.7237 
  448000    134.18742   -7132.4467   -6439.6689   -814.35154     102002.7      46.7237      46.7237      46.7237 
  449000    133.66684   -7128.0724   -6437.9822   -848.99899     102002.7      46.7237      46.7237      46.7237 
  450000    133.85281   -7117.8322   -6426.7819   -809.25245     102002.7      46.7237      46.7237      46.7237 
  451000    130.05839   -7143.7019   -6472.2412   -718.20156     102002.7      46.7237      46.7237      46.7237 
  452000    131.67302   -7111.3241   -6431.5275   -946.85401     102002.7      46.7237      46.7237      46.7237 
  453000    130.10702   -7149.4293   -6477.7175   -857.09652     102002.7      46.7237      46.7237      46.7237 
  454000    129.70891   -7120.7411   -6451.0847   -904.40395     102002.7      46.7237      46.7237      46.7237 
  455000    130.28773   -7113.6418   -6440.9972   -1194.0418     102002.7      46.7237      46.7237      46.7237 
  456000    128.83742   -7137.3217   -6472.1646   -710.74957     102002.7      46.7237      46.7237      46.7237 
  457000    128.36513   -7146.7603   -6484.0416   -856.81968     102002.7      46.7237      46.7237      46.7237 
  458000    130.02549   -7145.5247   -6474.2339   -865.62562     102002.7      46.7237      46.7237      46.7237 
  459000    132.30217   -7126.8282   -6443.7834   -914.48398     102002.7      46.7237      46.7237      46.7237 
  460000    129.68414   -7136.4918   -6466.9633   -780.14363     102002.7      46.7237      46.7237      46.7237 
  461000    130.60675   -7137.5432   -6463.2516   -827.28608     102002.7      46.7237      46.7237      46.7237 
  462000    132.49315   -7128.5237    -6444.493   -610.26171     102002.7      46.7237      46.7237      46.7237 
  463000    127.20967   -7118.8528   -6462.0994   -672.20383     102002.7      46.7237      46.7237      46.7237 
  464000    132.07284   -7140.3736   -6458.5129   -420.92456     102002.7      46.7237      46.7237      46.7237 
  465000    129.40592   -7142.1123   -6474.0202   -754.62195     102002.7      46.7237      46.7237      46.7237 
  466000    136.15954   -7140.8939   -6437.9344    -516.4884     102002.7      46.7237      46.7237      46.7237 
  467000    128.66823   -7151.6716    -6487.388   -947.11097     102002.7      46.7237      46.7237      46.7237 
  468000    126.92824   -7115.8295   -6460.5291   -765.59623     102002.7      46.7237      46.7237      46.7237 
  469000    133.45766   -7120.4365   -6431.4262     -644.562     102002.7      46.7237      46.7237      46.7237 
  470000    131.01005   -7135.1953   -6458.8215   -766.76148     102002.7      46.7237      46.7237      46.7237 
  471000    129.61657   -7131.6329   -6462.4533    -835.8943     102002.7      46.7237      46.7237      46.7237 
  472000     128.4812   -7151.9361   -6488.6182   -939.42081     102002.7      46.7237      46.7237      46.7237 
  473000    129.93185   -7098.7283   -6427.9209   -894.99816     102002.7      46.7237      46.7237      46.7237 
  474000    128.40655   -7143.0703   -6480.1377   -1171.4817     102002.7      46.7237      46.7237      46.7237 
  475000    132.72482     -7114.03   -6428.8032   -987.06195     102002.7      46.7237      46.7237      46.7237 
  476000    131.96449   -7135.1962   -6453.8948   -958.30212     102002.7      46.7237      46.7237      46.7237 
  477000     129.5332   -7139.3603    -6470.611   -809.27965     102002.7      46.7237      46.7237      46.7237 
  478000    128.90198   -7119.9704     -6454.48   -694.15016     102002.7      46.7237      46.7237      46.7237 
  479000    131.06742   -7130.8661   -6454.1961   -875.64088     102002.7      46.7237      46.7237      46.7237 
  480000    129.71098   -7127.1877   -6457.5207   -916.87279     102002.7      46.7237      46.7237      46.7237 
  481000    132.50665    -7113.306   -6429.2056   -1005.1211     102002.7      46.7237      46.7237      46.7237 
  482000     127.6718   -7125.9125   -6466.7733   -1055.0015     102002.7      46.7237      46.7237      46.7237 
  483000    127.68923   -7124.8029   -6465.5737   -908.71638     102002.7      46.7237      46.7237      46.7237 
  484000    130.33758   -7123.2253   -6450.3232   -1012.3711     102002.7      46.7237      46.7237      46.7237 
  485000      130.189   -7161.2664   -6489.1314   -1050.5972     102002.7      46.7237      46.7237      46.7237 
  486000    128.85885   -7125.2875   -6460.0197   -894.78719     102002.7      46.7237      46.7237      46.7237 
  487000    129.26698   -7164.6978    -6497.323   -1093.0131     102002.7      46.7237      46.7237      46.7237 
  488000    127.02224   -7132.7468   -6476.9611   -708.92234     102002.7      46.7237      46.7237      46.7237 
  489000    124.98486   -7118.4783   -6473.2111   -811.34419     102002.7      46.7237      46.7237      46.7237 
  490000    125.75321   -7133.5907   -6484.3566   -772.95206     102002.7      46.7237      46.7237      46.7237 
  491000    129.27963    -7118.249   -6450.8089    -850.5845     102002.7      46.7237      46.7237      46.7237 
  492000    124.28051   -7147.2611   -6505.6302   -972.26486     102002.7      46.7237      46.7237      46.7237 
  493000    130.31028   -7131.0842   -6458.3231     -882.916     102002.7      46.7237      46.7237      46.7237 
  494000    133.96396   -7133.6012   -6441.9771   -731.74085     102002.7      46.7237      46.7237      46.7237 
  495000    128.81364   -7160.7717   -6495.7375   -1096.2502     102002.7      46.7237      46.7237      46.7237 
  496000    133.51151   -7134.9142   -6445.6259   -739.21679     102002.7      46.7237      46.7237      46.7237 
  497000    132.39049   -7132.4368   -6448.9361   -702.50232     102002.7      46.7237      46.7237      46.7237 
  498000    131.12664   -7144.8974   -6467.9216   -852.92769     102002.7      46.7237      46.7237      46.7237 
  499000    128.91969   -7124.2387   -6458.6569   -542.29738     102002.7      46.7237      46.7237      46.7237 
  500000    135.76769   -7141.1043   -6440.1679   -1023.4733     102002.7      46.7237      46.7237      46.7237 
  500506    133.08315   -7107.5171   -6420.4403   -863.87387     102002.7      46.7237      46.7237      46.7237 
Loop time of 1287.87 on 16 procs for 500000 steps with 1733 atoms

Performance: 33.544 ns/day, 0.715 hours/ns, 388.239 timesteps/s
99.8% CPU use with 16 MPI tasks x no OpenMP threads

MPI task timing breakdown:
Section |  min time  |  avg time  |  max time  |%varavg| %total
---------------------------------------------------------------
Pair    | 488.95     | 685.06     | 858.21     | 483.6 | 53.19
Bond    | 167.55     | 173.96     | 180.39     |  29.3 | 13.51
Neigh   | 4.0304     | 4.0483     | 4.0602     |   0.5 |  0.31
Comm    | 235.06     | 411.87     | 611.95     | 634.2 | 31.98
Output  | 0.019922   | 0.020255   | 0.022925   |   0.5 |  0.00
Modify  | 7.0589     | 7.793      | 8.3828     |  17.9 |  0.61
Other   |            | 5.105      |            |       |  0.40

Nlocal:    108.312 ave 139 max 90 min
Histogram: 2 2 4 2 1 1 1 2 0 1
Nghost:    2203.69 ave 2229 max 2170 min
Histogram: 1 0 2 1 2 2 3 1 3 1
Neighs:    11443.8 ave 16570 max 7182 min
Histogram: 3 2 1 1 2 1 1 3 1 1

Total # of neighbors = 183100
Ave neighs/atom = 105.655
Ave special neighs/atom = 6.64743
Neighbor list builds = 3497
Dangerous builds = 0
Neighbor list info ...
  update every 1 steps, delay 10 steps, check yes
  max neighbors/atom: 2000, page size: 100000
  master list distance cutoff = 16
  ghost atom cutoff = 16
  binsize = 8, bins = 6 6 6
  3 neighbor lists, perpetual/occasional/extra = 3 0 0
  (1) pair buck6d/coul/gauss/dsf, perpetual, skip from (3)
      attributes: half, newton on
      pair build: skip
      stencil: none
      bin: none
  (2) pair lj/cut, perpetual, skip from (3)
      attributes: half, newton on
      pair build: skip
      stencil: none
      bin: none
  (3) neighbor class addition, perpetual
      attributes: half, newton on
      pair build: half/bin/newton
      stencil: half/bin/3d/newton
      bin: standard
Setting up Verlet run ...
  Unit style    : real
  Current step  : 500506
  Time step     : 1
WARNING: Inconsistent image flags (../domain.cpp:786)
Per MPI rank memory allocation (min/avg/max) = 23.07 | 23.32 | 23.33 Mbytes
Step Time TotEng KinEng PotEng E_mol E_pair Temp Pxx Pyy Pzz Pxy Pxz Pyz Cella Cellb Cellc CellAlpha CellBeta CellGamma Volume Press 
  500506       500000   -6420.4403    687.07679   -7107.5171    4450.4345   -11557.952    133.08315   -822.85357   -1006.4263   -762.34174   -158.89007    -161.1813    22.652726      46.7237      46.7237      46.7237           90           90           90     102002.7   -863.87387 
  501000       500494   -6437.7356    675.24109   -7112.9767    4441.2879   -11554.265    130.79064   -429.92817    -927.5269   -1497.0965   -8.6130856    100.68038     186.4036      46.7237      46.7237      46.7237           90           90           90     102002.7   -951.51718 
  502000       501494   -6465.0473    665.12155   -7130.1689    4408.1958   -11538.365    128.83054   -1112.8977   -1043.0382   -1062.9769    146.32021    179.55721    1.1287777      46.7237      46.7237      46.7237           90           90           90     102002.7   -1072.9709 
  503000       502494   -6443.1147    679.11281   -7122.2275    4427.1372   -11549.365    131.54058   -820.87163    -508.9265   -906.89365    381.01182    345.47837    22.027351      46.7237      46.7237      46.7237           90           90           90     102002.7   -745.56393 
  504000       503494   -6489.8336    660.31265   -7150.1462    4406.6611   -11556.807    127.89908    -626.8398   -949.12662   -1125.6507   -145.61183    139.66566    70.265892      46.7237      46.7237      46.7237           90           90           90     102002.7   -900.53903 
  505000       504494   -6451.2904    674.12803   -7125.4185    4424.0975   -11549.516    130.57505   -655.49909   -1280.5099   -912.63983    127.43496    59.390468    186.58403      46.7237      46.7237      46.7237           90           90           90     102002.7   -949.54962 
  506000       505494   -6460.0835    671.95292   -7132.0364    4418.5113   -11550.548    130.15374   -1170.4882   -284.95493   -727.75198     154.4784    188.93963    293.03414      46.7237      46.7237      46.7237           90           90           90     102002.7   -727.73171 
  507000       506494   -6446.5961    674.69066   -7121.2868    4433.7349   -11555.022    130.68403   -663.52956   -1185.0776    -784.3758    241.80031    259.59826   -149.46391      46.7237      46.7237      46.7237           90           90           90     102002.7     -877.661 
  508000       507494   -6448.6154    692.81067    -7141.426    4418.5678   -11559.994    134.19378   -448.17755     -641.726   -583.53116   -299.10218   -68.806331    167.00356      46.7237      46.7237      46.7237           90           90           90     102002.7   -557.81157 
  509000       508494   -6470.4931    673.56692     -7144.06    4391.1509   -11535.211    130.46636   -785.97913   -363.44742   -558.73911   -167.95134    -223.2624   -26.269169      46.7237      46.7237      46.7237           90           90           90     102002.7   -569.38855 
  510000       509494   -6437.6797    686.58674   -7124.2664    4429.5839    -11553.85    132.98824   -652.31496   -497.71866   -1085.2338    204.42105    156.05423     100.3433      46.7237      46.7237      46.7237           90           90           90     102002.7   -745.08914 
  511000       510494   -6459.4082    671.47488   -7130.8831    4416.2757   -11547.159    130.06115   -450.53249   -706.27177   -1123.3733    117.69733   -209.13296    163.08995      46.7237      46.7237      46.7237           90           90           90     102002.7   -760.05918 
  512000       511494   -6483.7947    669.17425   -7152.9689    4406.2384   -11559.207    129.61553   -659.07217    -1057.538   -906.78759   -21.733865    94.006111   -106.86126      46.7237      46.7237      46.7237           90           90           90     102002.7   -874.46591 
  513000       512494   -6442.2995    688.68605   -7130.9855     4415.513   -11546.498    133.39486   -347.40502    -1019.161    -696.3577    4.0352932    129.16029    182.47198      46.7237      46.7237      46.7237           90           90           90     102002.7   -687.64123 
  514000       513494   -6469.5991    664.20339   -7133.8025    4422.1891   -11555.992     128.6527   -1010.9095   -578.70834   -907.28243    44.980598   -65.924134   -17.597952      46.7237      46.7237      46.7237           90           90           90     102002.7   -832.30008 
  515000       514494   -6454.2998    674.53397   -7128.8337    4429.1953   -11558.029    130.65368   -630.35072    -903.2349   -908.06458    217.78254  -0.21505309    146.76982      46.7237      46.7237      46.7237           90           90           90     102002.7    -813.8834 
  516000       515494   -6453.9477    696.13852   -7150.0862    4415.3726   -11565.459    134.83836   -811.30036   -1206.9847   -751.21088   -122.59717    65.714653   -113.61337      46.7237      46.7237      46.7237           90           90           90     102002.7   -923.16531 
  517000       516494   -6472.1306    651.79885   -7123.9294    4420.0003    -11543.93       126.25   -572.44043   -1263.0013   -493.97677     105.7367   -69.370532   -8.2392266      46.7237      46.7237      46.7237           90           90           90     102002.7   -776.47283 
  518000       517494   -6443.5576      654.443   -7098.0006    4458.3728   -11556.373    126.76216   -1030.8223   -773.19275   -1068.2388   -81.502169   -87.419309   -175.95459      46.7237      46.7237      46.7237           90           90           90     102002.7   -957.41793 
  519000       518494   -6448.6953    664.83753   -7113.5328    4452.8847   -11566.417    128.77553   -1043.2938   -779.27333   -818.44696    36.251805    -197.4819    -216.3175      46.7237      46.7237      46.7237           90           90           90     102002.7   -880.33801 
  520000       519494    -6491.989    644.91478   -7136.9038    4406.1511   -11543.055     124.9166   -418.11641   -774.12529   -525.60509    21.199703   -239.95015   -112.49271      46.7237      46.7237      46.7237           90           90           90     102002.7    -572.6156 
  521000       520494   -6460.1512    659.62206   -7119.7733    4439.4431   -11559.216    127.76532   -916.97634   -714.44055   -916.12839    230.24763    140.90271   -78.888644      46.7237      46.7237      46.7237           90           90           90     102002.7   -849.18176 
  522000       521494   -6456.6181    668.69941   -7125.3175    4438.1244   -11563.442    129.52355   -837.95473   -634.42472   -349.44766     93.83691   -181.83789    204.47131      46.7237      46.7237      46.7237           90           90           90     102002.7   -607.27571 
  523000       522494   -6455.1666     676.5392   -7131.7057    4414.3255   -11546.031    131.04208   -449.12811    -954.9405   -391.53378    283.85966   -272.42226    55.908806      46.7237      46.7237      46.7237           90           90           90     102002.7   -598.53413 
  524000       523494   -6463.0883    660.00956   -7123.0978    4435.6423    -11558.74    127.84038   -773.70875   -839.70268   -782.76056   -201.44761   -320.55564    93.010692      46.7237      46.7237      46.7237           90           90           90     102002.7     -798.724 
  525000       524494   -6457.4639    666.55254   -7124.0164    4429.2067   -11553.223    129.10772   -994.79545   -685.37892   -1236.9505    -26.12094    -202.3514    103.86579      46.7237      46.7237      46.7237           90           90           90     102002.7   -972.37494 
  526000       525494   -6435.0947     688.6074   -7123.7021    4430.6595   -11554.362    133.37963   -899.88667   -1020.1779   -778.23188    98.455948    48.717289   -119.24352      46.7237      46.7237      46.7237           90           90           90     102002.7   -899.43214 
  527000       526494   -6454.2504    688.19889   -7142.4493    4394.6156   -11537.065     133.3005   -342.42514   -436.42425   -757.99279   -119.34554   -38.256181   -79.027814      46.7237      46.7237      46.7237           90           90           90     102002.7   -512.28073 
  528000       527494    -6473.006    673.11305   -7146.1191    4413.3985   -11559.518    130.37845   -511.59689   -451.90146   -1046.1835   -19.029108   -193.72719    181.57671      46.7237      46.7237      46.7237           90           90           90     102002.7   -669.89393 
  529000       528494   -6467.9904    663.68301   -7131.6735    4424.2194   -11555.893     128.5519   -791.15086   -642.48717   -718.15617   -24.059925   -50.825966    104.74336      46.7237      46.7237      46.7237           90           90           90     102002.7   -717.26473 
  530000       529494    -6458.859     659.0297   -7117.8887    4427.6177   -11545.506    127.65058   -773.85471   -938.69922   -390.83009    45.878125    85.686984    162.97688      46.7237      46.7237      46.7237           90           90           90     102002.7   -701.12801 
  531000       530494    -6481.191    652.44663   -7133.6376    4424.8889   -11558.527    126.37548   -682.30044   -262.99853   -1155.5878   -33.365336    291.60604    114.47833      46.7237      46.7237      46.7237           90           90           90     102002.7   -700.29559 
  532000       531494   -6422.6441    686.79997    -7109.444    4426.8758    -11536.32    133.02954   -513.29032   -556.52068   -592.23108    217.10123   -91.888123    266.24228      46.7237      46.7237      46.7237           90           90           90     102002.7   -554.01403 
  533000       532494   -6454.7678    667.38235   -7122.1502    4444.1187   -11566.269    129.26845   -907.43075   -1157.6884   -790.93578    -245.5938    4.8817641   -169.06234      46.7237      46.7237      46.7237           90           90           90     102002.7   -952.01831 
  534000       533494   -6456.9984    683.09232   -7140.0907    4421.4116   -11561.502    132.31138   -972.36194   -585.69958   -1139.8782    187.81147   -51.335489    283.74664      46.7237      46.7237      46.7237           90           90           90     102002.7   -899.31323 
  535000       534494   -6449.2786    680.17694   -7129.4556    4426.5007   -11555.956    131.74669   -619.73509   -981.38707   -1211.2305    31.672549    22.115181   -61.606294      46.7237      46.7237      46.7237           90           90           90     102002.7    -937.4509 
  536000       535494   -6479.2861    670.12972   -7149.4158    4429.4762   -11578.892     129.8006   -425.54602   -1298.1012   -787.80746    49.787648   -76.355965   -55.088557      46.7237      46.7237      46.7237           90           90           90     102002.7   -837.15156 
  537000       536494   -6457.6518    682.63392   -7140.2857     4411.104    -11551.39    132.22259   -1392.6812   -748.10387   -1067.3224   -13.081362   -128.08495   -155.77983      46.7237      46.7237      46.7237           90           90           90     102002.7   -1069.3692 
  538000       537494    -6463.304     674.9071   -7138.2111    4428.2519   -11566.463    130.72595   -577.80636   -1167.2189     -689.657   -35.679853   -20.855532    111.08038      46.7237      46.7237      46.7237           90           90           90     102002.7   -811.56075 
  539000       538494   -6474.4805      655.618   -7130.0985    4423.8151   -11553.914    126.98975   -775.08654   -1146.2116   -695.89511    31.184066   -91.511707   -273.28838      46.7237      46.7237      46.7237           90           90           90     102002.7   -872.39775 
  540000       539494    -6451.906     670.7233   -7122.6293    4421.4905    -11544.12    129.91557   -1024.3919   -1066.2218   -819.26433    82.936914   -17.052471   -297.83417      46.7237      46.7237      46.7237           90           90           90     102002.7   -969.95935 
  541000       540494     -6465.68    675.72476   -7141.4048    4424.7315   -11566.136    130.88433   -434.85402   -1207.8954   -308.19961   -385.45275   -5.9822068   -10.872625      46.7237      46.7237      46.7237           90           90           90     102002.7   -650.31633 
  542000       541494   -6491.3858    642.59089   -7133.9766    4413.3661   -11547.343    124.46647   -961.65279   -924.80868   -850.72431   -227.68114    60.033834    413.94965      46.7237      46.7237      46.7237           90           90           90     102002.7   -912.39526 
  543000       542494    -6459.215    674.02591   -7133.2409    4422.3483   -11555.589    130.55527   -505.82062   -951.77273   -671.42671     -230.884    -3.907413   -220.02471      46.7237      46.7237      46.7237           90           90           90     102002.7   -709.67336 
  544000       543494   -6435.4774     671.1335   -7106.6109    4447.4372   -11554.048    129.99502    -1261.719   -990.93863   -1045.8242    31.259306   -117.44253   -100.46144      46.7237      46.7237      46.7237           90           90           90     102002.7   -1099.4939 
  545000       544494   -6448.2415    670.94918   -7119.1907     4424.424   -11543.615    129.95932   -1152.1452    -893.4256   -1078.5404   -66.599597   -9.4601145    179.69381      46.7237      46.7237      46.7237           90           90           90     102002.7   -1041.3704 
  546000       545494   -6442.3915    670.24871   -7112.6402    4453.1918   -11565.832    129.82365    -808.1875   -1122.0806   -724.79618    260.97441   -304.15463    237.60333      46.7237      46.7237      46.7237           90           90           90     102002.7   -885.02141 
  547000       546494   -6469.5764    671.36993   -7140.9463    4421.3124   -11562.259    130.04082   -977.38658   -828.59778   -1299.8056    121.32446   -122.25191    217.31141      46.7237      46.7237      46.7237           90           90           90     102002.7   -1035.2633 
  548000       547494   -6464.9665    662.66905   -7127.6356    4417.3923   -11545.028     128.3555   -712.46579   -849.94537   -1082.4963   -58.156542    107.21679   -46.888483      46.7237      46.7237      46.7237           90           90           90     102002.7   -881.63583 
  549000       548494   -6470.6034    656.69913   -7127.3025    4436.6774    -11563.98    127.19916   -1053.1543   -1008.7563   -742.85966    187.87558   -102.95724   -18.258426      46.7237      46.7237      46.7237           90           90           90     102002.7   -934.92342 
  550000       549494   -6437.0923    684.67844   -7121.7707    4432.8581   -11554.629    132.61861   -1134.1604   -559.44572   -1000.6922    187.33436   -378.03135     6.394475      46.7237      46.7237      46.7237           90           90           90     102002.7   -898.09944 
  551000       550494   -6457.5215    676.48407   -7134.0056    4413.0513   -11547.057     131.0314    -674.9217   -393.10436    -609.4774   -62.149614    121.23988    83.411352      46.7237      46.7237      46.7237           90           90           90     102002.7   -559.16782 
  552000       551494   -6472.0585    671.21897   -7143.2774    4414.8097   -11558.087    130.01158    -1420.754   -932.04152   -1331.3707    141.03211   -80.698359   0.71801431      46.7237      46.7237      46.7237           90           90           90     102002.7   -1228.0554 
  553000       552494    -6439.629    691.45068   -7131.0797    4428.4127   -11559.492    133.93035   -1186.7374   -443.95453   -458.16593   0.90781989   -458.12764    87.247612      46.7237      46.7237      46.7237           90           90           90     102002.7   -696.28596 
  554000       553494   -6471.7002    663.89073   -7135.5909    4429.5068   -11565.098    128.59214   -884.37216   -663.93206    -1012.509   -260.89275   -130.82202   -50.656332      46.7237      46.7237      46.7237           90           90           90     102002.7    -853.6044 
  555000       554494     -6451.35    677.00961   -7128.3596    4423.4182   -11551.778     131.1332   -614.13143   -652.71413   -788.11889    -78.95546   -132.80712    159.56738      46.7237      46.7237      46.7237           90           90           90     102002.7   -684.98815 
[...]
  936000       935494   -6436.3989    679.16806    -7115.567    4463.4324   -11578.999    131.55128   -698.29364    -844.7137   -1134.3018    70.274646    -241.8613    345.35602      46.7237      46.7237      46.7237           90           90           90     102002.7   -892.43639 
  937000       936494    -6451.977    684.05757   -7136.0345    4395.7491   -11531.784    132.49835   -583.96586   -574.67845   -822.28187   -86.178639   -368.82125    173.81641      46.7237      46.7237      46.7237           90           90           90     102002.7   -660.30873 
  938000       937494   -6478.8834    665.87074   -7144.7542    4416.1685   -11560.923    128.97566   -671.35101   -747.47361   -612.25637   -30.541177    184.54458   -55.944076      46.7237      46.7237      46.7237           90           90           90     102002.7     -677.027 
  939000       938494   -6459.9575    681.66748    -7141.625    4411.5556   -11553.181     132.0354   -765.95296   -526.43614   -927.50725    151.78554   -23.597103    79.431272      46.7237      46.7237      46.7237           90           90           90     102002.7   -739.96545 
  940000       939494   -6428.0963    683.45269    -7111.549    4449.5219   -11561.071    132.38119    -677.5431   -618.77157   -617.58453    237.73915    68.875868   -106.30667      46.7237      46.7237      46.7237           90           90           90     102002.7    -637.9664 
  941000       940494    -6467.826    672.63369   -7140.4597    4407.4223   -11547.882     130.2856   -612.71509   -1238.2371   -406.33836   -181.95439    -26.05865    87.438306      46.7237      46.7237      46.7237           90           90           90     102002.7   -752.43017 
  942000       941494    -6488.222    650.65259   -7138.8746    4403.7293   -11542.604    126.02798   -867.29976   -731.74838   -804.20491    50.005986    522.47044     59.60023      46.7237      46.7237      46.7237           90           90           90     102002.7   -801.08435 
  943000       942494   -6461.7361    657.25445   -7118.9906    4437.1706   -11556.161    127.30672   -272.53126   -395.63436   -546.12569    132.11981    216.01151   -27.923936      46.7237      46.7237      46.7237           90           90           90     102002.7   -404.76377 
  944000       943494   -6412.4683    678.21659   -7090.6849    4475.4819   -11566.167    131.36698   -730.87273    -1242.756   -742.39456    -59.07542   -66.404293    50.154484      46.7237      46.7237      46.7237           90           90           90     102002.7   -905.34111 
  945000       944494   -6458.0828    677.97197   -7136.0548    4421.7756    -11557.83     131.3196   -483.76534   -690.29159   -677.00254    24.622725    207.31124   -280.92331      46.7237      46.7237      46.7237           90           90           90     102002.7   -617.01982 
  946000       945494   -6437.4861    677.36592    -7114.852    4443.9358   -11558.788    131.20221   -389.67346   -492.50485   -852.41342    26.562673   -73.793638    74.656722      46.7237      46.7237      46.7237           90           90           90     102002.7   -578.19724 
  947000       946494   -6469.6823    652.73488   -7122.4172    4434.8843   -11557.301    126.43131   -791.85291   -719.87105   -428.38841    188.15096    102.07509    181.09171      46.7237      46.7237      46.7237           90           90           90     102002.7   -646.70412 
  948000       947494   -6452.1826    680.19027   -7132.3729    4431.6925   -11564.065    131.74927   -1188.4141   -618.10068   -671.54331     221.8599    170.59284   -68.551437      46.7237      46.7237      46.7237           90           90           90     102002.7   -826.01937 
  949000       948494   -6461.3579    672.16558   -7133.5235    4427.6812   -11561.205    130.19493   -547.60505   -583.76709   -890.70561    4.1549936    103.24211    187.13084      46.7237      46.7237      46.7237           90           90           90     102002.7   -674.02592 
  950000       949494   -6436.1259    692.86529   -7128.9912    4428.0274   -11557.019    134.20436   -559.35755   -709.05091   -1175.9075     67.00495   -33.483263    166.13528      46.7237      46.7237      46.7237           90           90           90     102002.7   -814.77199 
  951000       950494   -6481.3354    665.33252   -7146.6679    4383.6779   -11530.346     128.8714   -663.33497   -1131.4551   -561.59299   -288.75377   -127.70364   -102.67227      46.7237      46.7237      46.7237           90           90           90     102002.7   -785.46103 
  952000       951494   -6450.7006     662.2439   -7112.9445    4431.5081   -11544.453    128.27316   -213.15386   -643.83297   -413.44986    193.50092    18.085423   -322.68583      46.7237      46.7237      46.7237           90           90           90     102002.7    -423.4789 
  953000       952494   -6458.0838    670.17905   -7128.2629    4420.7039   -11548.967    129.81015   -779.20419   -1125.0197   -901.77988    102.80749   -73.798224   -229.53956      46.7237      46.7237      46.7237           90           90           90     102002.7   -935.33458 
  954000       953494   -6455.5986    666.99878   -7122.5974    4441.9604   -11564.558    129.19415   -518.04907   -1092.5113   -381.23919     10.27715   -220.37062     171.4306      46.7237      46.7237      46.7237           90           90           90     102002.7   -663.93319 
  955000       954494   -6448.9999    685.23233   -7134.2323    4414.6767   -11548.909    132.72589   -960.56269   -1164.2056    -918.1482    19.594018   -38.805223    155.36098      46.7237      46.7237      46.7237           90           90           90     102002.7   -1014.3055 
  956000       955494   -6437.3637    671.41458   -7108.7783    4444.9821    -11553.76    130.04947   -816.75525    -749.5094   -460.95482    46.020002   -115.06727    6.7648992      46.7237      46.7237      46.7237           90           90           90     102002.7   -675.73982 
  957000       956494   -6463.5822    676.89623   -7140.4784    4402.1012    -11542.58    131.11123   -647.22231   -844.06007   -931.11836    -215.1012   -223.53972   -139.99939      46.7237      46.7237      46.7237           90           90           90     102002.7   -807.46691 
  958000       957494   -6440.4241     691.0357   -7131.4598    4425.7652   -11557.225    133.84998   -784.59784   -839.99714   -911.34233    49.171914    30.871872    11.092032      46.7237      46.7237      46.7237           90           90           90     102002.7   -845.31244 
  959000       958494   -6457.4916    676.36094   -7133.8526    4414.4586   -11548.311    131.00755   -746.27373   -767.58446   -1021.0477    104.60412    168.67473   -110.86228      46.7237      46.7237      46.7237           90           90           90     102002.7   -844.96862 
  960000       959494   -6471.8286    673.28518   -7145.1138    4416.2468   -11561.361    130.41179   -649.14083   -1275.1509   -890.97748   -54.666502   -50.110064   -37.274841      46.7237      46.7237      46.7237           90           90           90     102002.7   -938.42306 
  961000       960494   -6462.3936    668.72731   -7131.1209    4402.2906   -11533.412    129.52896   -341.99993   -453.84451   -739.23097    45.046982     189.3985   -9.8694583      46.7237      46.7237      46.7237           90           90           90     102002.7   -511.69181 
  962000       961494    -6431.996    664.85598    -7096.852    4465.2462   -11562.098     128.7791   -752.45279   -470.94191   -920.77604   -44.570735   -103.80535   -129.89724      46.7237      46.7237      46.7237           90           90           90     102002.7   -714.72358 
  963000       962494   -6470.1756    677.89766   -7148.0733    4393.9009   -11541.974    131.30521   -722.61829   -1460.1024   -512.46562    194.55341    168.71688    132.30702      46.7237      46.7237      46.7237           90           90           90     102002.7   -898.39545 
  964000       963494    -6447.223    671.08418   -7118.3071    4448.1475   -11566.455    129.98547   -807.97514   -535.45813   -379.17165    -166.4775    182.92571    184.82626      46.7237      46.7237      46.7237           90           90           90     102002.7   -574.20164 
  965000       964494   -6478.1537    660.18173   -7138.3354    4398.6494   -11536.985    127.87372   -586.42673   -457.65617   -710.04246   -335.47485    239.19293    116.59992      46.7237      46.7237      46.7237           90           90           90     102002.7   -584.70845 
  966000       965494   -6450.5907     653.8127   -7104.4034    4454.4357   -11558.839    126.64008   -732.79756   -439.87982   -1218.6981    383.27444    -64.31874   -121.11335      46.7237      46.7237      46.7237           90           90           90     102002.7   -797.12514 
  967000       966494    -6498.593    660.87998    -7159.473    4356.7835   -11516.256    128.00897   -424.79159   -970.54858    -605.0365   -25.030962   -8.0294111    267.44257      46.7237      46.7237      46.7237           90           90           90     102002.7   -666.79222 
  968000       967494   -6456.9818    676.06554   -7133.0474    4433.4529     -11566.5    130.95033   -677.11008    -774.7372   -1020.2286     92.92238   -149.60392    181.39262      46.7237      46.7237      46.7237           90           90           90     102002.7    -824.0253 
  969000       968494    -6440.124    677.66843   -7117.7924    4426.1011   -11543.893    131.26081   -534.19799   -175.99247   -1177.3779    45.882394    254.76121    154.53727      46.7237      46.7237      46.7237           90           90           90     102002.7   -629.18945 
  970000       969494   -6446.3555    680.48008   -7126.8356     4428.335   -11555.171    131.80541   -680.76572   -1050.4681   -466.38562    324.85491    121.67874   -72.726432      46.7237      46.7237      46.7237           90           90           90     102002.7    -732.5398 
  971000       970494   -6468.0644    659.55352   -7127.6179    4428.9868   -11556.605    127.75204   -640.86085   -1097.7072   -1078.3127    -157.4812   -152.10014    94.779528      46.7237      46.7237      46.7237           90           90           90     102002.7   -938.96023 
  972000       971494   -6456.3014    664.24594   -7120.5473    4442.1591   -11562.706    128.66094   -1402.2845    -192.1882   -894.86288    164.09936     214.3193    132.60703      46.7237      46.7237      46.7237           90           90           90     102002.7   -829.77853 
  973000       972494   -6448.4173    661.59837   -7110.0157    4453.6335   -11563.649    128.14812   -583.60052    -970.6016   -576.79229     161.7596    84.924111   -112.05482      46.7237      46.7237      46.7237           90           90           90     102002.7   -710.33147 
  974000       973494   -6446.8259    683.51263   -7130.3385    4436.7374   -11567.076     132.3928   -572.21541   -478.77124   -456.36375   -17.983248   -159.38497    33.753561      46.7237      46.7237      46.7237           90           90           90     102002.7   -502.45013 
  975000       974494   -6466.0857    681.21601   -7147.3017    4394.0306   -11541.332    131.94795   -875.46267   -432.57128   -847.48999   -34.146627    224.68886    24.975402      46.7237      46.7237      46.7237           90           90           90     102002.7   -718.50798 
  976000       975494   -6481.6451    664.72394   -7146.3691    4418.2223   -11564.591    128.75352   -485.23431   -596.94159   -284.41185    49.616696   -132.95118   -228.01622      46.7237      46.7237      46.7237           90           90           90     102002.7   -455.52925 
  977000       976494   -6435.9686    688.23382   -7124.2024    4425.1488   -11549.351    133.30727    -123.9129   -993.66957   -949.22316    250.61831    -28.87437    94.677442      46.7237      46.7237      46.7237           90           90           90     102002.7   -688.93521 
  978000       977494    -6465.232    662.87832   -7128.1103     4429.596   -11557.706    128.39604   -1015.1792   -809.42583     -833.692   -17.622532   -129.84175    285.92936      46.7237      46.7237      46.7237           90           90           90     102002.7   -886.09901 
  979000       978494   -6479.5171    661.35128   -7140.8683    4404.2703   -11545.139    128.10026   -662.54534   -871.78125   -645.31986    -128.4098    42.829727   -149.74912      46.7237      46.7237      46.7237           90           90           90     102002.7   -726.54882 
  980000       979494   -6456.5496    670.80291   -7127.3525    4426.1385   -11553.491    129.93099   -605.41002   -798.61004   -996.65723    90.342505    108.12674    151.74504      46.7237      46.7237      46.7237           90           90           90     102002.7   -800.22576 
  981000       980494   -6462.4618    671.45054   -7133.9123    4400.9815   -11534.894    130.05643   -803.32408   -603.47942   -854.70941   -287.80947   -121.49965    50.170262      46.7237      46.7237      46.7237           90           90           90     102002.7   -753.83764 
  982000       981494   -6459.3618    676.70214   -7136.0639    4419.0368   -11555.101    131.07364   -915.13392   -744.70854   -930.69686    134.02156      168.531   -66.552457      46.7237      46.7237      46.7237           90           90           90     102002.7   -863.51311 
  983000       982494    -6436.438    677.87898    -7114.317    4421.6528    -11535.97    131.30159   -849.09171   -647.10698   -629.67123   -7.8162355    55.638726    227.60732      46.7237      46.7237      46.7237           90           90           90     102002.7   -708.62331 
  984000       983494   -6478.5021    659.86272   -7138.3648    4427.3289   -11565.694    127.81193   -793.69317   -659.51317   -1207.2325    152.19764   -105.97912    287.71684      46.7237      46.7237      46.7237           90           90           90     102002.7   -886.81294 
  985000       984494   -6469.4893    646.39299   -7115.8823     4427.156   -11543.038    125.20292   -894.36905   -649.08479   -1125.5233    -180.0596    -178.6131    71.714391      46.7237      46.7237      46.7237           90           90           90     102002.7   -889.65906 
  986000       985494   -6443.9157    685.28787   -7129.2036    4411.9986   -11541.202    132.73665    73.062781   -827.45357   -681.04376    60.990719    101.93541    77.507073      46.7237      46.7237      46.7237           90           90           90     102002.7   -478.47818 
  987000       986494   -6425.1672    677.76135   -7102.9285    4444.0804   -11547.009     131.2788   -523.77983   -1137.6215   -939.93917   -41.370332   -27.615239    144.93238      46.7237      46.7237      46.7237           90           90           90     102002.7   -867.11351 
  988000       987494   -6463.0153    672.47197   -7135.4873    4427.3564   -11562.844    130.25428   -299.28176   -371.85803   -873.77186    24.384991   -3.7517425    35.731945      46.7237      46.7237      46.7237           90           90           90     102002.7   -514.97055 
  989000       988494   -6452.2779    669.24541   -7121.5233     4428.536   -11550.059    129.62931   -728.43606   -1287.0113   -676.37255   -64.621182   -148.58661   -339.50143      46.7237      46.7237      46.7237           90           90           90     102002.7    -897.2733 
  990000       989494   -6443.8529    669.43892   -7113.2918    4452.6655   -11565.957    129.66679   -709.48085    -1097.437   -681.60043   -324.58977   -69.418423     250.5487      46.7237      46.7237      46.7237           90           90           90     102002.7   -829.50609 
  991000       990494    -6438.567     685.1686   -7123.7356    4422.3674   -11546.103    132.71355   -1021.9755   -163.61135   -573.03855      -4.2542   -192.17334   -43.595201      46.7237      46.7237      46.7237           90           90           90     102002.7   -586.20845 
  992000       991494   -6462.7987    654.20327    -7117.002    4421.1496   -11538.152    126.71573   -473.62934   -760.13292   -771.29448    334.59441    112.97267   -22.608141      46.7237      46.7237      46.7237           90           90           90     102002.7   -668.35225 
  993000       992494   -6458.9938    659.16011   -7118.1539    4450.1713   -11568.325    127.67584   -1069.9256   -1076.6477   -565.32102    155.98226    434.77882    381.67867      46.7237      46.7237      46.7237           90           90           90     102002.7   -903.96478 
  994000       993494   -6478.8701    651.08582   -7129.9559    4417.9408   -11547.897    126.11189   -664.47348   -691.97781   -922.11004   -72.278833    87.288086    11.317873      46.7237      46.7237      46.7237           90           90           90     102002.7   -759.52044 
  995000       994494   -6481.5156    668.79999   -7150.3156    4376.5056   -11526.821    129.54304   -791.16183   -1150.7787   -700.77012    8.7577308    52.806869   -247.43158      46.7237      46.7237      46.7237           90           90           90     102002.7   -880.90354 
  996000       995494   -6468.0298    663.53131   -7131.5611    4440.2185    -11571.78    128.52252   -754.12534   -1219.9948   -1093.5685    -66.49342    232.50897   -27.006263      46.7237      46.7237      46.7237           90           90           90     102002.7   -1022.5629 
  997000       996494   -6452.9243    687.22069    -7140.145     4422.816   -11562.961    133.11103   -568.04794   -1221.0721   -431.41159    159.15456    173.43876    101.43181      46.7237      46.7237      46.7237           90           90           90     102002.7   -740.17721 
  998000       997494   -6437.1705    677.97625   -7115.1467    4413.9059   -11529.053    131.32043   -925.65039   -758.03922   -893.73171   -291.89427    117.35405    25.105069      46.7237      46.7237      46.7237           90           90           90     102002.7   -859.14044 
  999000       998494   -6474.8414    647.18798   -7122.0294    4429.2475   -11551.277     125.3569   -871.28283   -1014.8606   -669.26372   -226.12676    130.62622    -213.3717      46.7237      46.7237      46.7237           90           90           90     102002.7   -851.80239 
 1000000       999494   -6477.1828    645.50074   -7122.6836    4438.9159   -11561.599    125.03009   -745.50324   -780.69623   -509.77314   -11.726287   -386.47806   -262.80589      46.7237      46.7237      46.7237           90           90           90     102002.7   -678.65754 
 1000506      1000000    -6449.266    676.10356   -7125.3695    4448.1415   -11573.511     130.9577    -735.2464   -721.84648   -963.09532    86.329101   -192.57503   -93.764505      46.7237      46.7237      46.7237           90           90           90     102002.7    -806.7294 
Loop time of 1474.82 on 16 procs for 500000 steps with 1733 atoms

Performance: 29.292 ns/day, 0.819 hours/ns, 339.025 timesteps/s
99.8% CPU use with 16 MPI tasks x no OpenMP threads

MPI task timing breakdown:
Section |  min time  |  avg time  |  max time  |%varavg| %total
---------------------------------------------------------------
Pair    | 528.09     | 768.72     | 994.64     | 605.5 | 52.12
Bond    | 167.1      | 183.23     | 199.25     |  91.6 | 12.42
Neigh   | 4.184      | 4.1975     | 4.2093     |   0.4 |  0.28
Comm    | 255.68     | 491.03     | 746.95     | 806.9 | 33.29
Output  | 0.095158   | 0.10031    | 0.10073    |   0.4 |  0.01
Modify  | 21.068     | 22.294     | 23.329     |  18.8 |  1.51
Other   |            | 5.246      |            |       |  0.36

Nlocal:    108.312 ave 138 max 94 min
Histogram: 4 1 3 3 1 3 0 0 0 1
Nghost:    2207.44 ave 2222 max 2176 min
Histogram: 1 0 0 0 1 2 2 5 3 2
Neighs:    11452.2 ave 17503 max 7584 min
Histogram: 2 4 1 2 1 3 1 1 0 1

Total # of neighbors = 183236
Ave neighs/atom = 105.733
Ave special neighs/atom = 6.64743
Neighbor list builds = 3572
Dangerous builds = 0
Total wall time: 0:46:05
