LAMMPS (30 Mar 2018)
Reading data file ...
  orthogonal box = (0 0 0) to (46.7237 46.7237 46.7237)
  2 by 2 by 4 MPI processor grid
  reading atoms ...
  3231 atoms
  scanning bonds ...
  5 = max bonds/atom
  scanning angles ...
  10 = max angles/atom
  scanning dihedrals ...
  32 = max dihedrals/atom
  scanning impropers ...
  3 = max impropers/atom
  reading bonds ...
  2064 bonds
  reading angles ...
  3696 angles
  reading dihedrals ...
  6240 dihedrals
  reading impropers ...
  1008 impropers
Finding 1-2 1-3 1-4 neighbors ...
  special bond factors lj:   0          0          0         
  special bond factors coul: 0          0          0         
  5 = max # of 1-2 neighbors
  8 = max # of 1-3 neighbors
  20 = max # of 1-4 neighbors
  19 = max # of special neighbors
Finding 1-2 1-3 1-4 neighbors ...
  special bond factors lj:   0          0          1         
  special bond factors coul: 1          1          1         
  5 = max # of 1-2 neighbors
  8 = max # of 1-3 neighbors
  19 = max # of special neighbors
WARNING: Using 'neigh_modify every 1 delay 0 check yes' setting during minimization (../min.cpp:168)
Neighbor list info ...
  update every 1 steps, delay 0 steps, check yes
  max neighbors/atom: 2000, page size: 100000
  master list distance cutoff = 16
  ghost atom cutoff = 16
  binsize = 8, bins = 6 6 6
  3 neighbor lists, perpetual/occasional/extra = 3 0 0
  (1) pair buck6d/coul/gauss/dsf, perpetual, skip from (3)
      attributes: half, newton on
      pair build: skip
      stencil: none
      bin: none
  (2) pair lj/cut, perpetual, skip from (3)
      attributes: half, newton on
      pair build: skip
      stencil: none
      bin: none
  (3) neighbor class addition, perpetual
      attributes: half, newton on
      pair build: half/bin/newton
      stencil: half/bin/3d/newton
      bin: standard
Setting up cg style minimization ...
  Unit style    : real
  Current step  : 0
WARNING: Inconsistent image flags (../domain.cpp:786)
Per MPI rank memory allocation (min/avg/max) = 23.02 | 23.47 | 23.92 Mbytes
Step Temp E_pair E_mol TotEng Press 
       0            0   -15688.234    6482.8914   -9205.3429    6026.0517 
     500            0   -16040.871    3770.6653   -12270.206   -1830.9822 
Loop time of 4.59056 on 16 procs for 500 steps with 3231 atoms

99.8% CPU use with 16 MPI tasks x no OpenMP threads

Minimization stats:
  Stopping criterion = max force evaluations
  Energy initial, next-to-last, final = 
        -9205.34286427      -12270.137857     -12270.2055147
  Force two-norm initial, final = 2575.13 11.0199
  Force max component initial, final = 152.084 1.33077
  Final line search alpha, max atom move = 0.00772447 0.0102795
  Iterations, force evaluations = 500 1000

MPI task timing breakdown:
Section |  min time  |  avg time  |  max time  |%varavg| %total
---------------------------------------------------------------
Pair    | 2.3847     | 3.0274     | 3.7194     |  20.3 | 65.95
Bond    | 0.27286    | 0.35967    | 0.42491    |   7.8 |  7.83
Neigh   | 0.031551   | 0.031667   | 0.03188    |   0.1 |  0.69
Comm    | 0.36329    | 1.1218     | 1.7796     |  35.1 | 24.44
Output  | 0          | 0          | 0          |   0.0 |  0.00
Modify  | 0          | 0          | 0          |   0.0 |  0.00
Other   |            | 0.05004    |            |       |  1.09

Nlocal:    201.938 ave 229 max 176 min
Histogram: 3 2 0 1 2 1 3 1 1 2
Nghost:    4023.31 ave 4062 max 3982 min
Histogram: 1 3 1 1 1 2 2 2 0 3
Neighs:    11480.9 ave 16626 max 7153 min
Histogram: 1 1 4 2 2 2 1 0 1 2

Total # of neighbors = 183695
Ave neighs/atom = 56.8539
Ave special neighs/atom = 3.56546
Neighbor list builds = 9
Dangerous builds = 0
Neighbor list info ...
  update every 1 steps, delay 10 steps, check yes
  max neighbors/atom: 2000, page size: 100000
  master list distance cutoff = 16
  ghost atom cutoff = 16
  binsize = 8, bins = 6 6 6
  3 neighbor lists, perpetual/occasional/extra = 3 0 0
  (1) pair buck6d/coul/gauss/dsf, perpetual, skip from (3)
      attributes: half, newton on
      pair build: skip
      stencil: none
      bin: none
  (2) pair lj/cut, perpetual, skip from (3)
      attributes: half, newton on
      pair build: skip
      stencil: none
      bin: none
  (3) neighbor class addition, perpetual
      attributes: half, newton on
      pair build: half/bin/newton
      stencil: half/bin/3d/newton
      bin: standard
Setting up Verlet run ...
  Unit style    : real
  Current step  : 500
  Time step     : 1
WARNING: Inconsistent image flags (../domain.cpp:786)
Per MPI rank memory allocation (min/avg/max) = 22.66 | 22.74 | 22.79 Mbytes
Step Temp PotEng TotEng Press Volume Lx Ly Lz 
     500           91   -12270.206   -11394.056   -1438.3378     102002.7      46.7237      46.7237      46.7237 
    1000    76.224382   -11539.497   -10805.608   -380.50743     102002.7      46.7237      46.7237      46.7237 
    2000    91.062845   -11414.028   -10537.273   -442.71194     102002.7      46.7237      46.7237      46.7237 
    3000    91.565921   -11442.704   -10561.105    90.613966     102002.7      46.7237      46.7237      46.7237 
    4000    92.001628   -11426.319   -10540.525    112.69961     102002.7      46.7237      46.7237      46.7237 
    5000    90.290029   -11422.086   -10552.772   -343.52869     102002.7      46.7237      46.7237      46.7237 
    6000    92.013727   -11434.394   -10548.485    -267.2343     102002.7      46.7237      46.7237      46.7237 
    7000    89.495448   -11444.689   -10583.026   -236.60809     102002.7      46.7237      46.7237      46.7237 
    8000    92.672814   -11428.694   -10536.439    106.31493     102002.7      46.7237      46.7237      46.7237 
    9000    92.037835   -11444.374   -10558.233   -117.22469     102002.7      46.7237      46.7237      46.7237 
   10000    92.746199     -11456.1   -10563.138   -198.64851     102002.7      46.7237      46.7237      46.7237 
   11000    91.127024   -11432.739   -10555.367   -178.72406     102002.7      46.7237      46.7237      46.7237 
   12000    92.221221   -11457.281   -10569.374   -235.48461     102002.7      46.7237      46.7237      46.7237 
   13000     89.82514   -11442.879   -10578.042   -178.05581     102002.7      46.7237      46.7237      46.7237 
   14000    91.468557   -11456.812   -10576.151   -254.24985     102002.7      46.7237      46.7237      46.7237 
   15000    90.275522   -11459.134    -10589.96   -338.21744     102002.7      46.7237      46.7237      46.7237 
   16000    89.774464    -11438.52    -10574.17   -224.39664     102002.7      46.7237      46.7237      46.7237 
   17000    89.759507   -11448.345   -10584.139   -330.25586     102002.7      46.7237      46.7237      46.7237 
   18000    90.254306    -11440.01    -10571.04    -571.2642     102002.7      46.7237      46.7237      46.7237 
   19000    91.471509   -11457.668   -10576.979   -432.23679     102002.7      46.7237      46.7237      46.7237 
   20000    89.076617   -11460.162    -10602.53   -243.49661     102002.7      46.7237      46.7237      46.7237 
   21000     89.13587     -11432.6   -10574.398   -388.77792     102002.7      46.7237      46.7237      46.7237 
   22000    90.104649   -11463.947   -10596.418   -530.09098     102002.7      46.7237      46.7237      46.7237 
   23000    91.943441   -11442.761   -10557.528   -206.50104     102002.7      46.7237      46.7237      46.7237 
   24000    87.642494   -11457.943   -10614.119   -323.04409     102002.7      46.7237      46.7237      46.7237 
   25000    92.707332   -11451.184   -10558.596   -430.70271     102002.7      46.7237      46.7237      46.7237 
   26000    89.721571   -11473.726   -10609.885   -389.22969     102002.7      46.7237      46.7237      46.7237 
   27000    90.815111   -11446.918   -10572.549   -364.66683     102002.7      46.7237      46.7237      46.7237 
   28000     90.88387   -11484.168   -10609.136   -228.20812     102002.7      46.7237      46.7237      46.7237 
   29000    92.234046   -11464.052   -10576.021   -526.79151     102002.7      46.7237      46.7237      46.7237 
   30000    87.976752   -11451.276   -10604.234   -390.92726     102002.7      46.7237      46.7237      46.7237 
   31000    90.202093   -11445.857    -10577.39   -170.46417     102002.7      46.7237      46.7237      46.7237 
   32000    89.583935   -11456.487   -10593.972   -197.17655     102002.7      46.7237      46.7237      46.7237 
   33000     91.06523   -11436.853   -10560.075   -36.206836     102002.7      46.7237      46.7237      46.7237 
   34000    91.446467   -11437.147   -10556.699   -287.17161     102002.7      46.7237      46.7237      46.7237 
   35000    89.486153   -11455.061   -10593.486   -368.87223     102002.7      46.7237      46.7237      46.7237 
   36000    91.146977   -11449.958   -10572.394   -563.79564     102002.7      46.7237      46.7237      46.7237 
   37000    91.276176   -11453.593   -10574.785   -637.39632     102002.7      46.7237      46.7237      46.7237 
   38000    89.117749   -11458.146   -10600.119    -265.6406     102002.7      46.7237      46.7237      46.7237 
   39000    91.694048   -11445.476   -10562.644   -105.77252     102002.7      46.7237      46.7237      46.7237 
   40000    90.179492   -11453.035   -10584.786    -458.0015     102002.7      46.7237      46.7237      46.7237 
   41000    90.836834   -11456.347   -10581.769   -241.56161     102002.7      46.7237      46.7237      46.7237 
   42000    91.641007   -11449.009   -10566.688   -387.85396     102002.7      46.7237      46.7237      46.7237 
   43000    91.905125   -11463.396   -10578.532   -417.40603     102002.7      46.7237      46.7237      46.7237 
   44000    94.169416    -11429.92   -10523.256   -338.24852     102002.7      46.7237      46.7237      46.7237 
   45000    91.989312   -11470.376   -10584.701   -366.82338     102002.7      46.7237      46.7237      46.7237 
   46000    92.044248   -11442.759   -10556.555   -447.90417     102002.7      46.7237      46.7237      46.7237 
   47000    89.741707   -11467.869   -10603.834   -356.64953     102002.7      46.7237      46.7237      46.7237 
   48000    90.390428   -11461.262   -10590.982    -377.6832     102002.7      46.7237      46.7237      46.7237 
   49000    92.695971   -11446.232   -10553.754   -111.23816     102002.7      46.7237      46.7237      46.7237 
   50000     89.02488   -11475.881   -10618.748   -380.85352     102002.7      46.7237      46.7237      46.7237 
   51000    90.449344    -11442.75   -10571.902   -426.04116     102002.7      46.7237      46.7237      46.7237 
   52000    89.814912   -11433.747   -10569.008   -166.65238     102002.7      46.7237      46.7237      46.7237 
   53000    89.651985   -11461.665   -10598.494   -294.30913     102002.7      46.7237      46.7237      46.7237 
   54000    90.786683   -11462.433   -10588.337   -362.40108     102002.7      46.7237      46.7237      46.7237 
   55000     91.87969   -11477.483   -10592.864   -284.57994     102002.7      46.7237      46.7237      46.7237 
   56000    91.333138     -11468.2   -10588.843   -371.35653     102002.7      46.7237      46.7237      46.7237 
   57000    93.131064   -11468.975   -10572.308    65.246704     102002.7      46.7237      46.7237      46.7237 
   58000    91.880885   -11419.891    -10535.26   -194.89698     102002.7      46.7237      46.7237      46.7237 
   59000    92.136956   -11459.149   -10572.053   -484.90125     102002.7      46.7237      46.7237      46.7237 
   60000    89.038556   -11454.476   -10597.212   -280.97278     102002.7      46.7237      46.7237      46.7237 
   61000    88.545526    -11433.68   -10581.162   -95.858529     102002.7      46.7237      46.7237      46.7237 
   62000     92.82387   -11457.821   -10564.111   -362.47194     102002.7      46.7237      46.7237      46.7237 
   63000     91.85143   -11458.746   -10574.399   -335.69465     102002.7      46.7237      46.7237      46.7237 
   64000     91.35218       -11450    -10570.46   -475.63452     102002.7      46.7237      46.7237      46.7237 
   65000    89.835185   -11445.445    -10580.51     -383.213     102002.7      46.7237      46.7237      46.7237 
   66000    89.654646   -11456.744   -10593.548   -154.33915     102002.7      46.7237      46.7237      46.7237 
   67000    93.249468   -11445.778   -10547.971   -401.34997     102002.7      46.7237      46.7237      46.7237 
   68000    89.450975   -11455.486   -10594.251   -270.33986     102002.7      46.7237      46.7237      46.7237 
   69000    91.474429     -11478.2   -10597.483   -278.58766     102002.7      46.7237      46.7237      46.7237 
   70000    92.630962   -11466.128   -10574.276    30.368243     102002.7      46.7237      46.7237      46.7237 
   71000    95.538762   -11451.591   -10531.742    -70.20499     102002.7      46.7237      46.7237      46.7237 
   72000    92.088357   -11477.969   -10591.341   -338.81364     102002.7      46.7237      46.7237      46.7237 
   73000     92.08587   -11459.418   -10572.813   -371.33596     102002.7      46.7237      46.7237      46.7237 
   74000    91.382101   -11461.324   -10581.496   -221.68071     102002.7      46.7237      46.7237      46.7237 
   75000    92.843578   -11455.832   -10561.933   -180.79539     102002.7      46.7237      46.7237      46.7237 
   76000    88.578978   -11455.011   -10602.171    -351.7988     102002.7      46.7237      46.7237      46.7237 
   77000    90.674417   -11462.783   -10589.768   -44.490215     102002.7      46.7237      46.7237      46.7237 
   78000    90.003533   -11465.708   -10599.152    -230.7358     102002.7      46.7237      46.7237      46.7237 
   79000    90.049528   -11453.338    -10586.34   -362.45285     102002.7      46.7237      46.7237      46.7237 
   80000    89.896728   -11471.434   -10605.907   -187.55569     102002.7      46.7237      46.7237      46.7237 
   81000     90.27662   -11457.592   -10588.407   -490.75112     102002.7      46.7237      46.7237      46.7237 
   82000    91.823456   -11451.173   -10567.095   -328.17669     102002.7      46.7237      46.7237      46.7237 
   83000    91.180216   -11465.319   -10587.435   -455.29567     102002.7      46.7237      46.7237      46.7237 
   84000    90.578959   -11428.498   -10556.402   -410.08353     102002.7      46.7237      46.7237      46.7237 
   85000    89.646239   -11470.548   -10607.432   -125.17582     102002.7      46.7237      46.7237      46.7237 
   86000    93.246381   -11467.894   -10570.116   -268.47928     102002.7      46.7237      46.7237      46.7237 
   87000    92.554266   -11449.742   -10558.628   -66.320173     102002.7      46.7237      46.7237      46.7237 
   88000    90.525522   -11464.035   -10592.454   -358.02172     102002.7      46.7237      46.7237      46.7237 
   89000    92.475875   -11448.234   -10557.875   -270.01832     102002.7      46.7237      46.7237      46.7237 
   90000    89.862723   -11450.339   -10585.139   -279.02631     102002.7      46.7237      46.7237      46.7237 
   91000    89.252496   -11475.509   -10616.184   -200.22423     102002.7      46.7237      46.7237      46.7237 
   92000    90.189704   -11450.629   -10582.281   -441.94128     102002.7      46.7237      46.7237      46.7237 
   93000    90.189858   -11473.127   -10604.778    -576.8533     102002.7      46.7237      46.7237      46.7237 
   94000    89.181405   -11462.682   -10604.042   -169.13477     102002.7      46.7237      46.7237      46.7237 
   95000    89.234988   -11476.547   -10617.391   -368.80998     102002.7      46.7237      46.7237      46.7237 
   96000    92.515355   -11481.184   -10590.445   -152.85381     102002.7      46.7237      46.7237      46.7237 
   97000    93.184281   -11475.771   -10578.591   -413.67839     102002.7      46.7237      46.7237      46.7237 
   98000    91.355209   -11483.338   -10603.768   -627.93659     102002.7      46.7237      46.7237      46.7237 
   99000    90.381056   -11452.086   -10581.896    41.567082     102002.7      46.7237      46.7237      46.7237 
  100000    90.758584   -11449.248   -10575.423   -382.67009     102002.7      46.7237      46.7237      46.7237 
  101000    92.521799   -11464.256   -10573.455   -492.92067     102002.7      46.7237      46.7237      46.7237 
  102000    89.163316   -11460.096    -10601.63    2.4295386     102002.7      46.7237      46.7237      46.7237 
  103000    91.811332    -11451.83   -10567.868   -319.43664     102002.7      46.7237      46.7237      46.7237 
  104000    92.475547   -11466.423   -10576.067    52.041734     102002.7      46.7237      46.7237      46.7237 
  105000    91.279248   -11471.805   -10592.967   -114.00553     102002.7      46.7237      46.7237      46.7237 
  106000    91.663214   -11448.181   -10565.647   -396.59757     102002.7      46.7237      46.7237      46.7237 
  107000    90.455183   -11483.784    -10612.88   -200.73686     102002.7      46.7237      46.7237      46.7237 
  108000     92.58115   -11455.258   -10563.885    -254.7012     102002.7      46.7237      46.7237      46.7237 
  109000     91.29838   -11470.179   -10591.156   -274.46616     102002.7      46.7237      46.7237      46.7237 
  110000    91.573061   -11459.932   -10578.265   -149.10619     102002.7      46.7237      46.7237      46.7237 
  111000    86.868115   -11483.244   -10646.876   -261.41393     102002.7      46.7237      46.7237      46.7237 
  112000    90.812224    -11450.44   -10576.098   -411.30056     102002.7      46.7237      46.7237      46.7237 
  113000    90.479245   -11475.874   -10604.738   -176.92437     102002.7      46.7237      46.7237      46.7237 
  114000    88.778913   -11478.557   -10623.792   -463.93268     102002.7      46.7237      46.7237      46.7237 
  115000    91.233523   -11471.923   -10593.525   -398.47563     102002.7      46.7237      46.7237      46.7237 
  116000    90.954923   -11435.418   -10559.703   -201.72441     102002.7      46.7237      46.7237      46.7237 
  117000    92.120055   -11500.173   -10613.239   -510.25975     102002.7      46.7237      46.7237      46.7237 
  118000    93.349127    -11473.05   -10574.283   -439.79058     102002.7      46.7237      46.7237      46.7237 
  119000    91.889533   -11454.469   -10569.755   -471.38283     102002.7      46.7237      46.7237      46.7237 
  120000    90.128009   -11484.653   -10616.899   -283.03987     102002.7      46.7237      46.7237      46.7237 
  121000    91.955786   -11462.544   -10577.192   -66.844087     102002.7      46.7237      46.7237      46.7237 
  122000    90.915737   -11473.422   -10598.084   -213.55542     102002.7      46.7237      46.7237      46.7237 
  123000    90.901608   -11468.141   -10592.939   -260.64188     102002.7      46.7237      46.7237      46.7237 
  124000    91.406137   -11461.655   -10581.595   -195.89465     102002.7      46.7237      46.7237      46.7237 
  125000    91.014564   -11442.902   -10566.613   -418.95601     102002.7      46.7237      46.7237      46.7237 
  126000    92.670922   -11472.544   -10580.307   -243.45706     102002.7      46.7237      46.7237      46.7237 
  127000    94.204188   -11491.421   -10584.422   -309.80902     102002.7      46.7237      46.7237      46.7237 
  128000     91.40462   -11485.091   -10605.046   -371.43563     102002.7      46.7237      46.7237      46.7237 
  129000    90.315213   -11465.148   -10595.591   -192.80939     102002.7      46.7237      46.7237      46.7237 
  130000    91.734312   -11493.385   -10610.166   -309.68173     102002.7      46.7237      46.7237      46.7237 
  131000    90.720953   -11490.309   -10616.846   -437.84284     102002.7      46.7237      46.7237      46.7237 
  132000    89.946005   -11465.674   -10599.672   -451.31453     102002.7      46.7237      46.7237      46.7237 
  133000    91.190643   -11461.276   -10583.291   -345.40687     102002.7      46.7237      46.7237      46.7237 
  134000    91.158236   -11449.009   -10571.336    -341.1899     102002.7      46.7237      46.7237      46.7237 
  135000    90.588924   -11452.354   -10580.162   -133.98736     102002.7      46.7237      46.7237      46.7237 
  136000    91.810755    -11485.83   -10601.875   -398.19146     102002.7      46.7237      46.7237      46.7237 
  137000    89.696149     -11468.1   -10604.504   -297.02299     102002.7      46.7237      46.7237      46.7237 
  138000      91.7345   -11454.408   -10571.186   -70.743077     102002.7      46.7237      46.7237      46.7237 
  139000    90.442779   -11463.437   -10592.653   -303.55087     102002.7      46.7237      46.7237      46.7237 
  140000    89.948536   -11465.437   -10599.411   -158.33982     102002.7      46.7237      46.7237      46.7237 
  141000    93.571988   -11461.126   -10560.214   -328.74379     102002.7      46.7237      46.7237      46.7237 
  142000    90.890657   -11471.416   -10596.319   -434.75878     102002.7      46.7237      46.7237      46.7237 
  143000     91.62753   -11422.582   -10540.391   -20.966677     102002.7      46.7237      46.7237      46.7237 
  144000    90.380874   -11471.954   -10601.765   -429.74348     102002.7      46.7237      46.7237      46.7237 
  145000    91.000855   -11480.658   -10604.501   -563.13696     102002.7      46.7237      46.7237      46.7237 
  146000    91.828379   -11461.493   -10577.368   -330.12795     102002.7      46.7237      46.7237      46.7237 
  147000    91.718118   -11477.366   -10594.302   -430.02053     102002.7      46.7237      46.7237      46.7237 
  148000     92.29424   -11465.595   -10576.985    -344.7115     102002.7      46.7237      46.7237      46.7237 
  149000    91.870081   -11480.857    -10596.33   -427.23905     102002.7      46.7237      46.7237      46.7237 
  150000     91.58481   -11472.614   -10590.834   -144.80264     102002.7      46.7237      46.7237      46.7237 
  151000    91.636297   -11480.156    -10597.88   -3.8803858     102002.7      46.7237      46.7237      46.7237 
  152000    94.363229   -11479.223   -10570.692    -265.1349     102002.7      46.7237      46.7237      46.7237 
  153000    91.102744    -11487.65   -10610.511   -519.04609     102002.7      46.7237      46.7237      46.7237 
  154000    91.985564   -11468.064   -10582.425   -550.27027     102002.7      46.7237      46.7237      46.7237 
  155000    91.659458   -11461.783   -10579.284    -384.9105     102002.7      46.7237      46.7237      46.7237 
  156000     92.14744   -11486.748   -10599.551    -411.6023     102002.7      46.7237      46.7237      46.7237 
  157000    90.455523   -11482.871   -10611.963   -350.17301     102002.7      46.7237      46.7237      46.7237 
  158000    90.039926   -11476.696    -10609.79    -422.2871     102002.7      46.7237      46.7237      46.7237 
  159000    91.997963   -11469.537    -10583.78   -263.35931     102002.7      46.7237      46.7237      46.7237 
  160000    91.833674   -11473.048   -10588.872   -342.58553     102002.7      46.7237      46.7237      46.7237 
  161000    92.133516   -11469.189   -10582.126   -255.27787     102002.7      46.7237      46.7237      46.7237 
  162000    89.434616   -11464.646   -10603.568   -466.31608     102002.7      46.7237      46.7237      46.7237 
  163000    91.642382   -11480.379   -10598.044    -67.02918     102002.7      46.7237      46.7237      46.7237 
  164000    92.625755   -11478.842    -10587.04   -515.57734     102002.7      46.7237      46.7237      46.7237 
  165000    93.222445     -11475.6   -10578.053   -294.49102     102002.7      46.7237      46.7237      46.7237 
  166000    92.939363   -11488.814   -10593.992   -250.19544     102002.7      46.7237      46.7237      46.7237 
  167000    89.373901   -11462.308   -10601.814   -287.54353     102002.7      46.7237      46.7237      46.7237 
  168000    88.441508   -11491.643   -10640.127   -593.36926     102002.7      46.7237      46.7237      46.7237 
  169000    90.107039   -11470.796   -10603.244   -274.32082     102002.7      46.7237      46.7237      46.7237 
  170000    92.684176   -11448.308   -10555.943   -418.56114     102002.7      46.7237      46.7237      46.7237 
  171000     92.35865   -11478.258   -10589.028   -404.11807     102002.7      46.7237      46.7237      46.7237 
  172000    92.167149   -11466.314   -10578.927   -382.21774     102002.7      46.7237      46.7237      46.7237 
  173000    91.066555   -11483.546   -10606.756   -575.69851     102002.7      46.7237      46.7237      46.7237 
  174000    90.786538   -11451.777   -10577.682   -274.04407     102002.7      46.7237      46.7237      46.7237 
  175000    92.500648   -11460.964   -10570.366   -157.78949     102002.7      46.7237      46.7237      46.7237 
  176000    92.544541   -11484.045   -10593.025   -326.70897     102002.7      46.7237      46.7237      46.7237 
  177000    90.113254   -11478.537   -10610.925   -322.96066     102002.7      46.7237      46.7237      46.7237 
  178000     89.98891   -11475.399   -10608.984   -437.53718     102002.7      46.7237      46.7237      46.7237 
  179000    89.586877   -11465.428   -10602.884   -461.05948     102002.7      46.7237      46.7237      46.7237 
  180000    93.793131   -11490.054   -10587.012   -126.76323     102002.7      46.7237      46.7237      46.7237 
  181000    90.151667   -11489.399   -10621.418   -496.53605     102002.7      46.7237      46.7237      46.7237 
  182000    90.639302   -11473.312   -10600.636   -244.18773     102002.7      46.7237      46.7237      46.7237 
  183000    91.397036   -11500.367   -10620.395   -338.87531     102002.7      46.7237      46.7237      46.7237 
  184000    92.726556   -11476.635   -10583.862   -516.86552     102002.7      46.7237      46.7237      46.7237 
  185000    90.538049   -11482.946   -10611.244   -278.20941     102002.7      46.7237      46.7237      46.7237 
  186000    89.861413   -11484.539   -10619.351   -412.36936     102002.7      46.7237      46.7237      46.7237 
  187000    88.079415   -11480.023   -10631.993   -269.05502     102002.7      46.7237      46.7237      46.7237 
  188000    90.461503   -11472.668   -10601.703   -433.88607     102002.7      46.7237      46.7237      46.7237 
  189000    89.196398   -11471.295   -10612.511   -372.46314     102002.7      46.7237      46.7237      46.7237 
  190000    88.956123   -11455.037   -10598.566   -400.76207     102002.7      46.7237      46.7237      46.7237 
  191000    92.854051   -11465.539   -10571.538   -318.07247     102002.7      46.7237      46.7237      46.7237 
  192000    89.412155   -11467.868   -10607.007   -258.54705     102002.7      46.7237      46.7237      46.7237 
  193000    92.513462   -11467.426   -10576.705   -498.84746     102002.7      46.7237      46.7237      46.7237 
  194000    88.687359   -11472.778   -10618.894   -57.784288     102002.7      46.7237      46.7237      46.7237 
  195000    92.283538   -11476.043   -10587.535   -328.79914     102002.7      46.7237      46.7237      46.7237 
  196000    92.009661     -11465.7   -10579.829   -88.977538     102002.7      46.7237      46.7237      46.7237 
  197000    93.937161   -11475.367   -10570.938   -306.65086     102002.7      46.7237      46.7237      46.7237 
  198000    90.687862   -11467.574    -10594.43   -103.59867     102002.7      46.7237      46.7237      46.7237 
  199000    93.165709   -11449.952   -10552.951   -72.243432     102002.7      46.7237      46.7237      46.7237 
  200000    90.333151   -11473.843   -10604.114   -262.85848     102002.7      46.7237      46.7237      46.7237 
  201000    89.331572   -11452.437   -10592.351   -622.40451     102002.7      46.7237      46.7237      46.7237 
  202000    89.086745   -11477.791   -10620.062   -373.77136     102002.7      46.7237      46.7237      46.7237 
  203000    90.067584   -11463.703   -10596.531   -554.67804     102002.7      46.7237      46.7237      46.7237 
  204000    92.771934    -11461.31   -10568.101   -159.42342     102002.7      46.7237      46.7237      46.7237 
  205000    91.912361   -11463.883   -10578.949   -196.84514     102002.7      46.7237      46.7237      46.7237 
  206000    90.248149   -11473.208   -10604.297   -382.81021     102002.7      46.7237      46.7237      46.7237 
  207000    92.551259   -11469.319   -10578.234   -397.27855     102002.7      46.7237      46.7237      46.7237 
  208000    89.707544   -11477.775   -10614.069   -515.78902     102002.7      46.7237      46.7237      46.7237 
  209000    92.589432   -11476.493   -10585.041   -573.92061     102002.7      46.7237      46.7237      46.7237 
  210000    93.195204    -11486.24   -10588.955   -483.60564     102002.7      46.7237      46.7237      46.7237 
  211000    91.066237   -11468.079   -10591.292   -297.61736     102002.7      46.7237      46.7237      46.7237 
  212000    89.899277   -11471.675   -10606.123   -488.60674     102002.7      46.7237      46.7237      46.7237 
  213000      90.9863   -11485.161   -10609.144   -435.98586     102002.7      46.7237      46.7237      46.7237 
  214000    91.229076   -11451.059   -10572.704   -419.13911     102002.7      46.7237      46.7237      46.7237 
  215000    92.322215   -11464.722   -10575.842   -162.74241     102002.7      46.7237      46.7237      46.7237 
  216000    88.471129   -11478.142   -10626.341   -483.41955     102002.7      46.7237      46.7237      46.7237 
  217000    90.551598   -11462.288   -10590.456   -428.68447     102002.7      46.7237      46.7237      46.7237 
  218000    88.622457   -11469.407   -10616.148    -436.0074     102002.7      46.7237      46.7237      46.7237 
  219000     90.44506   -11472.236    -10601.43   -338.43131     102002.7      46.7237      46.7237      46.7237 
  220000    90.385946   -11463.543   -10593.306   -171.42592     102002.7      46.7237      46.7237      46.7237 
  221000    93.210328   -11454.538   -10557.108   -232.44519     102002.7      46.7237      46.7237      46.7237 
  222000    92.993992   -11468.654   -10573.306    -278.5133     102002.7      46.7237      46.7237      46.7237 
  223000    91.832397   -11473.907   -10589.744   -198.22124     102002.7      46.7237      46.7237      46.7237 
  224000    89.665966   -11467.071   -10603.765   -296.55427     102002.7      46.7237      46.7237      46.7237 
  225000    92.341665   -11463.022   -10573.955    -336.0925     102002.7      46.7237      46.7237      46.7237 
  226000    89.299788   -11430.876   -10571.096   -383.41388     102002.7      46.7237      46.7237      46.7237 
  227000    91.653609   -11450.763   -10568.321   -372.26284     102002.7      46.7237      46.7237      46.7237 
  228000    92.928563   -11465.826   -10571.109   -429.70379     102002.7      46.7237      46.7237      46.7237 
  229000    90.194917   -11452.718    -10584.32   -151.37682     102002.7      46.7237      46.7237      46.7237 
  230000    88.658736   -11461.799   -10608.192   -125.36444     102002.7      46.7237      46.7237      46.7237 
  231000    89.672929   -11447.812   -10584.439    -236.1838     102002.7      46.7237      46.7237      46.7237 
  232000    92.040945   -11454.757   -10568.585   -284.95487     102002.7      46.7237      46.7237      46.7237 
  233000    91.268387   -11466.965   -10588.232   -26.149558     102002.7      46.7237      46.7237      46.7237 
  234000     91.12922   -11458.982   -10581.589   -100.29695     102002.7      46.7237      46.7237      46.7237 
  235000    92.571097   -11473.353   -10582.077   -309.97925     102002.7      46.7237      46.7237      46.7237 
  236000    90.610813   -11474.236   -10601.834   -565.29942     102002.7      46.7237      46.7237      46.7237 
  237000    90.867605    -11486.94   -10612.066   -337.14926     102002.7      46.7237      46.7237      46.7237 
  238000    89.914089   -11454.387   -10588.692   -145.25943     102002.7      46.7237      46.7237      46.7237 
  239000    91.721567   -11447.598   -10564.501   -410.73469     102002.7      46.7237      46.7237      46.7237 
  240000    88.805164   -11453.166   -10598.148   -335.75088     102002.7      46.7237      46.7237      46.7237 
  241000    91.778078   -11443.922   -10560.281   -357.15768     102002.7      46.7237      46.7237      46.7237 
  242000    88.224713   -11458.742   -10609.313   -415.56574     102002.7      46.7237      46.7237      46.7237 
  243000    92.518661   -11485.316   -10594.545   -223.71933     102002.7      46.7237      46.7237      46.7237 
  244000    89.258764   -11476.275    -10616.89   -122.06716     102002.7      46.7237      46.7237      46.7237 
  245000    90.450607   -11476.386   -10605.526   -576.57954     102002.7      46.7237      46.7237      46.7237 
  246000    92.253239   -11446.403   -10558.187   -103.00081     102002.7      46.7237      46.7237      46.7237 
  247000     91.48663   -11460.059   -10579.225   -150.40123     102002.7      46.7237      46.7237      46.7237 
  248000    92.326489   -11457.487   -10568.566    -343.2619     102002.7      46.7237      46.7237      46.7237 
  249000    90.317416   -11459.821   -10590.244   -88.174645     102002.7      46.7237      46.7237      46.7237 
  250000    91.142613   -11475.268   -10597.745   -322.55371     102002.7      46.7237      46.7237      46.7237 
  251000    90.367795   -11468.956   -10598.894   -307.10422     102002.7      46.7237      46.7237      46.7237 
  252000    91.282445   -11439.797   -10560.928   -232.91988     102002.7      46.7237      46.7237      46.7237 
  253000    90.986828   -11469.147   -10593.124   -202.55353     102002.7      46.7237      46.7237      46.7237 
  254000    90.591739   -11490.143   -10617.924   -224.63772     102002.7      46.7237      46.7237      46.7237 
  255000     92.74875   -11478.596    -10585.61   -332.63021     102002.7      46.7237      46.7237      46.7237 
  256000    91.096096   -11453.281   -10576.207   -403.75802     102002.7      46.7237      46.7237      46.7237 
  257000    90.580087   -11441.433   -10569.326   -174.49126     102002.7      46.7237      46.7237      46.7237 
  258000    90.758995   -11485.219    -10611.39   -271.82479     102002.7      46.7237      46.7237      46.7237 
  259000    90.769984   -11461.195    -10587.26   -291.87326     102002.7      46.7237      46.7237      46.7237 
  260000    87.909942   -11482.291   -10635.893   -140.04001     102002.7      46.7237      46.7237      46.7237 
  261000    90.249979    -11471.02   -10602.092    56.850764     102002.7      46.7237      46.7237      46.7237 
  262000    95.333893   -11467.265   -10549.389    43.581343     102002.7      46.7237      46.7237      46.7237 
  263000     92.80317   -11478.567   -10585.057   -30.266136     102002.7      46.7237      46.7237      46.7237 
  264000    90.098928   -11463.175   -10595.701   -10.752624     102002.7      46.7237      46.7237      46.7237 
  265000    89.913276   -11452.116    -10586.43   -185.17274     102002.7      46.7237      46.7237      46.7237 
  266000    91.819602   -11471.111    -10587.07   -343.28889     102002.7      46.7237      46.7237      46.7237 
  267000    88.511673   -11482.349   -10630.157   -342.73578     102002.7      46.7237      46.7237      46.7237 
  268000    90.767873   -11453.353   -10579.438   -269.72419     102002.7      46.7237      46.7237      46.7237 
  269000    90.270265   -11469.715   -10600.591    -355.2947     102002.7      46.7237      46.7237      46.7237 
  270000    89.370866   -11484.555   -10624.091   -359.32814     102002.7      46.7237      46.7237      46.7237 
  271000    92.077206   -11471.573   -10585.052   -164.66553     102002.7      46.7237      46.7237      46.7237 
  272000     91.04765   -11444.797   -10568.188   -95.546919     102002.7      46.7237      46.7237      46.7237 
  273000    90.607722   -11475.417   -10603.045   -239.32871     102002.7      46.7237      46.7237      46.7237 
  274000    89.644947   -11461.198   -10598.095   -331.18193     102002.7      46.7237      46.7237      46.7237 
  275000    91.930025   -11470.907   -10585.803   -244.11503     102002.7      46.7237      46.7237      46.7237 
  276000    92.499384   -11483.028   -10592.443   -323.44464     102002.7      46.7237      46.7237      46.7237 
  277000    90.957982   -11463.024   -10587.279   -176.07334     102002.7      46.7237      46.7237      46.7237 
  278000    91.015307   -11466.538   -10590.241   -318.90512     102002.7      46.7237      46.7237      46.7237 
  279000    89.565802   -11482.488   -10620.147   -242.70569     102002.7      46.7237      46.7237      46.7237 
  280000    92.280395   -11459.379   -10570.901   -57.051857     102002.7      46.7237      46.7237      46.7237 
  281000    91.325078   -11473.015   -10593.736   -434.31806     102002.7      46.7237      46.7237      46.7237 
  282000    91.349603   -11485.912   -10606.396    -350.8573     102002.7      46.7237      46.7237      46.7237 
  283000    92.228978   -11461.515   -10573.533   -376.71005     102002.7      46.7237      46.7237      46.7237 
  284000     90.36209   -11486.587   -10616.579     -571.055     102002.7      46.7237      46.7237      46.7237 
  285000    92.588371   -11469.461   -10578.019   -252.86987     102002.7      46.7237      46.7237      46.7237 
  286000    89.860976   -11497.945   -10632.763   -458.31391     102002.7      46.7237      46.7237      46.7237 
  287000    91.532118   -11503.639   -10622.367   -505.48534     102002.7      46.7237      46.7237      46.7237 
  288000    90.313232   -11452.579   -10583.042   -388.09371     102002.7      46.7237      46.7237      46.7237 
  289000    91.957133    -11481.69   -10596.325   -161.64157     102002.7      46.7237      46.7237      46.7237 
  290000    93.713702   -11454.169   -10551.892   -304.40868     102002.7      46.7237      46.7237      46.7237 
  291000    90.534217   -11456.471   -10584.806   -118.17084     102002.7      46.7237      46.7237      46.7237 
  292000    90.069331   -11469.369    -10602.18   -563.78978     102002.7      46.7237      46.7237      46.7237 
  293000    92.238015   -11444.974   -10556.905   -464.22053     102002.7      46.7237      46.7237      46.7237 
  294000    90.479672   -11468.606   -10597.466   -479.49821     102002.7      46.7237      46.7237      46.7237 
  295000    89.801168   -11452.386   -10587.779   -179.89024     102002.7      46.7237      46.7237      46.7237 
  296000    90.378381   -11480.077   -10609.913   -434.26927     102002.7      46.7237      46.7237      46.7237 
  297000    92.030644   -11475.346   -10589.273   -89.596236     102002.7      46.7237      46.7237      46.7237 
  298000    89.960498   -11458.559   -10592.418    -309.7941     102002.7      46.7237      46.7237      46.7237 
  299000    90.381296   -11473.004   -10602.812   -299.95942     102002.7      46.7237      46.7237      46.7237 
  300000    91.996809   -11466.223   -10580.476    -251.6199     102002.7      46.7237      46.7237      46.7237 
  301000    90.906241   -11451.014   -10575.767   -126.93974     102002.7      46.7237      46.7237      46.7237 
  302000    88.405435   -11452.466   -10601.297   -312.18884     102002.7      46.7237      46.7237      46.7237 
  303000    90.925485   -11475.805   -10600.373   -395.84086     102002.7      46.7237      46.7237      46.7237 
  304000    89.229985   -11485.992   -10626.884   -467.59882     102002.7      46.7237      46.7237      46.7237 
  305000    91.721039   -11475.949   -10592.858   -488.19305     102002.7      46.7237      46.7237      46.7237 
  306000    89.996864   -11457.196   -10590.704   -219.63132     102002.7      46.7237      46.7237      46.7237 
  307000    90.646496   -11480.459   -10607.713   -77.784336     102002.7      46.7237      46.7237      46.7237 
  308000    89.526202   -11472.477   -10610.517    -227.7808     102002.7      46.7237      46.7237      46.7237 
  309000    93.713567   -11468.863   -10566.587   -338.01723     102002.7      46.7237      46.7237      46.7237 
  310000     90.78237   -11487.357   -10613.303   -302.11943     102002.7      46.7237      46.7237      46.7237 
  311000    92.223401   -11450.984   -10563.056   -161.91564     102002.7      46.7237      46.7237      46.7237 
  312000    90.039016   -11444.221   -10577.324   -223.24325     102002.7      46.7237      46.7237      46.7237 
  313000    90.339624   -11476.329   -10606.538    -193.8411     102002.7      46.7237      46.7237      46.7237 
  314000    89.970144   -11467.935   -10601.701   -63.383498     102002.7      46.7237      46.7237      46.7237 
  315000    90.231132   -11455.564   -10586.818   -301.15103     102002.7      46.7237      46.7237      46.7237 
  316000    88.807043   -11487.754   -10632.718   -493.64597     102002.7      46.7237      46.7237      46.7237 
  317000    90.645391   -11465.396   -10592.661   -254.12065     102002.7      46.7237      46.7237      46.7237 
  318000    89.775548   -11485.183   -10620.823   -583.53742     102002.7      46.7237      46.7237      46.7237 
  319000    90.407601   -11471.466    -10601.02   -292.77979     102002.7      46.7237      46.7237      46.7237 
  320000    91.218327   -11455.691   -10577.439    -416.4327     102002.7      46.7237      46.7237      46.7237 
  321000    91.741874   -11466.923   -10583.631   -341.90133     102002.7      46.7237      46.7237      46.7237 
  322000    91.020449   -11485.133   -10608.787   -174.94416     102002.7      46.7237      46.7237      46.7237 
  323000    88.942267   -11467.931   -10611.593   -139.86084     102002.7      46.7237      46.7237      46.7237 
  324000    92.118351   -11480.881   -10593.964   -104.10855     102002.7      46.7237      46.7237      46.7237 
  325000    91.907641   -11475.687   -10590.799   -320.10113     102002.7      46.7237      46.7237      46.7237 
  326000    90.540861   -11492.827   -10621.098   -265.36031     102002.7      46.7237      46.7237      46.7237 
  327000    90.368624   -11468.617   -10598.547   -322.45263     102002.7      46.7237      46.7237      46.7237 
  328000    90.965523   -11483.722   -10607.904    -525.8674     102002.7      46.7237      46.7237      46.7237 
  329000    92.076954   -11486.571   -10600.053   -223.40059     102002.7      46.7237      46.7237      46.7237 
  330000    90.043455   -11467.879   -10600.939   -311.78535     102002.7      46.7237      46.7237      46.7237 
  331000    90.613145   -11490.086   -10617.661    -189.8518     102002.7      46.7237      46.7237      46.7237 
  332000    89.350939   -11460.008   -10599.735   -56.620699     102002.7      46.7237      46.7237      46.7237 
  333000    92.104348   -11477.151   -10590.369   -431.18481     102002.7      46.7237      46.7237      46.7237 
  334000     89.98696   -11474.955   -10608.559   -194.59268     102002.7      46.7237      46.7237      46.7237 
  335000    91.864323   -11491.654   -10607.182   -385.74803     102002.7      46.7237      46.7237      46.7237 
  336000     91.82126   -11449.587   -10565.531   -468.14018     102002.7      46.7237      46.7237      46.7237 
  337000    89.513566   -11480.342   -10618.504   -389.57681     102002.7      46.7237      46.7237      46.7237 
  338000    91.729828    -11477.76   -10594.584   -425.36474     102002.7      46.7237      46.7237      46.7237 
  339000    88.982398   -11469.197   -10612.473    -326.2775     102002.7      46.7237      46.7237      46.7237 
  340000    90.487522   -11462.194   -10590.978   -77.811596     102002.7      46.7237      46.7237      46.7237 
  341000    91.120004   -11476.211   -10598.906   -309.21744     102002.7      46.7237      46.7237      46.7237 
  342000    91.072016   -11466.787   -10589.944   -87.053956     102002.7      46.7237      46.7237      46.7237 
  343000    89.884327   -11461.561   -10596.153   -20.289646     102002.7      46.7237      46.7237      46.7237 
  344000    91.917698     -11477.5   -10592.515   -284.08096     102002.7      46.7237      46.7237      46.7237 
  345000    92.177882   -11485.218   -10597.727   -402.14558     102002.7      46.7237      46.7237      46.7237 
  346000    90.657592   -11473.539   -10600.687   -398.35815     102002.7      46.7237      46.7237      46.7237 
  347000    90.728829   -11469.707   -10596.168   -364.48877     102002.7      46.7237      46.7237      46.7237 
  348000    90.825104   -11460.279   -10585.814   -464.08778     102002.7      46.7237      46.7237      46.7237 
  349000    91.325992   -11481.471   -10602.183   -511.01119     102002.7      46.7237      46.7237      46.7237 
  350000    89.784167   -11449.304   -10584.861   -276.69832     102002.7      46.7237      46.7237      46.7237 
  351000    93.316219   -11467.686   -10569.236   -87.077185     102002.7      46.7237      46.7237      46.7237 
  352000    89.860821   -11476.485   -10611.304   -443.20597     102002.7      46.7237      46.7237      46.7237 
  353000    90.698364   -11471.056    -10597.81   -292.71949     102002.7      46.7237      46.7237      46.7237 
  354000      91.6724   -11470.253   -10587.629   -185.72626     102002.7      46.7237      46.7237      46.7237 
  355000    91.878266   -11475.162   -10590.556   -81.503063     102002.7      46.7237      46.7237      46.7237 
  356000    90.321037   -11471.222    -10601.61   -205.19272     102002.7      46.7237      46.7237      46.7237 
  357000     91.22024   -11461.027   -10582.757   -235.69268     102002.7      46.7237      46.7237      46.7237 
  358000    91.892689   -11462.566   -10577.822   -89.568438     102002.7      46.7237      46.7237      46.7237 
  359000    90.022751   -11480.074   -10613.334   -384.13491     102002.7      46.7237      46.7237      46.7237 
  360000      92.5635   -11454.854   -10563.651    12.381213     102002.7      46.7237      46.7237      46.7237 
  361000    91.752982   -11453.673   -10570.273   -436.37771     102002.7      46.7237      46.7237      46.7237 
  362000    90.727155   -11463.552    -10590.03   -355.21155     102002.7      46.7237      46.7237      46.7237 
  363000    91.764545   -11467.575   -10584.064   -411.13467     102002.7      46.7237      46.7237      46.7237 
  364000    90.908827   -11476.539   -10601.267    -374.4092     102002.7      46.7237      46.7237      46.7237 
  365000    90.213939   -11466.446   -10597.864   -265.72143     102002.7      46.7237      46.7237      46.7237 
  366000    92.806454   -11472.339   -10578.797   -186.47723     102002.7      46.7237      46.7237      46.7237 
  367000    93.510895   -11478.306   -10577.982   -480.73642     102002.7      46.7237      46.7237      46.7237 
  368000    91.630621   -11486.711    -10604.49   -599.49404     102002.7      46.7237      46.7237      46.7237 
  369000    90.162559   -11447.955   -10579.868   -401.74573     102002.7      46.7237      46.7237      46.7237 
  370000    91.004796   -11490.414   -10614.219   -532.11648     102002.7      46.7237      46.7237      46.7237 
  371000    92.455322   -11467.503   -10577.341   -397.70639     102002.7      46.7237      46.7237      46.7237 
  372000    93.026016    -11468.81   -10573.154   -325.05084     102002.7      46.7237      46.7237      46.7237 
  373000    88.795486   -11482.685   -10627.761   -177.98826     102002.7      46.7237      46.7237      46.7237 
  374000     91.22406   -11483.971   -10605.664   -132.81583     102002.7      46.7237      46.7237      46.7237 
  375000    93.522368   -11486.877   -10586.442   -532.91999     102002.7      46.7237      46.7237      46.7237 
  376000    91.496712   -11468.382    -10587.45   -322.14407     102002.7      46.7237      46.7237      46.7237 
  377000    92.844047   -11483.435   -10589.531   -353.52633     102002.7      46.7237      46.7237      46.7237 
  378000     90.82981   -11442.363   -10567.852   -446.56865     102002.7      46.7237      46.7237      46.7237 
  379000    89.339966   -11469.202   -10609.036   -263.85639     102002.7      46.7237      46.7237      46.7237 
  380000    90.418392   -11469.269   -10598.719     -340.112     102002.7      46.7237      46.7237      46.7237 
  381000    92.747253   -11474.864   -10581.892   -143.30309     102002.7      46.7237      46.7237      46.7237 
  382000    92.284734   -11481.161   -10592.642   -299.71855     102002.7      46.7237      46.7237      46.7237 
  383000    90.046068   -11463.825    -10596.86    -389.1809     102002.7      46.7237      46.7237      46.7237 
  384000    90.034506   -11476.271   -10609.417   -301.41702     102002.7      46.7237      46.7237      46.7237 
  385000    87.682915   -11453.152   -10608.939   -332.98937     102002.7      46.7237      46.7237      46.7237 
  386000    90.152601   -11436.384   -10568.393   -285.90151     102002.7      46.7237      46.7237      46.7237 
  387000    94.101869    -11454.53   -10548.515   -290.41267     102002.7      46.7237      46.7237      46.7237 
  388000    91.785525   -11457.946   -10574.234   -535.00803     102002.7      46.7237      46.7237      46.7237 
  389000    90.808211   -11483.936   -10609.633   -288.51828     102002.7      46.7237      46.7237      46.7237 
  390000    91.733457   -11454.564   -10571.353   -392.51745     102002.7      46.7237      46.7237      46.7237 
  391000    91.425835   -11479.784   -10599.535     -398.176     102002.7      46.7237      46.7237      46.7237 
  392000     88.25064   -11480.953   -10631.274   -201.64584     102002.7      46.7237      46.7237      46.7237 
  393000    91.696608   -11464.764   -10581.908   -116.02156     102002.7      46.7237      46.7237      46.7237 
  394000    90.981822   -11470.222   -10594.247   -201.96738     102002.7      46.7237      46.7237      46.7237 
  395000    90.853807   -11471.371   -10596.629   -284.04654     102002.7      46.7237      46.7237      46.7237 
  396000     90.65461   -11461.413   -10588.589   -220.27893     102002.7      46.7237      46.7237      46.7237 
  397000    91.416166   -11491.226    -10611.07   -384.35504     102002.7      46.7237      46.7237      46.7237 
  398000     90.14024   -11463.283   -10595.411    39.217278     102002.7      46.7237      46.7237      46.7237 
  399000    90.123833   -11464.124    -10596.41   -139.77069     102002.7      46.7237      46.7237      46.7237 
  400000    91.002109   -11457.766   -10581.596   -216.57632     102002.7      46.7237      46.7237      46.7237 
  401000    92.556089    -11471.99   -10580.858    -152.6455     102002.7      46.7237      46.7237      46.7237 
  402000    88.261856    -11463.55   -10613.763   -325.99275     102002.7      46.7237      46.7237      46.7237 
  403000    91.045128   -11476.937   -10600.353    111.18381     102002.7      46.7237      46.7237      46.7237 
  404000    91.559294   -11451.898   -10570.364   -116.17915     102002.7      46.7237      46.7237      46.7237 
  405000    92.021942   -11461.752   -10575.763    -195.4154     102002.7      46.7237      46.7237      46.7237 
  406000    90.151298   -11444.993   -10577.015    146.93643     102002.7      46.7237      46.7237      46.7237 
  407000    90.613458   -11465.599   -10593.171   -3.0288865     102002.7      46.7237      46.7237      46.7237 
  408000    91.747208   -11449.865   -10566.521   -19.106841     102002.7      46.7237      46.7237      46.7237 
  409000    92.077206   -11473.434   -10586.913   -183.69007     102002.7      46.7237      46.7237      46.7237 
  410000    91.807265   -11469.919   -10585.998   -45.189939     102002.7      46.7237      46.7237      46.7237 
  411000    94.197297   -11472.216   -10565.283   -38.009795     102002.7      46.7237      46.7237      46.7237 
  412000    90.645015   -11473.288   -10600.557   -449.44627     102002.7      46.7237      46.7237      46.7237 
  413000    92.353851   -11464.829   -10575.645   -419.04484     102002.7      46.7237      46.7237      46.7237 
  414000    91.659161   -11470.123   -10587.627   -143.11964     102002.7      46.7237      46.7237      46.7237 
  415000    89.414497   -11476.592   -10615.708    -231.2212     102002.7      46.7237      46.7237      46.7237 
  416000    91.796211   -11470.094   -10586.279   -71.388177     102002.7      46.7237      46.7237      46.7237 
  417000    91.735322   -11444.988   -10561.759   -277.62679     102002.7      46.7237      46.7237      46.7237 
  418000    89.757223   -11475.373   -10611.189   -319.33681     102002.7      46.7237      46.7237      46.7237 
  419000    90.467424     -11475.3   -10604.278   -282.33342     102002.7      46.7237      46.7237      46.7237 
  420000     92.47189   -11479.774   -10589.453    54.605544     102002.7      46.7237      46.7237      46.7237 
  421000    92.652598   -11483.562   -10591.501   -272.79501     102002.7      46.7237      46.7237      46.7237 
  422000    92.048962   -11471.862   -10585.613    -171.8459     102002.7      46.7237      46.7237      46.7237 
  423000    92.486463   -11469.799   -10579.338    15.982166     102002.7      46.7237      46.7237      46.7237 
  424000    88.621959   -11473.729   -10620.476   -237.58977     102002.7      46.7237      46.7237      46.7237 
  425000    90.162732   -11469.895   -10601.807   -206.24817     102002.7      46.7237      46.7237      46.7237 
  426000    88.523564   -11476.035   -10623.728   -309.10428     102002.7      46.7237      46.7237      46.7237 
  427000    89.932798   -11459.956   -10594.081   -397.18686     102002.7      46.7237      46.7237      46.7237 
  428000       91.086   -11446.179   -10569.202    114.89733     102002.7      46.7237      46.7237      46.7237 
  429000    90.679297   -11465.029   -10591.967   -35.614576     102002.7      46.7237      46.7237      46.7237 
  430000    92.692891   -11460.042   -10567.594   -446.12676     102002.7      46.7237      46.7237      46.7237 
  431000    92.172899    -11474.75   -10587.308   -123.64178     102002.7      46.7237      46.7237      46.7237 
  432000    91.342125   -11452.753    -10573.31   -104.11081     102002.7      46.7237      46.7237      46.7237 
  433000    88.097525   -11475.135    -10626.93    -252.3242     102002.7      46.7237      46.7237      46.7237 
  434000    90.522267   -11455.447   -10583.897    -14.26871     102002.7      46.7237      46.7237      46.7237 
  435000    88.895998   -11469.152    -10613.26   -352.94536     102002.7      46.7237      46.7237      46.7237 
  436000    92.348485   -11454.534   -10565.401     54.49991     102002.7      46.7237      46.7237      46.7237 
  437000    90.499339   -11463.994   -10592.665   -247.01939     102002.7      46.7237      46.7237      46.7237 
  438000    90.905967   -11470.958   -10595.713   -559.59982     102002.7      46.7237      46.7237      46.7237 
  439000    90.341165   -11439.638   -10569.831    12.874844     102002.7      46.7237      46.7237      46.7237 
  440000     92.14115   -11461.847   -10574.711   -95.131522     102002.7      46.7237      46.7237      46.7237 
  441000    91.811046   -11473.807   -10589.849   -229.71108     102002.7      46.7237      46.7237      46.7237 
  442000    89.252561   -11458.647   -10599.322   -327.89501     102002.7      46.7237      46.7237      46.7237 
  443000    90.535241   -11491.019   -10619.344   -364.83333     102002.7      46.7237      46.7237      46.7237 
  444000    92.626405   -11470.084   -10578.275   -126.45353     102002.7      46.7237      46.7237      46.7237 
  445000    88.922108    -11462.52   -10606.377   -112.85025     102002.7      46.7237      46.7237      46.7237 
  446000    92.095305   -11462.692   -10575.997    11.199236     102002.7      46.7237      46.7237      46.7237 
  447000    91.922767   -11478.371   -10593.337   -10.925408     102002.7      46.7237      46.7237      46.7237 
  448000    90.396138   -11485.068   -10614.733     -28.1805     102002.7      46.7237      46.7237      46.7237 
  449000     90.36585   -11456.523   -10586.479   -37.087868     102002.7      46.7237      46.7237      46.7237 
  450000    89.993819   -11501.054   -10634.592   -240.17197     102002.7      46.7237      46.7237      46.7237 
  451000    91.568532   -11470.923   -10589.299   -244.90826     102002.7      46.7237      46.7237      46.7237 
  452000    89.240844   -11460.311   -10601.099   -225.99963     102002.7      46.7237      46.7237      46.7237 
  453000    91.517131   -11490.424   -10609.296   -308.17982     102002.7      46.7237      46.7237      46.7237 
  454000     91.07085   -11464.748   -10587.916   -88.160642     102002.7      46.7237      46.7237      46.7237 
  455000    91.667738   -11447.762   -10565.183   -17.040708     102002.7      46.7237      46.7237      46.7237 
  456000    90.423111   -11461.098   -10590.503   -166.81837     102002.7      46.7237      46.7237      46.7237 
  457000    89.720384   -11479.293   -10615.463   -78.275946     102002.7      46.7237      46.7237      46.7237 
  458000     90.32801    -11460.04    -10590.36   -320.39702     102002.7      46.7237      46.7237      46.7237 
  459000    92.198499   -11463.408   -10575.719   -108.04204     102002.7      46.7237      46.7237      46.7237 
  460000     91.48896   -11458.422   -10577.565   -59.947512     102002.7      46.7237      46.7237      46.7237 
  461000    89.588801   -11470.116   -10607.553   -142.48123     102002.7      46.7237      46.7237      46.7237 
  462000    91.503667   -11470.557   -10589.558   -204.54582     102002.7      46.7237      46.7237      46.7237 
  463000    90.671108   -11464.532   -10591.549    -243.0517     102002.7      46.7237      46.7237      46.7237 
  464000    90.864364   -11461.749   -10586.906   -369.33312     102002.7      46.7237      46.7237      46.7237 
  465000    89.648919   -11475.662   -10612.521   -300.42727     102002.7      46.7237      46.7237      46.7237 
  466000     93.73816   -11488.769   -10586.257   -207.71312     102002.7      46.7237      46.7237      46.7237 
  467000    88.735582   -11472.272   -10617.925   -403.81182     102002.7      46.7237      46.7237      46.7237 
  468000    91.095755   -11469.715   -10592.643   -218.82451     102002.7      46.7237      46.7237      46.7237 
  469000    93.580176   -11492.549   -10591.557   -355.44957     102002.7      46.7237      46.7237      46.7237 
  470000     90.75521   -11449.715   -10575.922   -374.18917     102002.7      46.7237      46.7237      46.7237 
  471000     89.37498   -11466.627   -10606.124   -218.33485     102002.7      46.7237      46.7237      46.7237 
  472000    91.435642   -11474.761   -10594.417      -405.86     102002.7      46.7237      46.7237      46.7237 
  473000    88.950179   -11443.743   -10587.329   -326.26534     102002.7      46.7237      46.7237      46.7237 
  474000     92.45389   -11480.365   -10590.218   -177.84535     102002.7      46.7237      46.7237      46.7237 
  475000    91.351484   -11446.978   -10567.444    -429.2629     102002.7      46.7237      46.7237      46.7237 
  476000    93.271772   -11462.774   -10564.752   -276.03721     102002.7      46.7237      46.7237      46.7237 
  477000     90.68614   -11494.573   -10621.445   -203.15293     102002.7      46.7237      46.7237      46.7237 
  478000    92.675657   -11473.436   -10581.153   -507.00106     102002.7      46.7237      46.7237      46.7237 
  479000    89.496405   -11457.305   -10595.632   -200.03888     102002.7      46.7237      46.7237      46.7237 
  480000    90.804998   -11468.579   -10594.307   -183.54466     102002.7      46.7237      46.7237      46.7237 
  481000    86.934302   -11471.195    -10634.19   -356.37294     102002.7      46.7237      46.7237      46.7237 
  482000    91.795012   -11500.823   -10617.019   -578.59735     102002.7      46.7237      46.7237      46.7237 
  483000    91.430498   -11448.987   -10568.693   -288.21152     102002.7      46.7237      46.7237      46.7237 
  484000      92.3405   -11454.631   -10565.575    -162.7394     102002.7      46.7237      46.7237      46.7237 
  485000    91.945738    -11472.38   -10587.125   -197.09889     102002.7      46.7237      46.7237      46.7237 
  486000    89.571172    -11471.32   -10608.927   -229.43693     102002.7      46.7237      46.7237      46.7237 
  487000    91.177281   -11470.009   -10592.152   -64.993747     102002.7      46.7237      46.7237      46.7237 
  488000    91.226604   -11469.295   -10590.964   -319.78416     102002.7      46.7237      46.7237      46.7237 
  489000    90.617045   -11463.186   -10590.724    45.953958     102002.7      46.7237      46.7237      46.7237 
  490000    91.863435   -11452.713   -10568.251   -138.56581     102002.7      46.7237      46.7237      46.7237 
  491000    90.657273   -11466.086   -10593.236   -594.19561     102002.7      46.7237      46.7237      46.7237 
  492000     90.13586   -11479.003   -10611.174    -108.1747     102002.7      46.7237      46.7237      46.7237 
  493000    91.236748   -11448.017   -10569.588   -329.06828     102002.7      46.7237      46.7237      46.7237 
  494000    88.888021   -11468.167   -10612.352   -213.95789     102002.7      46.7237      46.7237      46.7237 
  495000    91.451825   -11476.887   -10596.387   -269.39746     102002.7      46.7237      46.7237      46.7237 
  496000    89.816289    -11466.84   -10602.087   -495.26977     102002.7      46.7237      46.7237      46.7237 
  497000    92.633971   -11489.181   -10597.299   -169.82955     102002.7      46.7237      46.7237      46.7237 
  498000     90.78851   -11495.101   -10620.988   -510.75812     102002.7      46.7237      46.7237      46.7237 
  499000    91.676778   -11472.415   -10589.749   -588.31046     102002.7      46.7237      46.7237      46.7237 
  500000    91.959867   -11467.591     -10582.2   -253.99045     102002.7      46.7237      46.7237      46.7237 
  500500    90.455551   -11477.657    -10606.75   -370.12875     102002.7      46.7237      46.7237      46.7237 
Loop time of 1808.79 on 16 procs for 500000 steps with 3231 atoms

Performance: 23.883 ns/day, 1.005 hours/ns, 276.428 timesteps/s
99.8% CPU use with 16 MPI tasks x no OpenMP threads

MPI task timing breakdown:
Section |  min time  |  avg time  |  max time  |%varavg| %total
---------------------------------------------------------------
Pair    | 1005.8     | 1176.6     | 1420.7     | 337.6 | 65.05
Bond    | 135.26     | 174.72     | 210.89     | 158.1 |  9.66
Neigh   | 14.338     | 14.365     | 14.393     |   0.4 |  0.79
Comm    | 180.66     | 425.65     | 591.48     | 568.7 | 23.53
Output  | 0.020881   | 0.021402   | 0.025208   |   0.7 |  0.00
Modify  | 9.4001     | 10.389     | 12.014     |  25.3 |  0.57
Other   |            | 7.027      |            |       |  0.39

Nlocal:    201.938 ave 222 max 182 min
Histogram: 3 1 1 0 1 2 4 0 2 2
Nghost:    4081 ave 4117 max 4047 min
Histogram: 1 1 3 2 0 3 2 2 1 1
Neighs:    11451.2 ave 16811 max 7398 min
Histogram: 2 0 4 0 5 1 0 2 1 1

Total # of neighbors = 183219
Ave neighs/atom = 56.7066
Ave special neighs/atom = 3.56546
Neighbor list builds = 4170
Dangerous builds = 0
Neighbor list info ...
  update every 1 steps, delay 10 steps, check yes
  max neighbors/atom: 2000, page size: 100000
  master list distance cutoff = 16
  ghost atom cutoff = 16
  binsize = 8, bins = 6 6 6
  3 neighbor lists, perpetual/occasional/extra = 3 0 0
  (1) pair buck6d/coul/gauss/dsf, perpetual, skip from (3)
      attributes: half, newton on
      pair build: skip
      stencil: none
      bin: none
  (2) pair lj/cut, perpetual, skip from (3)
      attributes: half, newton on
      pair build: skip
      stencil: none
      bin: none
  (3) neighbor class addition, perpetual
      attributes: half, newton on
      pair build: half/bin/newton
      stencil: half/bin/3d/newton
      bin: standard
Setting up Verlet run ...
  Unit style    : real
  Current step  : 500500
  Time step     : 1
WARNING: Inconsistent image flags (../domain.cpp:786)
Per MPI rank memory allocation (min/avg/max) = 22.67 | 23.16 | 23.44 Mbytes
Step Time TotEng KinEng PotEng E_mol E_pair Temp Pxx Pyy Pzz Pxy Pxz Pyz Cella Cellb Cellc CellAlpha CellBeta CellGamma Volume Press 
  500500       500000    -10606.75    870.90753   -11477.657    4175.7443   -15653.402    90.455551   -462.66763   -827.63355    179.91495    184.70838    307.45961    31.241038      46.7237      46.7237      46.7237           90           90           90     102002.7   -370.12875 
  501000       500500   -10591.556    869.16328   -11460.719     4199.939   -15660.658    90.274387   -234.42268   -745.24372    264.86699    249.45381   -100.07173    72.893992      46.7237      46.7237      46.7237           90           90           90     102002.7   -238.26647 
  502000       501500   -10571.161      883.208   -11454.369    4208.5764   -15662.945    91.733121    29.352437   -684.03305   -473.53605    288.58841   -180.16132    20.230812      46.7237      46.7237      46.7237           90           90           90     102002.7   -376.07222 
  503000       502500   -10572.448     900.1274   -11472.575    4190.2536   -15662.829     93.49043    314.36567    19.245091   -199.16102    76.051474    110.97198   -12.552162      46.7237      46.7237      46.7237           90           90           90     102002.7    44.816579 
  504000       503500   -10597.507     867.7556   -11465.263    4173.6348   -15638.897     90.12818    50.463749   -28.861722   -577.83495    95.543961    63.240454   -181.92482      46.7237      46.7237      46.7237           90           90           90     102002.7   -185.41097 
  505000       504500   -10605.952    871.79954   -11477.752    4184.7294   -15662.481    90.548198   -490.15299   -338.85243   -72.718364    21.030649    175.68214   -49.474242      46.7237      46.7237      46.7237           90           90           90     102002.7    -300.5746 
  506000       505500   -10579.883     873.9458   -11453.829    4202.1422   -15655.971    90.771117   -312.67629   -212.45977   -103.86638   -101.71501   -11.821645   -267.61665      46.7237      46.7237      46.7237           90           90           90     102002.7   -209.66748 
  507000       506500   -10603.855      879.073   -11482.928    4181.6334   -15664.561    91.303645   -686.82013   -433.77375   -652.51575     331.4897   -261.80938    4.8579694      46.7237      46.7237      46.7237           90           90           90     102002.7   -591.03654 
  508000       507500   -10543.618    892.69791   -11436.316    4205.9724   -15642.289    92.718777   -97.118277    325.10415    153.87357   -108.55672    91.697668    111.71227      46.7237      46.7237      46.7237           90           90           90     102002.7    127.28648 
  509000       508500   -10593.799    868.15211   -11461.951    4165.1198    -15627.07    90.169363   -63.629006   -480.27678   -56.467082     -44.8707    321.15254    63.048659      46.7237      46.7237      46.7237           90           90           90     102002.7   -200.12429 
  510000       509500   -10618.396    868.43564   -11486.832    4156.3726   -15643.204    90.198811   -328.13432    -75.74246   -224.13285     -7.75932     31.09471    35.338485      46.7237      46.7237      46.7237           90           90           90     102002.7   -209.33654 
  511000       510500   -10608.199    865.07877   -11473.278    4193.9112   -15667.189    89.850155   -211.96444   -324.05759    -211.3364   -131.81407    132.07472    63.994959      46.7237      46.7237      46.7237           90           90           90     102002.7   -249.11948 
  512000       511500   -10597.449     882.4618    -11479.91    4164.6541   -15644.565    91.655619   -312.91655   -33.996038   -21.702423    -129.7062   -196.51804    130.42521      46.7237      46.7237      46.7237           90           90           90     102002.7   -122.87167 
  513000       512500   -10604.005    877.76694   -11481.772     4175.789   -15657.561    91.167993   -463.56682   -311.75557   -251.38803    76.690323   -57.542665    253.74503      46.7237      46.7237      46.7237           90           90           90     102002.7   -342.23681 
  514000       513500    -10600.08    882.43552   -11482.515    4186.7513   -15669.267    91.652889   -219.11567   -466.01411   -364.88944    57.211142   -13.373741     14.64192      46.7237      46.7237      46.7237           90           90           90     102002.7   -350.00641 
  515000       514500   -10621.642    863.90793    -11485.55    4175.1824   -15660.732    89.728547   -586.72446   -597.57057   -415.06817   -90.192806   -66.185056   -61.655097      46.7237      46.7237      46.7237           90           90           90     102002.7   -533.12107 
  516000       515500     -10581.3    886.89207   -11468.192    4171.3736   -15639.566    92.115762   -182.10303   -456.94757   -217.87291   -235.41575    91.160817     -76.4322      46.7237      46.7237      46.7237           90           90           90     102002.7   -285.64117 
  517000       516500   -10557.534    898.01895   -11455.553    4190.6688   -15646.222    93.271439   -751.68069    204.40322   -353.58589   -218.34557    139.70152    115.39045      46.7237      46.7237      46.7237           90           90           90     102002.7   -300.28779 
  518000       517500   -10580.806    884.46101   -11465.267    4188.6815   -15653.949    91.863263   -296.92152   -415.53098    -214.2741   -7.1878661   -16.868088   -77.201032      46.7237      46.7237      46.7237           90           90           90     102002.7   -308.90887 
  519000       518500   -10586.477    861.42605   -11447.903    4184.4839   -15632.387    89.470771   -662.07632   -164.05822   -270.28014    46.625708     19.29789   -312.19662      46.7237      46.7237      46.7237           90           90           90     102002.7   -365.47156 
  520000       519500   -10586.403    864.92262   -11451.325    4182.7222   -15634.047    89.833937   -136.45555    -501.1564   -486.55071   -27.239356   -55.185639    199.78448      46.7237      46.7237      46.7237           90           90           90     102002.7   -374.72089 
  521000       520500   -10582.136    882.71428    -11464.85    4165.7874   -15630.637    91.681842   -207.40662    19.034772   -104.21087   -88.039438   -103.00791   -113.59236      46.7237      46.7237      46.7237           90           90           90     102002.7   -97.527571 
  522000       521500   -10574.658    879.07484   -11453.733    4190.8644   -15644.597    91.303837   -314.28568   -220.06396     50.22212    252.95471   -25.184419    59.758618      46.7237      46.7237      46.7237           90           90           90     102002.7   -161.37584 
  523000       522500    -10596.13    876.85719   -11472.988    4190.7543   -15663.742    91.073503   -649.69275   -389.16114   -341.70004    93.279588   -71.422339   -219.68571      46.7237      46.7237      46.7237           90           90           90     102002.7   -460.18465 
  524000       523500    -10580.64    895.96571   -11476.605    4174.2116   -15650.817    93.058183   -243.34472   -63.163641   -286.17553    51.328199   -168.19176   -248.02733      46.7237      46.7237      46.7237           90           90           90     102002.7    -197.5613 
  525000       524500   -10550.054    909.55821   -11459.612    4208.4914   -15668.103    94.469947   -595.93161   -679.47433   -835.49038   -48.583744   -157.16603    14.159628      46.7237      46.7237      46.7237           90           90           90     102002.7    -703.6321 
  526000       525500   -10577.604    888.90833   -11466.512      4173.08   -15639.592    92.325178   -464.94716    32.740102   -145.99778    66.113544   -25.707897     51.20451      46.7237      46.7237      46.7237           90           90           90     102002.7   -192.73495 
  527000       526500   -10588.959    887.53175    -11476.49    4161.1193    -15637.61    92.182201   -85.337049   -591.18579    50.460361   -42.910731    17.552385    87.183266      46.7237      46.7237      46.7237           90           90           90     102002.7   -208.68749 
  528000       527500   -10565.137    889.72403   -11454.861    4191.0869   -15645.948    92.409899   -351.66246   -64.342029   -327.00827   -33.656838   -197.78616    87.546091      46.7237      46.7237      46.7237           90           90           90     102002.7   -247.67092 
  529000       528500    -10611.93    865.63801   -11477.568    4170.4706   -15648.038     89.90824   -354.48271   -171.12513    162.05076   -187.71816    213.02802    -116.8964      46.7237      46.7237      46.7237           90           90           90     102002.7   -121.18569 
  530000       529500   -10577.688    890.76767   -11468.456    4192.3068   -15660.762    92.518296   -187.52951   -188.66257   -843.91089   -77.111657   -18.788398   -95.651196      46.7237      46.7237      46.7237           90           90           90     102002.7   -406.70099 
  531000       530500   -10554.788    895.38168    -11450.17    4188.9817   -15639.152    92.997522   -444.11231   -73.929849    233.88886   -152.89126   -201.41048    25.406622      46.7237      46.7237      46.7237           90           90           90     102002.7   -94.717767 
  532000       531500   -10579.132    894.37167   -11473.504    4188.4492   -15661.953     92.89262   -372.25369    81.102731   -520.35647    147.67082    110.01649    155.76542      46.7237      46.7237      46.7237           90           90           90     102002.7   -270.50248 
  533000       532500   -10619.357     869.2677   -11488.625    4174.6073   -15663.232    90.285232   -196.22068   -89.789353   -456.41606    109.95592   -143.67533    141.06663      46.7237      46.7237      46.7237           90           90           90     102002.7   -247.47537 
  534000       533500   -10584.847    885.91757   -11470.765    4189.0973   -15659.862    92.014547   -385.61134   -461.12155   -422.68193     217.6114    174.65001    52.947226      46.7237      46.7237      46.7237           90           90           90     102002.7   -423.13827 
  535000       534500   -10584.223    856.32672    -11440.55    4183.7657   -15624.316    88.941136   -287.53471    110.12826   -151.26057   -11.542767    394.96761    79.315982      46.7237      46.7237      46.7237           90           90           90     102002.7   -109.55567 
  536000       535500   -10601.154    863.42982   -11464.584     4174.348   -15638.932    89.678889   -297.59077    213.68415    -16.91992    77.901562    42.881852    99.029766      46.7237      46.7237      46.7237           90           90           90     102002.7   -33.608846 
  537000       536500   -10601.569    877.24654   -11478.815    4162.6992   -15641.514    91.113943   -271.97113   -348.94231   -204.40912   -88.089889     85.48651   -109.58564      46.7237      46.7237      46.7237           90           90           90     102002.7   -275.10752 
  538000       537500   -10557.208    905.78414   -11462.992    4165.1576    -15628.15    94.077959    64.737736   -257.10881   -140.40146    5.7059831    117.09618   -71.809936      46.7237      46.7237      46.7237           90           90           90     102002.7   -110.92418 
  539000       538500   -10611.727    869.29443   -11481.022    4182.0616   -15663.083    90.288008   -507.01329   -450.58472    175.81903    86.863432    93.486705   -16.889623      46.7237      46.7237      46.7237           90           90           90     102002.7   -260.59299 
  540000       539500   -10585.248    881.26959   -11466.518    4169.9316   -15636.449    91.531791   -501.20048      206.405    9.7327194    153.21901     15.97596    119.50874      46.7237      46.7237      46.7237           90           90           90     102002.7   -95.020919 
  541000       540500   -10575.308    878.61755   -11453.926    4189.7553   -15643.681    91.256341   -180.87296   -347.77164   -203.09388    201.87567    15.252469   -38.681679      46.7237      46.7237      46.7237           90           90           90     102002.7   -243.91282 
  542000       541500   -10613.055    849.78231   -11462.838    4184.8224    -15647.66     88.26141   -250.16497    -97.61105   -729.55372   -62.291424   -125.59488   -158.15189      46.7237      46.7237      46.7237           90           90           90     102002.7   -359.10991 
  543000       542500   -10612.098    886.88301   -11498.981    4156.8318   -15655.813     92.11482   -269.37782   -507.31606   -594.31977    1.8771025    43.276876   -49.814579      46.7237      46.7237      46.7237           90           90           90     102002.7   -457.00455 
  544000       543500   -10586.335    874.22456    -11460.56    4180.4473   -15641.007    90.800069   -370.82709   -539.36212   -235.08924    109.57791    154.48456    18.025441      46.7237      46.7237      46.7237           90           90           90     102002.7   -381.75948 
  545000       544500   -10619.231    852.59415   -11471.825    4164.5527   -15636.378    88.553458   -46.993447    -381.7393   -183.15287   -131.09252     3.157396   -86.478551      46.7237      46.7237      46.7237           90           90           90     102002.7   -203.96187 
  546000       545500   -10602.726    874.46927   -11477.195    4182.1873   -15659.383    90.825485   -499.41856   -128.98687    3.6355282   -74.862661    98.594441    20.568066      46.7237      46.7237      46.7237           90           90           90     102002.7   -208.25663 
  547000       546500   -10588.549    873.87459   -11462.424    4182.6896   -15645.114     90.76372   -267.69286    -242.8579   -435.81049     24.85068   -230.46994   -130.90414      46.7237      46.7237      46.7237           90           90           90     102002.7   -315.45375 
  548000       547500   -10575.944    887.89418   -11463.839    4181.7954   -15645.634    92.219844   -154.74082   -139.55816   -467.70771    167.77674   -144.19281    96.085287      46.7237      46.7237      46.7237           90           90           90     102002.7   -254.00223 
  549000       548500   -10617.752    855.53183   -11473.284     4174.172   -15647.456    88.858576   -608.40789   -447.44746   -535.34074    319.60578   -169.70099    26.419378      46.7237      46.7237      46.7237           90           90           90     102002.7   -530.39869 
  550000       549500   -10602.417    897.31773   -11499.735    4164.2482   -15663.983    93.198608   -229.52369   -112.43471   -592.15793   -179.55506  -0.28515304   -132.36395      46.7237      46.7237      46.7237           90           90           90     102002.7   -311.37211 
  551000       550500   -10575.066    884.90451    -11459.97    4183.2668   -15643.237    91.909326    -463.7529   -247.90092   -138.42845   -123.04763    89.794524    190.88635      46.7237      46.7237      46.7237           90           90           90     102002.7   -283.36076 
  552000       551500   -10617.991    851.38061   -11469.372    4189.1608   -15658.533    88.427416   -610.43846    -784.2363    -728.6743   -170.99877     46.29546   -4.4925885      46.7237      46.7237      46.7237           90           90           90     102002.7   -707.78302 
  553000       552500   -10624.124     857.4502   -11481.574    4166.6553    -15648.23    89.057824   -200.86539   -40.286452   -252.49937    -10.69328    149.91576    115.60731      46.7237      46.7237      46.7237           90           90           90     102002.7    -164.5504 
  554000       553500   -10591.828    880.87631   -11472.705    4156.3476   -15629.052    91.490943   -71.306101   -65.188428   -373.66734   -215.81901   -77.779412   -144.95293      46.7237      46.7237      46.7237           90           90           90     102002.7   -170.05396 
  555000       554500   -10595.246    871.62473   -11466.871     4175.886   -15642.757    90.530042   -266.24257   -549.73081   -372.76229    165.82771    117.58113   -103.02646      46.7237      46.7237      46.7237           90           90           90     102002.7   -396.24522 
[...]
  936000       935500   -10613.529    866.56007   -11480.089    4195.2011   -15675.291    90.004008   -540.43667    -324.6567   -516.62498    252.93798   -32.797302   -66.859031      46.7237      46.7237      46.7237           90           90           90     102002.7   -460.57278 
  937000       936500   -10611.731    864.81938    -11476.55    4186.4855   -15663.036    89.823214   -400.49682   -351.78657   -155.93809    17.774224    19.461236   -3.7286187      46.7237      46.7237      46.7237           90           90           90     102002.7    -302.7405 
  938000       937500    -10570.01     877.4631   -11447.473    4185.8992   -15633.372    91.136436   -753.93316    170.57576   -285.88704     187.4423    140.22638   -213.87546      46.7237      46.7237      46.7237           90           90           90     102002.7   -289.74815 
  939000       938500   -10609.564    870.77817   -11480.342    4181.5496   -15661.892    90.442115   -142.11471   -372.94009   -182.25007   -122.39888   -163.55547   -113.41039      46.7237      46.7237      46.7237           90           90           90     102002.7   -232.43496 
  940000       939500   -10586.893    876.50154   -11463.395    4196.9784   -15660.373    91.036564   -137.51895   -611.80898   -65.999886   -220.63181    34.219833    158.31753      46.7237      46.7237      46.7237           90           90           90     102002.7   -271.77594 
  941000       940500   -10611.629    865.68316   -11477.313    4164.9062   -15642.219    89.912929   -52.493762   -137.68302   -453.76426    27.501146   -178.08788     36.70171      46.7237      46.7237      46.7237           90           90           90     102002.7   -214.64701 
  942000       941500   -10578.627    872.14518   -11450.772    4184.5343   -15635.306    90.584098   -35.681442   -354.28306   -291.34049    48.330903    47.498683     46.06209      46.7237      46.7237      46.7237           90           90           90     102002.7   -227.10166 
  943000       942500   -10636.323    863.00837   -11499.332    4174.4832   -15673.815    89.635115   -392.40565    -460.2463   -747.89148    248.11059    -169.6451   -261.73271      46.7237      46.7237      46.7237           90           90           90     102002.7   -533.51448 
  944000       943500   -10604.689    865.94025   -11470.629    4184.0955   -15654.724    89.939632   -863.70338   -396.34618    -426.5554   -255.17716     147.5056    25.781582      46.7237      46.7237      46.7237           90           90           90     102002.7   -562.20166 
  945000       944500   -10613.165    861.74865   -11474.914    4176.0561    -15650.97    89.504277   -832.03543   -765.88074   -300.33901   -137.93412   -158.06749   -19.239583      46.7237      46.7237      46.7237           90           90           90     102002.7   -632.75173 
  946000       945500   -10569.256    897.14347   -11466.399    4181.4283   -15647.828    93.180509   -624.26914   -495.20279    111.07103   -162.42357   -33.358406   -60.862718      46.7237      46.7237      46.7237           90           90           90     102002.7   -336.13363 
  947000       946500   -10590.677    875.17035   -11465.847    4196.3829    -15662.23    90.898302   -567.30591   -224.30216    104.39626   -52.497398     63.69463    124.65789      46.7237      46.7237      46.7237           90           90           90     102002.7    -229.0706 
  948000       947500   -10590.501    890.85916    -11481.36    4183.2766   -15664.636    92.527798   -481.98926   -415.61858   -649.42581   -92.827693    142.15752   -163.77328      46.7237      46.7237      46.7237           90           90           90     102002.7   -515.67788 
  949000       948500   -10581.076    882.85575   -11463.932    4193.3721   -15657.304    91.696535   -780.02655   -435.06562   -68.297655   -196.39686   -176.08623   -83.530262      46.7237      46.7237      46.7237           90           90           90     102002.7   -427.79661 
  950000       949500   -10585.873    890.75828   -11476.632     4180.976   -15657.608     92.51732   -342.32962    -363.9994   -8.6934654    -31.43661    208.38581   -242.17983      46.7237      46.7237      46.7237           90           90           90     102002.7   -238.34083 
  951000       950500   -10579.233    889.09171   -11468.325     4168.846   -15637.171    92.344224   -386.23128    376.29291    141.03054    86.515659    -125.0005   -148.02515      46.7237      46.7237      46.7237           90           90           90     102002.7    43.697388 
  952000       951500   -10601.628     883.1967   -11484.824    4179.5902   -15664.414    91.731947   -500.51567   -420.84506   -111.06852    203.02089    36.475896    100.46916      46.7237      46.7237      46.7237           90           90           90     102002.7   -344.14308 
  953000       952500   -10588.345    882.73933   -11471.085    4187.7508   -15658.836    91.684443   -341.14949   -33.545106   -193.57857   -65.984783    200.09949    153.78806      46.7237      46.7237      46.7237           90           90           90     102002.7   -189.42439 
  954000       953500    -10583.46    882.27964   -11465.739    4191.8375   -15657.577    91.636698   -35.282509   -214.75343    60.882984   -338.53087    11.767312    380.72305      46.7237      46.7237      46.7237           90           90           90     102002.7   -63.050986 
  955000       954500   -10584.728    884.54548   -11469.274    4186.2559    -15655.53    91.872036   -198.91189   -335.54722    21.935733    17.790684   -52.466534    34.486041      46.7237      46.7237      46.7237           90           90           90     102002.7   -170.84112 
  956000       955500   -10610.618    876.04401   -11486.662    4164.6901   -15651.352    90.989043    90.248612    493.08552   -474.95997    73.258956   -116.84784     36.65738      46.7237      46.7237      46.7237           90           90           90     102002.7     36.12472 
  957000       956500   -10585.363    873.64069   -11459.004    4167.1011   -15626.105    90.739427    103.85767   -341.82328   -230.89279    167.14368    313.62253    -56.24386      46.7237      46.7237      46.7237           90           90           90     102002.7   -156.28614 
  958000       957500   -10588.706    884.52381    -11473.23    4172.6866   -15645.917    91.869786   -296.00883   -486.86757   -70.461634     154.1789    68.157332   -24.851827      46.7237      46.7237      46.7237           90           90           90     102002.7   -284.44601 
  959000       958500   -10585.687    881.14953   -11466.837    4175.1556   -15641.993    91.519321    -364.2656   -433.05381   -457.03294    43.381217    152.55786   -108.76536      46.7237      46.7237      46.7237           90           90           90     102002.7   -418.11745 
  960000       959500   -10571.671     889.0009   -11460.672    4188.9585   -15649.631    92.334792   -543.05481   -331.02888   -186.26214   -247.70087   -125.45207   -33.468461      46.7237      46.7237      46.7237           90           90           90     102002.7   -353.44861 
  961000       960500   -10582.621    883.64175   -11466.262    4170.2982   -15636.561    91.778172   -392.22651   -131.53599   -738.21469   -76.957184   -11.622926   -112.34985      46.7237      46.7237      46.7237           90           90           90     102002.7   -420.65906 
  962000       961500   -10608.678    854.85283    -11463.53    4175.1323   -15638.663    88.788052    -406.0625   -490.85997   -234.41988    145.64564    55.091062    63.009753      46.7237      46.7237      46.7237           90           90           90     102002.7   -377.11411 
  963000       962500    -10640.02    849.89459   -11489.915    4167.3089   -15657.223    88.273072   -199.04146   -409.76947   -764.13571    191.60488    43.752246    137.19782      46.7237      46.7237      46.7237           90           90           90     102002.7   -457.64888 
  964000       963500    -10597.44    865.00381   -11462.444    4178.7692   -15641.213     89.84237   -553.10797   -76.072315   -592.53155   -44.091489   -168.25505    59.417692      46.7237      46.7237      46.7237           90           90           90     102002.7   -407.23728 
  965000       964500   -10587.611    892.78755   -11480.399    4168.5386   -15648.937    92.728087   -576.60018   -364.45842    61.237687   -163.96831    49.573482    69.672086      46.7237      46.7237      46.7237           90           90           90     102002.7   -293.27364 
  966000       965500   -10591.618    869.38093   -11460.999    4189.3026   -15650.301    90.296992   -297.51998   -511.63241   -352.15322   -27.629261   -163.02143   -93.241873      46.7237      46.7237      46.7237           90           90           90     102002.7   -387.10187 
  967000       966500   -10587.861    872.78947   -11460.651    4182.2132   -15642.864    90.651015   -178.82517   -113.09625   -53.308463    219.87214    11.693071   -101.37694      46.7237      46.7237      46.7237           90           90           90     102002.7   -115.07663 
  968000       967500   -10577.211    879.43777   -11456.649    4170.2718   -15626.921    91.341531    -309.0136   -399.48361    -134.8616    29.326788    153.85609    92.136558      46.7237      46.7237      46.7237           90           90           90     102002.7    -281.1196 
  969000       968500   -10592.746    879.99365   -11472.739    4172.8039   -15645.543    91.399267   -57.985552   -125.72121   -219.95768   -188.97658    52.232898   -100.05036      46.7237      46.7237      46.7237           90           90           90     102002.7   -134.55481 
  970000       969500   -10592.376    884.87612   -11477.252    4191.1638   -15668.415    91.906378   -283.57435   -77.980972   -396.78103    16.704433   -20.096409    148.59449      46.7237      46.7237      46.7237           90           90           90     102002.7   -252.77878 
  971000       970500   -10601.142    863.54954   -11464.692    4177.7082     -15642.4    89.691324   -290.45301   -123.57103   -509.95633    -111.2569    393.18558    40.467597      46.7237      46.7237      46.7237           90           90           90     102002.7   -307.99346 
  972000       971500   -10621.479    870.45097    -11491.93    4175.4666   -15667.396    90.408131   -412.98617    31.082978   -573.03734    263.02256  -0.79033047    221.98821      46.7237      46.7237      46.7237           90           90           90     102002.7   -318.31351 
  973000       972500   -10597.138    864.38397   -11461.522    4177.7014   -15639.224    89.777991   -258.05032   -255.19412   -512.26505   -84.490354    211.44514    23.377057      46.7237      46.7237      46.7237           90           90           90     102002.7   -341.83649 
  974000       973500   -10588.277    890.93373   -11479.211     4167.673   -15646.884    92.535543   -50.565894   -320.22287   -154.80923    66.710614   -88.509638     -96.3354      46.7237      46.7237      46.7237           90           90           90     102002.7   -175.19933 
  975000       974500   -10589.438    888.83585   -11478.273    4171.1675   -15649.441     92.31765   -397.06616   -538.71014   -213.66482   -32.426493    137.09622     192.0883      46.7237      46.7237      46.7237           90           90           90     102002.7   -383.14704 
  976000       975500   -10570.235    893.00324   -11463.239    4170.9733   -15634.212     92.75049   -583.24256   -570.73786   -32.577522    -236.3327    119.25201   -23.094253      46.7237      46.7237      46.7237           90           90           90     102002.7   -395.51932 
  977000       976500   -10574.431    896.25964    -11470.69    4177.9692    -15648.66    93.088711   -500.67405    115.87889    -189.6116     17.93887    -102.5232   -94.114197      46.7237      46.7237      46.7237           90           90           90     102002.7   -191.46892 
  978000       977500   -10569.793    892.49001   -11462.283    4185.9393   -15648.222    92.697183   -251.13133   -538.07649    168.77955   -223.65343   -58.906308   -32.316785      46.7237      46.7237      46.7237           90           90           90     102002.7   -206.80943 
  979000       978500   -10583.993    877.55563   -11461.548    4169.8295   -15631.378    91.146046    309.17525   -482.11756   -8.4167658    284.32427    176.06278   -6.9669419      46.7237      46.7237      46.7237           90           90           90     102002.7   -60.453026 
  980000       979500   -10601.638    882.04712   -11483.685    4162.0745    -15645.76    91.612547   -210.34434   -436.10993   -96.625109   -170.70639    81.560826   -37.276715      46.7237      46.7237      46.7237           90           90           90     102002.7   -247.69313 
  981000       980500   -10617.934    859.45949   -11477.393    4172.3747   -15649.768    89.266517    -407.4265   -283.64317   -243.23398    42.710205    181.06747   -199.94509      46.7237      46.7237      46.7237           90           90           90     102002.7   -311.43455 
  982000       981500   -10609.361    871.91321   -11481.274     4175.674   -15656.948    90.560004   -301.61655   -133.92049   -222.86805   -88.153131   -116.24295   -117.16213      46.7237      46.7237      46.7237           90           90           90     102002.7   -219.46836 
  983000       982500   -10585.422     877.7437   -11463.166    4166.5349     -15629.7    91.165579   -290.51682   -852.51449   -331.74343    50.579264   -118.33869   -159.48679      46.7237      46.7237      46.7237           90           90           90     102002.7   -491.59158 
  984000       983500   -10574.441    880.52754   -11454.968    4175.4518    -15630.42    91.454719    -127.4301   -42.017713   -424.90999    164.92559   -156.29445    9.4884233      46.7237      46.7237      46.7237           90           90           90     102002.7   -198.11927 
  985000       984500   -10596.313    893.32643   -11489.639    4155.1639   -15644.803    92.784057   -106.16111   -238.74407    -196.0695   -104.17563   -113.95343   -317.62439      46.7237      46.7237      46.7237           90           90           90     102002.7    -180.3249 
  986000       985500   -10597.722    884.62035   -11482.342    4146.3298   -15628.672    91.879813    -56.44756   -195.93753   -49.839227    77.691131    15.185789   -188.48691      46.7237      46.7237      46.7237           90           90           90     102002.7   -100.74144 
  987000       986500   -10539.796    909.47561   -11449.272    4169.1483    -15618.42    94.461368    85.545868   -93.971425   -333.43646   -2.3675791     101.7801   -71.148845      46.7237      46.7237      46.7237           90           90           90     102002.7   -113.95401 
  988000       987500   -10585.826    866.48646   -11452.312    4163.1231   -15615.435    89.996362   -135.30769   -416.51559    68.838831    327.39454    6.1454168    119.23718      46.7237      46.7237      46.7237           90           90           90     102002.7   -160.99482 
  989000       988500   -10592.169    853.68964   -11445.859    4195.3457   -15641.205     88.66724   -615.34721   -155.27627   -333.58697    97.363955    48.874424   -29.346516      46.7237      46.7237      46.7237           90           90           90     102002.7   -368.07015 
  990000       989500   -10583.466    883.66825   -11467.134    4190.5314   -15657.666    91.780925   -691.87647   -92.260222   -444.82342    17.957115    84.549344    36.290784      46.7237      46.7237      46.7237           90           90           90     102002.7   -409.65337 
  991000       990500   -10605.018    867.65107   -11472.669    4148.3069   -15620.976    90.117323    -19.62379   -261.01283    -252.8667    37.368073    288.95125   -39.086472      46.7237      46.7237      46.7237           90           90           90     102002.7   -177.83444 
  992000       991500   -10632.156    862.35746   -11494.514    4150.0937   -15644.607     89.56751   -557.04952   -428.80568   -374.13949    126.19332   -25.825905   -28.096669      46.7237      46.7237      46.7237           90           90           90     102002.7   -453.33156 
  993000       992500     -10601.1    874.07301   -11475.173    4187.3172    -15662.49    90.784329   -474.16352   -548.69318   -350.51716   -136.87049   -112.32575    53.156576      46.7237      46.7237      46.7237           90           90           90     102002.7   -457.79129 
  994000       993500   -10583.808    880.15037   -11463.959    4179.6341   -15643.593    91.415545   -89.151019   -706.71855    50.444218   -124.69802    80.365676   -46.752134      46.7237      46.7237      46.7237           90           90           90     102002.7   -248.47512 
  995000       994500   -10599.454    895.82296   -11495.277    4161.5549   -15656.832    93.043355   -191.89998   -141.91945   -165.11409    81.313977   -126.40653   -48.935548      46.7237      46.7237      46.7237           90           90           90     102002.7   -166.31117 
  996000       995500   -10586.013    874.07565   -11460.088    4186.1286   -15646.217    90.784602   -271.18496   -411.89415   -667.00921    6.5604362    91.180279    212.33893      46.7237      46.7237      46.7237           90           90           90     102002.7   -450.02944 
  997000       996500   -10591.912    873.53152   -11465.443    4168.7874   -15634.231    90.728087   -511.39848   -131.64558    42.200794   -114.22404     72.47391    81.004693      46.7237      46.7237      46.7237           90           90           90     102002.7   -200.28109 
  998000       997500   -10601.271     875.7555   -11477.027    4177.0567   -15654.083    90.959078    -379.6605   -185.46521   -339.87791    144.57783   -53.819287    219.47535      46.7237      46.7237      46.7237           90           90           90     102002.7   -301.66787 
  999000       998500   -10573.868    882.06542   -11455.934     4192.256    -15648.19    91.614448   -490.33808   -218.37595   -586.84998    64.511023   -49.635968    397.16899      46.7237      46.7237      46.7237           90           90           90     102002.7   -431.85467 
 1000000       999500   -10574.067    884.11085   -11458.177    4182.5281   -15640.706    91.826894   -244.88904    232.74303   -358.52532    48.489942     269.4261   -190.27641      46.7237      46.7237      46.7237           90           90           90     102002.7   -123.55711 
 1000500      1000000    -10595.31    858.91927   -11454.229    4196.9315   -15651.161    89.210407   -376.89097   -6.8073507   -454.28552   -228.63006    200.90809    42.684322      46.7237      46.7237      46.7237           90           90           90     102002.7   -279.32795 
Loop time of 2303.48 on 16 procs for 500000 steps with 3231 atoms

Performance: 18.754 ns/day, 1.280 hours/ns, 217.063 timesteps/s
99.8% CPU use with 16 MPI tasks x no OpenMP threads

MPI task timing breakdown:
Section |  min time  |  avg time  |  max time  |%varavg| %total
---------------------------------------------------------------
Pair    | 1155.7     | 1486.1     | 1824.5     | 579.7 | 64.52
Bond    | 154.37     | 184        | 207.52     | 128.5 |  7.99
Neigh   | 14.587     | 14.604     | 14.623     |   0.2 |  0.63
Comm    | 225.1      | 586.65     | 936.25     | 984.9 | 25.47
Output  | 0.13013    | 0.13737    | 0.13798    |   0.5 |  0.01
Modify  | 24.066     | 24.994     | 25.764     |   9.8 |  1.09
Other   |            | 6.981      |            |       |  0.30

Nlocal:    201.938 ave 222 max 180 min
Histogram: 1 2 1 2 1 1 4 2 0 2
Nghost:    4084.62 ave 4119 max 4055 min
Histogram: 2 0 2 3 3 2 2 0 1 1
Neighs:    11453.2 ave 15918 max 6919 min
Histogram: 1 4 0 0 3 2 0 3 0 3

Total # of neighbors = 183251
Ave neighs/atom = 56.7165
Ave special neighs/atom = 3.56546
Neighbor list builds = 4159
Dangerous builds = 0
Total wall time: 1:08:37
