LAMMPS (30 Mar 2018)
Reading data file ...
  orthogonal box = (0 0 0) to (46.7237 46.7237 46.7237)
  2 by 3 by 4 MPI processor grid
  reading atoms ...
  2101 atoms
  scanning bonds ...
  5 = max bonds/atom
  scanning angles ...
  10 = max angles/atom
  scanning dihedrals ...
  32 = max dihedrals/atom
  scanning impropers ...
  3 = max impropers/atom
  reading bonds ...
  2064 bonds
  reading angles ...
  3696 angles
  reading dihedrals ...
  6240 dihedrals
  reading impropers ...
  1008 impropers
Finding 1-2 1-3 1-4 neighbors ...
  special bond factors lj:   0          0          0         
  special bond factors coul: 0          0          0         
  5 = max # of 1-2 neighbors
  8 = max # of 1-3 neighbors
  20 = max # of 1-4 neighbors
  19 = max # of special neighbors
Finding 1-2 1-3 1-4 neighbors ...
  special bond factors lj:   0          0          1         
  special bond factors coul: 1          1          1         
  5 = max # of 1-2 neighbors
  8 = max # of 1-3 neighbors
  19 = max # of special neighbors
WARNING: Using 'neigh_modify every 1 delay 0 check yes' setting during minimization (../min.cpp:168)
Neighbor list info ...
  update every 1 steps, delay 0 steps, check yes
  max neighbors/atom: 2000, page size: 100000
  master list distance cutoff = 16
  ghost atom cutoff = 16
  binsize = 8, bins = 6 6 6
  3 neighbor lists, perpetual/occasional/extra = 3 0 0
  (1) pair buck6d/coul/gauss/dsf, perpetual, skip from (3)
      attributes: half, newton on
      pair build: skip
      stencil: none
      bin: none
  (2) pair lj/cut, perpetual, skip from (3)
      attributes: half, newton on
      pair build: skip
      stencil: none
      bin: none
  (3) neighbor class addition, perpetual
      attributes: half, newton on
      pair build: half/bin/newton
      stencil: half/bin/3d/newton
      bin: standard
Setting up cg style minimization ...
  Unit style    : real
  Current step  : 0
WARNING: Inconsistent image flags (../domain.cpp:786)
Per MPI rank memory allocation (min/avg/max) = 22.89 | 23.3 | 24.44 Mbytes
Step Temp E_pair E_mol TotEng Press 
       0            0   -12636.846    6482.8914   -6153.9541    6108.9247 
     501            0   -12793.452    3727.6672   -9065.7846   -694.95623 
Loop time of 1.36751 on 24 procs for 501 steps with 2101 atoms

99.5% CPU use with 24 MPI tasks x no OpenMP threads

Minimization stats:
  Stopping criterion = max force evaluations
  Energy initial, next-to-last, final = 
         -6153.9540788     -9065.72474724      -9065.7845515
  Force two-norm initial, final = 2574.54 11.6723
  Force max component initial, final = 152.207 1.60484
  Final line search alpha, max atom move = 0.00353143 0.00566736
  Iterations, force evaluations = 501 1001

MPI task timing breakdown:
Section |  min time  |  avg time  |  max time  |%varavg| %total
---------------------------------------------------------------
Pair    | 0.52929    | 0.71881    | 0.92854    |  13.8 | 52.56
Bond    | 0.11715    | 0.15802    | 0.20912    |   5.3 | 11.56
Neigh   | 0.01298    | 0.013926   | 0.015158   |   0.7 |  1.02
Comm    | 0.22085    | 0.44774    | 0.62494    |  18.0 | 32.74
Output  | 0          | 0          | 0          |   0.0 |  0.00
Modify  | 0          | 0          | 0          |   0.0 |  0.00
Other   |            | 0.02901    |            |       |  2.12

Nlocal:    87.5417 ave 105 max 72 min
Histogram: 3 0 2 4 4 5 3 1 0 2
Nghost:    2332.62 ave 2500 max 2227 min
Histogram: 9 7 0 0 0 0 0 0 1 7
Neighs:    7644.33 ave 10375 max 5101 min
Histogram: 4 2 2 2 2 3 1 4 1 3

Total # of neighbors = 183464
Ave neighs/atom = 87.3222
Ave special neighs/atom = 5.4831
Neighbor list builds = 16
Dangerous builds = 0
Neighbor list info ...
  update every 1 steps, delay 10 steps, check yes
  max neighbors/atom: 2000, page size: 100000
  master list distance cutoff = 16
  ghost atom cutoff = 16
  binsize = 8, bins = 6 6 6
  3 neighbor lists, perpetual/occasional/extra = 3 0 0
  (1) pair buck6d/coul/gauss/dsf, perpetual, skip from (3)
      attributes: half, newton on
      pair build: skip
      stencil: none
      bin: none
  (2) pair lj/cut, perpetual, skip from (3)
      attributes: half, newton on
      pair build: skip
      stencil: none
      bin: none
  (3) neighbor class addition, perpetual
      attributes: half, newton on
      pair build: half/bin/newton
      stencil: half/bin/3d/newton
      bin: standard
Setting up Verlet run ...
  Unit style    : real
  Current step  : 501
  Time step     : 1
WARNING: Inconsistent image flags (../domain.cpp:786)
Per MPI rank memory allocation (min/avg/max) = 22.54 | 22.71 | 23.32 Mbytes
Step Temp PotEng TotEng Press Volume Lx Ly Lz 
     501          110   -9065.7846   -8377.2174   -386.37646     102002.7      46.7237      46.7237      46.7237 
    1000    91.883225   -8440.6507   -7865.4891   -655.65967     102002.7      46.7237      46.7237      46.7237 
    2000    121.17957   -8366.3399    -7607.792   -958.93451     102002.7      46.7237      46.7237      46.7237 
    3000    109.52696   -8332.0158   -7646.4098   -805.95024     102002.7      46.7237      46.7237      46.7237 
    4000    110.12874   -8342.6583   -7653.2853   -943.40092     102002.7      46.7237      46.7237      46.7237 
    5000    111.30389   -8319.5854   -7622.8564   -1201.9249     102002.7      46.7237      46.7237      46.7237 
    6000    105.93496     -8311.92   -7648.7988   -649.97877     102002.7      46.7237      46.7237      46.7237 
    7000    106.26338   -8327.3812   -7662.2042   -629.10763     102002.7      46.7237      46.7237      46.7237 
    8000    107.12393   -8340.5521   -7669.9884   -875.24682     102002.7      46.7237      46.7237      46.7237 
    9000    110.21154   -8309.3279   -7619.4366   -970.55325     102002.7      46.7237      46.7237      46.7237 
   10000    111.35138   -8336.3705   -7639.3442    -758.2506     102002.7      46.7237      46.7237      46.7237 
   11000    110.10556   -8353.8808   -7664.6529   -849.49947     102002.7      46.7237      46.7237      46.7237 
   12000    109.74875   -8352.0302   -7665.0359   -876.47049     102002.7      46.7237      46.7237      46.7237 
   13000    109.12034   -8337.9226   -7654.8619   -1071.9856     102002.7      46.7237      46.7237      46.7237 
   14000    107.55345   -8355.6013   -7682.3488   -987.33204     102002.7      46.7237      46.7237      46.7237 
   15000    113.85397   -8352.2016   -7639.5097   -572.90173     102002.7      46.7237      46.7237      46.7237 
   16000    110.33218    -8339.801   -7649.1545   -746.14207     102002.7      46.7237      46.7237      46.7237 
   17000    111.54368   -8344.3148   -7646.0847   -674.02673     102002.7      46.7237      46.7237      46.7237 
   18000    108.98705   -8351.7758   -7669.5494    -408.7452     102002.7      46.7237      46.7237      46.7237 
   19000    106.80771   -8343.9564   -7675.3721   -663.74147     102002.7      46.7237      46.7237      46.7237 
   20000    110.76295   -8353.0896   -7659.7466   -754.25022     102002.7      46.7237      46.7237      46.7237 
   21000    113.43048   -8340.7818   -7630.7409   -716.66632     102002.7      46.7237      46.7237      46.7237 
   22000    110.81099   -8332.5283   -7638.8846   -920.67851     102002.7      46.7237      46.7237      46.7237 
   23000    107.15053     -8326.38   -7655.6497   -828.22652     102002.7      46.7237      46.7237      46.7237 
   24000    108.85208   -8353.4039   -7672.0224   -1037.9005     102002.7      46.7237      46.7237      46.7237 
   25000    112.80782    -8355.527   -7649.3837   -830.14003     102002.7      46.7237      46.7237      46.7237 
   26000    108.98407   -8347.9304   -7665.7227   -799.62892     102002.7      46.7237      46.7237      46.7237 
   27000    110.63357   -8348.0571   -7655.5241   -995.03334     102002.7      46.7237      46.7237      46.7237 
   28000    110.86805   -8342.8123   -7648.8114   -715.80297     102002.7      46.7237      46.7237      46.7237 
   29000    111.13535   -8330.3929   -7634.7189   -1029.6483     102002.7      46.7237      46.7237      46.7237 
   30000    109.94004   -8331.2609   -7643.0692   -867.15357     102002.7      46.7237      46.7237      46.7237 
   31000    111.22964     -8340.08   -7643.8157   -687.72284     102002.7      46.7237      46.7237      46.7237 
   32000    110.82891   -8315.6994   -7621.9435   -928.37074     102002.7      46.7237      46.7237      46.7237 
   33000    110.11273   -8342.5271   -7653.2544   -637.22641     102002.7      46.7237      46.7237      46.7237 
   34000    111.46838   -8324.4413   -7626.6826   -770.98254     102002.7      46.7237      46.7237      46.7237 
   35000    107.41142    -8356.192   -7683.8286    -921.3576     102002.7      46.7237      46.7237      46.7237 
   36000    111.21719   -8338.3852   -7642.1989   -617.32797     102002.7      46.7237      46.7237      46.7237 
   37000    110.14627   -8315.4532   -7625.9705    -896.9328     102002.7      46.7237      46.7237      46.7237 
   38000    113.15966   -8354.8532   -7646.5075   -796.47521     102002.7      46.7237      46.7237      46.7237 
   39000     109.7943   -8327.1238   -7639.8443   -835.36333     102002.7      46.7237      46.7237      46.7237 
   40000    110.22677   -8369.3491   -7679.3624   -866.81017     102002.7      46.7237      46.7237      46.7237 
   41000    107.35922   -8345.7901   -7673.7535   -698.48189     102002.7      46.7237      46.7237      46.7237 
   42000    110.33562   -8326.4052   -7635.7372   -1038.9057     102002.7      46.7237      46.7237      46.7237 
   43000    110.73934   -8321.0642    -7627.869   -740.33115     102002.7      46.7237      46.7237      46.7237 
   44000    107.74935   -8318.6837    -7644.205   -384.79866     102002.7      46.7237      46.7237      46.7237 
   45000    109.49576   -8338.1082   -7652.6975   -547.10423     102002.7      46.7237      46.7237      46.7237 
   46000    108.99415   -8325.5744   -7643.3036   -494.38887     102002.7      46.7237      46.7237      46.7237 
   47000    112.93042   -8335.5193   -7628.6086   -651.15096     102002.7      46.7237      46.7237      46.7237 
   48000    109.70732   -8332.7505   -7646.0155   -625.56039     102002.7      46.7237      46.7237      46.7237 
   49000    106.74295   -8327.2337   -7659.0548   -853.27959     102002.7      46.7237      46.7237      46.7237 
   50000    112.01356   -8353.2906   -7652.1192   -853.55074     102002.7      46.7237      46.7237      46.7237 
   51000    111.24768   -8320.3348   -7623.9576   -534.51665     102002.7      46.7237      46.7237      46.7237 
   52000     105.7107   -8329.7249   -7668.0075   -722.20315     102002.7      46.7237      46.7237      46.7237 
   53000    107.64301     -8330.69   -7656.8769   -521.83278     102002.7      46.7237      46.7237      46.7237 
   54000    110.34962   -8337.9725   -7647.2169   -530.62127     102002.7      46.7237      46.7237      46.7237 
   55000     108.2219   -8333.5724   -7656.1357   -796.17075     102002.7      46.7237      46.7237      46.7237 
   56000    109.11271   -8320.2143   -7637.2014   -585.44419     102002.7      46.7237      46.7237      46.7237 
   57000    109.80602   -8322.7671   -7635.4142   -750.39446     102002.7      46.7237      46.7237      46.7237 
   58000    108.68682    -8345.455    -7665.108   -702.69836     102002.7      46.7237      46.7237      46.7237 
   59000    109.19885   -8325.7406   -7642.1884   -414.60753     102002.7      46.7237      46.7237      46.7237 
   60000    107.39396   -8352.9897   -7680.7356   -763.82262     102002.7      46.7237      46.7237      46.7237 
   61000    109.05162   -8334.8055   -7652.1749   -562.98079     102002.7      46.7237      46.7237      46.7237 
   62000    103.16609   -8340.2012   -7694.4123   -802.41792     102002.7      46.7237      46.7237      46.7237 
   63000    104.58591   -8350.8946   -7696.2181   -581.83566     102002.7      46.7237      46.7237      46.7237 
   64000    111.73019   -8331.1844   -7631.7868   -433.96239     102002.7      46.7237      46.7237      46.7237 
   65000     113.8359   -8327.2946   -7614.7159   -642.74933     102002.7      46.7237      46.7237      46.7237 
   66000    110.17826   -8332.7228   -7643.0398   -708.52754     102002.7      46.7237      46.7237      46.7237 
   67000    111.78689   -8326.9001   -7627.1476   -788.07102     102002.7      46.7237      46.7237      46.7237 
   68000    107.87609   -8342.8827   -7667.6106   -737.14991     102002.7      46.7237      46.7237      46.7237 
   69000      112.494   -8340.0407   -7635.8619    -807.9374     102002.7      46.7237      46.7237      46.7237 
   70000    108.53462   -8341.7434   -7662.3491   -750.09515     102002.7      46.7237      46.7237      46.7237 
   71000    111.37733   -8306.8041   -7609.6153   -759.51047     102002.7      46.7237      46.7237      46.7237 
   72000    111.08406   -8340.3479   -7644.9949   -690.38962     102002.7      46.7237      46.7237      46.7237 
   73000    108.86142   -8303.0587   -7621.6188   -384.95142     102002.7      46.7237      46.7237      46.7237 
   74000    112.26537   -8320.0601   -7617.3124   -726.36365     102002.7      46.7237      46.7237      46.7237 
   75000    111.10363    -8330.019   -7634.5434   -901.78328     102002.7      46.7237      46.7237      46.7237 
   76000    111.43531   -8318.7096   -7621.1578   -432.38408     102002.7      46.7237      46.7237      46.7237 
   77000    111.04001      -8316.4   -7621.3227    -536.9871     102002.7      46.7237      46.7237      46.7237 
   78000    111.14187   -8326.2045   -7630.4896   -619.83782     102002.7      46.7237      46.7237      46.7237 
   79000    109.20085   -8321.7089   -7638.1442   -642.01059     102002.7      46.7237      46.7237      46.7237 
   80000     114.0256   -8316.3306   -7602.5645   -745.45187     102002.7      46.7237      46.7237      46.7237 
   81000    110.45569   -8311.2661   -7619.8465   -778.73117     102002.7      46.7237      46.7237      46.7237 
   82000    107.04355   -8335.0972   -7665.0366   -545.39972     102002.7      46.7237      46.7237      46.7237 
   83000    110.82853   -8327.2423   -7633.4888   -956.18377     102002.7      46.7237      46.7237      46.7237 
   84000     109.2872    -8341.343   -7657.2378   -613.76515     102002.7      46.7237      46.7237      46.7237 
   85000    110.98153   -8318.0039   -7623.2927   -839.55551     102002.7      46.7237      46.7237      46.7237 
   86000     109.4608   -8345.0655   -7659.8736   -902.99914     102002.7      46.7237      46.7237      46.7237 
   87000    107.52136   -8327.1208   -7654.0692   -982.33545     102002.7      46.7237      46.7237      46.7237 
   88000    110.19451   -8330.7232   -7640.9386   -715.67252     102002.7      46.7237      46.7237      46.7237 
   89000    109.71469   -8321.6202   -7634.8391   -884.18439     102002.7      46.7237      46.7237      46.7237 
   90000    109.13724   -8357.5345    -7674.368   -768.07715     102002.7      46.7237      46.7237      46.7237 
   91000     110.4339   -8329.3421   -7638.0589   -948.37288     102002.7      46.7237      46.7237      46.7237 
   92000    113.30257   -8336.2206   -7626.9803    -620.4218     102002.7      46.7237      46.7237      46.7237 
   93000    106.86817     -8320.72   -7651.7572   -718.36298     102002.7      46.7237      46.7237      46.7237 
   94000    110.48035   -8332.4528   -7640.8788    -758.1504     102002.7      46.7237      46.7237      46.7237 
   95000    109.68663   -8335.5352   -7648.9297   -720.91042     102002.7      46.7237      46.7237      46.7237 
   96000    109.17898   -8331.9604   -7648.5326   -910.70223     102002.7      46.7237      46.7237      46.7237 
   97000    111.75946   -8303.5889   -7604.0081   -768.95967     102002.7      46.7237      46.7237      46.7237 
   98000    111.41888   -8320.1894   -7622.7405   -531.21344     102002.7      46.7237      46.7237      46.7237 
   99000    109.99368   -8334.1741   -7645.6465   -767.89165     102002.7      46.7237      46.7237      46.7237 
  100000    109.36193   -8349.7903   -7665.2173   -636.14765     102002.7      46.7237      46.7237      46.7237 
  101000    112.50031   -8327.7098   -7623.4914   -696.86299     102002.7      46.7237      46.7237      46.7237 
  102000    108.83466   -8346.8158   -7665.5433    -678.6292     102002.7      46.7237      46.7237      46.7237 
  103000    109.51813   -8350.3904   -7664.8396   -825.41685     102002.7      46.7237      46.7237      46.7237 
  104000    108.92569   -8343.7465   -7661.9042   -797.20582     102002.7      46.7237      46.7237      46.7237 
  105000    110.13991    -8332.839   -7643.3961   -507.68685     102002.7      46.7237      46.7237      46.7237 
  106000    109.30595   -8341.6456   -7657.4229   -670.69412     102002.7      46.7237      46.7237      46.7237 
  107000    110.27921   -8346.3744   -7656.0594   -589.60338     102002.7      46.7237      46.7237      46.7237 
  108000    107.90572   -8318.7011   -7643.2436   -424.60887     102002.7      46.7237      46.7237      46.7237 
  109000    111.54331   -8326.7916   -7628.5638    -919.6493     102002.7      46.7237      46.7237      46.7237 
  110000    111.30936   -8296.8539   -7600.0906   -568.76256     102002.7      46.7237      46.7237      46.7237 
  111000    108.19348   -8322.3388   -7645.0799   -946.92719     102002.7      46.7237      46.7237      46.7237 
  112000    107.82851   -8348.0168   -7673.0425    -766.5856     102002.7      46.7237      46.7237      46.7237 
  113000    110.50195   -8312.2726   -7620.5634   -673.24339     102002.7      46.7237      46.7237      46.7237 
  114000    109.24054   -8329.5741   -7645.7609   -856.77374     102002.7      46.7237      46.7237      46.7237 
  115000    111.07283   -8343.2391   -7647.9564   -534.28681     102002.7      46.7237      46.7237      46.7237 
  116000    109.66165    -8311.555   -7625.1058   -723.49216     102002.7      46.7237      46.7237      46.7237 
  117000    109.45657   -8323.8621   -7638.6966   -839.22098     102002.7      46.7237      46.7237      46.7237 
  118000    105.32455   -8317.2963   -7657.9961   -397.22107     102002.7      46.7237      46.7237      46.7237 
  119000    110.16388    -8327.709    -7638.116   -663.26134     102002.7      46.7237      46.7237      46.7237 
  120000    111.20017   -8318.4237   -7622.3439   -673.48839     102002.7      46.7237      46.7237      46.7237 
  121000    108.78766   -8306.8907   -7625.9124   -505.73633     102002.7      46.7237      46.7237      46.7237 
  122000    111.14176   -8338.6217   -7642.9075   -896.95804     102002.7      46.7237      46.7237      46.7237 
  123000    110.03122   -8320.4253   -7631.6628   -557.27573     102002.7      46.7237      46.7237      46.7237 
  124000    107.86789   -8308.3533   -7633.1326   -437.32178     102002.7      46.7237      46.7237      46.7237 
  125000    109.55495   -8322.0604   -7636.2791    -693.1347     102002.7      46.7237      46.7237      46.7237 
  126000     109.6668   -8316.8141   -7630.3328   -780.53682     102002.7      46.7237      46.7237      46.7237 
  127000    113.25832   -8308.2644   -7599.3011   -730.15673     102002.7      46.7237      46.7237      46.7237 
  128000    108.90788   -8340.0651   -7658.3343   -723.55945     102002.7      46.7237      46.7237      46.7237 
  129000    106.70443   -8293.5154   -7625.5775   -730.77489     102002.7      46.7237      46.7237      46.7237 
  130000     110.5376   -8335.3875   -7643.4552   -762.91786     102002.7      46.7237      46.7237      46.7237 
  131000    110.07637   -8308.3104   -7619.2652   -666.37193     102002.7      46.7237      46.7237      46.7237 
  132000    112.93171   -8335.6295   -7628.7107   -776.86707     102002.7      46.7237      46.7237      46.7237 
  133000    111.98682   -8346.5954   -7645.5914   -998.11487     102002.7      46.7237      46.7237      46.7237 
  134000    112.13718   -8313.5901   -7611.6449   -679.54831     102002.7      46.7237      46.7237      46.7237 
  135000    109.76375   -8317.9029   -7630.8147   -732.30575     102002.7      46.7237      46.7237      46.7237 
  136000    107.09703   -8330.7885   -7660.3932   -862.80488     102002.7      46.7237      46.7237      46.7237 
  137000    109.44601    -8292.388   -7607.2887   -709.01795     102002.7      46.7237      46.7237      46.7237 
  138000     110.1799   -8317.3698   -7627.6765   -923.81835     102002.7      46.7237      46.7237      46.7237 
  139000    109.10152   -8341.1619    -7658.219   -573.35735     102002.7      46.7237      46.7237      46.7237 
  140000    111.75069   -8294.2012   -7594.6753   -1009.6982     102002.7      46.7237      46.7237      46.7237 
  141000    113.92093   -8334.1046   -7620.9937   -879.49104     102002.7      46.7237      46.7237      46.7237 
  142000    107.73474   -8332.3562   -7657.9689   -625.96858     102002.7      46.7237      46.7237      46.7237 
  143000    110.04969   -8322.5198   -7633.6417   -892.67957     102002.7      46.7237      46.7237      46.7237 
  144000    110.34809   -8334.2608   -7643.5148   -975.54275     102002.7      46.7237      46.7237      46.7237 
  145000     110.7442   -8308.9476   -7615.7221   -639.59011     102002.7      46.7237      46.7237      46.7237 
  146000      106.553   -8321.2191   -7654.2292   -1019.7973     102002.7      46.7237      46.7237      46.7237 
  147000    112.38946   -8338.1297   -7634.6053    -957.0142     102002.7      46.7237      46.7237      46.7237 
  148000    109.34192   -8328.1262   -7643.6785   -817.65842     102002.7      46.7237      46.7237      46.7237 
  149000    109.41341   -8319.5189   -7634.6237   -874.90402     102002.7      46.7237      46.7237      46.7237 
  150000    110.61093   -8335.4252   -7643.0338   -776.78282     102002.7      46.7237      46.7237      46.7237 
  151000    109.26498     -8309.35   -7625.3839   -541.13789     102002.7      46.7237      46.7237      46.7237 
  152000    110.50274   -8348.9925   -7657.2783    -546.6361     102002.7      46.7237      46.7237      46.7237 
  153000    109.74804   -8331.6294   -7644.6394   -793.87635     102002.7      46.7237      46.7237      46.7237 
  154000    109.74309   -8326.1892   -7639.2303   -693.49904     102002.7      46.7237      46.7237      46.7237 
  155000    108.62265   -8308.4755   -7628.5302   -530.63036     102002.7      46.7237      46.7237      46.7237 
  156000    109.32464   -8331.0151   -7646.6755   -677.00152     102002.7      46.7237      46.7237      46.7237 
  157000    110.89746   -8316.4562   -7622.2713   -578.06254     102002.7      46.7237      46.7237      46.7237 
  158000    108.81349   -8334.4268   -7653.2869   -703.37507     102002.7      46.7237      46.7237      46.7237 
  159000    113.51962   -8315.8584   -7605.2595   -535.60229     102002.7      46.7237      46.7237      46.7237 
  160000    109.45329   -8345.3991   -7660.2543   -550.15167     102002.7      46.7237      46.7237      46.7237 
  161000    110.40097   -8337.2319   -7646.1548   -670.95406     102002.7      46.7237      46.7237      46.7237 
  162000    112.24467   -8325.3453   -7622.7272   -740.96243     102002.7      46.7237      46.7237      46.7237 
  163000    107.20449   -8329.7975   -7658.7294   -666.98628     102002.7      46.7237      46.7237      46.7237 
  164000    111.07592   -8337.2314   -7641.9293   -1004.4041     102002.7      46.7237      46.7237      46.7237 
  165000    109.40073   -8287.6932   -7602.8774   -984.13455     102002.7      46.7237      46.7237      46.7237 
  166000    108.55374   -8316.1542   -7636.6402   -702.43838     102002.7      46.7237      46.7237      46.7237 
  167000    108.36675   -8308.0961   -7629.7526    -994.5738     102002.7      46.7237      46.7237      46.7237 
  168000    105.42341   -8334.2664   -7674.3473   -571.62002     102002.7      46.7237      46.7237      46.7237 
  169000    111.86925   -8320.0923   -7619.8242   -679.59276     102002.7      46.7237      46.7237      46.7237 
  170000    109.52473   -8333.7804   -7648.1883   -497.88007     102002.7      46.7237      46.7237      46.7237 
  171000    115.21351   -8359.6653   -7638.4632    -852.0811     102002.7      46.7237      46.7237      46.7237 
  172000    107.71062   -8329.1663     -7654.93   -692.17214     102002.7      46.7237      46.7237      46.7237 
  173000    111.89793   -8328.2697   -7627.8221   -489.88856     102002.7      46.7237      46.7237      46.7237 
  174000       114.39   -8305.5777   -7589.5306    -750.8653     102002.7      46.7237      46.7237      46.7237 
  175000    108.67357   -8339.4513   -7659.1872   -575.20611     102002.7      46.7237      46.7237      46.7237 
  176000    108.79491   -8336.1209   -7655.0973   -797.36939     102002.7      46.7237      46.7237      46.7237 
  177000    112.53781   -8315.1432   -7610.6901   -759.42103     102002.7      46.7237      46.7237      46.7237 
  178000    109.41777    -8316.325   -7631.4025   -825.59023     102002.7      46.7237      46.7237      46.7237 
  179000    109.48848   -8344.9915   -7659.6264   -907.44266     102002.7      46.7237      46.7237      46.7237 
  180000    109.95128   -8331.2357   -7642.9736   -469.97187     102002.7      46.7237      46.7237      46.7237 
  181000    111.27237   -8327.3899   -7630.8581   -613.64326     102002.7      46.7237      46.7237      46.7237 
  182000    108.87447   -8324.1801   -7642.6584   -853.81118     102002.7      46.7237      46.7237      46.7237 
  183000    110.56432   -8322.4754   -7630.3757   -933.72467     102002.7      46.7237      46.7237      46.7237 
  184000    108.83982   -8330.2624   -7648.9577   -1016.9776     102002.7      46.7237      46.7237      46.7237 
  185000    113.16364   -8309.6225   -7601.2519   -851.33512     102002.7      46.7237      46.7237      46.7237 
  186000    109.07732   -8322.2216   -7639.4301   -969.16723     102002.7      46.7237      46.7237      46.7237 
  187000    107.71467   -8318.5804   -7644.3188   -869.42748     102002.7      46.7237      46.7237      46.7237 
  188000    110.08132   -8311.5476   -7622.4714   -866.88938     102002.7      46.7237      46.7237      46.7237 
  189000    111.70886   -8299.9881    -7600.724   -954.36689     102002.7      46.7237      46.7237      46.7237 
  190000    107.71165   -8319.4392   -7645.1965   -677.49499     102002.7      46.7237      46.7237      46.7237 
  191000    112.95246   -8301.0122   -7593.9636   -879.62322     102002.7      46.7237      46.7237      46.7237 
  192000    109.08463   -8332.3134   -7649.4762   -767.70484     102002.7      46.7237      46.7237      46.7237 
  193000    112.31778   -8326.0403   -7622.9646   -691.59209     102002.7      46.7237      46.7237      46.7237 
  194000    108.89359   -8326.5876   -7644.9462   -774.77189     102002.7      46.7237      46.7237      46.7237 
  195000    111.23305   -8331.5953   -7635.3097   -887.79829     102002.7      46.7237      46.7237      46.7237 
  196000    109.35185   -8328.0475   -7643.5376   -663.42494     102002.7      46.7237      46.7237      46.7237 
  197000    107.11619   -8338.1447   -7667.6294   -893.33857     102002.7      46.7237      46.7237      46.7237 
  198000    111.29846   -8325.5329   -7628.8378   -580.04336     102002.7      46.7237      46.7237      46.7237 
  199000    113.75839   -8337.2776   -7625.1841   -678.39185     102002.7      46.7237      46.7237      46.7237 
  200000    110.71138   -8334.9448   -7641.9247   -889.19512     102002.7      46.7237      46.7237      46.7237 
  201000    107.06398   -8354.7033   -7684.5148   -793.31569     102002.7      46.7237      46.7237      46.7237 
  202000    112.59303   -8347.6267    -7642.828   -663.92254     102002.7      46.7237      46.7237      46.7237 
  203000    110.53891   -8337.3049   -7645.3643   -955.12469     102002.7      46.7237      46.7237      46.7237 
  204000    108.44209   -8352.3433   -7673.5282   -638.58448     102002.7      46.7237      46.7237      46.7237 
  205000    108.76458   -8302.7689   -7621.9352   -688.92417     102002.7      46.7237      46.7237      46.7237 
  206000     108.2841   -8312.9806   -7635.1545   -540.36891     102002.7      46.7237      46.7237      46.7237 
  207000    112.26502   -8329.2989   -7626.5534   -668.53574     102002.7      46.7237      46.7237      46.7237 
  208000    109.24287   -8340.8639   -7657.0362   -756.83092     102002.7      46.7237      46.7237      46.7237 
  209000     111.1476   -8324.9975   -7629.2468   -819.65066     102002.7      46.7237      46.7237      46.7237 
  210000    109.13337   -8293.4441   -7610.3018   -772.33108     102002.7      46.7237      46.7237      46.7237 
  211000    110.42232     -8333.78   -7642.5693   -827.69319     102002.7      46.7237      46.7237      46.7237 
  212000    108.62299    -8330.361   -7650.4135      -695.23     102002.7      46.7237      46.7237      46.7237 
  213000    108.67101   -8311.4653   -7631.2172    -626.8512     102002.7      46.7237      46.7237      46.7237 
  214000    108.53208   -8312.6363    -7633.258   -638.16762     102002.7      46.7237      46.7237      46.7237 
  215000    112.27388   -8325.1473   -7622.3464   -840.41497     102002.7      46.7237      46.7237      46.7237 
  216000    109.15765   -8327.0736   -7643.7794   -855.83623     102002.7      46.7237      46.7237      46.7237 
  217000     105.9227   -8303.7782   -7640.7338   -944.07588     102002.7      46.7237      46.7237      46.7237 
  218000    107.66908   -8326.8194   -7652.8431   -665.05468     102002.7      46.7237      46.7237      46.7237 
  219000    109.81519   -8291.9316   -7604.5213   -423.25091     102002.7      46.7237      46.7237      46.7237 
  220000    110.57766   -8308.4711    -7616.288   -770.11647     102002.7      46.7237      46.7237      46.7237 
  221000    110.28875   -8296.9426    -7606.568   -464.76052     102002.7      46.7237      46.7237      46.7237 
  222000    112.48212   -8311.8197   -7607.7153    -589.5034     102002.7      46.7237      46.7237      46.7237 
  223000    110.71016   -8318.9456    -7625.933   -743.45331     102002.7      46.7237      46.7237      46.7237 
  224000    108.72122   -8337.0561   -7656.4938   -498.42075     102002.7      46.7237      46.7237      46.7237 
  225000    109.88458   -8309.3909   -7621.5463   -820.57026     102002.7      46.7237      46.7237      46.7237 
  226000    109.37647   -8327.5496   -7642.8855   -401.98321     102002.7      46.7237      46.7237      46.7237 
  227000    109.74957   -8318.3295     -7631.33   -600.88467     102002.7      46.7237      46.7237      46.7237 
  228000    112.26348   -8300.1877   -7597.4519   -709.39625     102002.7      46.7237      46.7237      46.7237 
  229000    110.24076    -8313.455   -7623.3808   -537.27219     102002.7      46.7237      46.7237      46.7237 
  230000    109.00698   -8301.0631    -7618.712   -707.03569     102002.7      46.7237      46.7237      46.7237 
  231000    108.54058   -8306.0037   -7626.5721   -516.44557     102002.7      46.7237      46.7237      46.7237 
  232000    110.71286   -8296.2071   -7603.1777   -805.28852     102002.7      46.7237      46.7237      46.7237 
  233000    111.46227   -8327.7987   -7630.0782   -574.48161     102002.7      46.7237      46.7237      46.7237 
  234000    110.23742    -8322.167   -7632.1137   -802.69245     102002.7      46.7237      46.7237      46.7237 
  235000    112.07529   -8313.6531   -7612.0953   -722.47191     102002.7      46.7237      46.7237      46.7237 
  236000    111.78701   -8300.1252   -7600.3719   -676.66898     102002.7      46.7237      46.7237      46.7237 
  237000    110.80955   -8308.3641   -7614.7295   -915.84875     102002.7      46.7237      46.7237      46.7237 
  238000    108.92747   -8289.8103   -7607.9569   -793.31146     102002.7      46.7237      46.7237      46.7237 
  239000    108.91325   -8306.8073   -7625.0429   -843.35333     102002.7      46.7237      46.7237      46.7237 
  240000    110.16263   -8290.4575   -7600.8724   -808.89244     102002.7      46.7237      46.7237      46.7237 
  241000    109.35566   -8326.2763   -7641.7425   -696.31166     102002.7      46.7237      46.7237      46.7237 
  242000     105.1648   -8308.3765   -7650.0763   -753.49545     102002.7      46.7237      46.7237      46.7237 
  243000    110.84888   -8323.8568   -7629.9759    -946.5481     102002.7      46.7237      46.7237      46.7237 
  244000    112.34869   -8308.6516   -7605.3823   -746.22839     102002.7      46.7237      46.7237      46.7237 
  245000    108.96667   -8306.8002   -7624.7014   -670.52929     102002.7      46.7237      46.7237      46.7237 
  246000    109.39864   -8336.0677   -7651.2649   -827.48375     102002.7      46.7237      46.7237      46.7237 
  247000    110.72356   -8319.7773    -7626.681   -902.71993     102002.7      46.7237      46.7237      46.7237 
  248000    109.97472   -8311.5571   -7623.1482   -1063.2824     102002.7      46.7237      46.7237      46.7237 
  249000    112.26997   -8314.7482   -7611.9717   -697.82691     102002.7      46.7237      46.7237      46.7237 
  250000    107.78598   -8303.1201    -7628.412   -558.36141     102002.7      46.7237      46.7237      46.7237 
  251000    111.52619   -8308.8913   -7610.7707   -709.97435     102002.7      46.7237      46.7237      46.7237 
  252000    111.24576   -8310.1818   -7613.8166   -736.29742     102002.7      46.7237      46.7237      46.7237 
  253000    109.10907   -8319.0615   -7636.0713   -610.18916     102002.7      46.7237      46.7237      46.7237 
  254000    108.35243   -8296.3882   -7618.1343   -594.99473     102002.7      46.7237      46.7237      46.7237 
  255000    111.01247   -8313.7867   -7618.8818   -436.93283     102002.7      46.7237      46.7237      46.7237 
  256000    110.05433   -8332.3599   -7643.4527   -811.81557     102002.7      46.7237      46.7237      46.7237 
  257000     114.1737   -8288.5036   -7573.8104   -843.12494     102002.7      46.7237      46.7237      46.7237 
  258000    108.00364    -8334.535   -7658.4645   -726.95884     102002.7      46.7237      46.7237      46.7237 
  259000    109.10341   -8312.7282   -7629.7734   -552.17112     102002.7      46.7237      46.7237      46.7237 
  260000     111.8362   -8312.5938   -7612.5327   -696.79076     102002.7      46.7237      46.7237      46.7237 
  261000    108.46567   -8333.2742   -7654.3116   -646.04353     102002.7      46.7237      46.7237      46.7237 
  262000    109.37719   -8289.6775    -7605.009   -689.78031     102002.7      46.7237      46.7237      46.7237 
  263000    109.73987   -8316.1695   -7629.2307   -672.48896     102002.7      46.7237      46.7237      46.7237 
  264000    109.24225   -8322.7055   -7638.8816   -850.45046     102002.7      46.7237      46.7237      46.7237 
  265000    110.15628   -8306.2393   -7616.6939   -560.91182     102002.7      46.7237      46.7237      46.7237 
  266000    111.46751   -8335.0772   -7637.3239   -797.67034     102002.7      46.7237      46.7237      46.7237 
  267000    110.12339   -8304.6946   -7615.3551    -899.1533     102002.7      46.7237      46.7237      46.7237 
  268000    108.45375   -8314.6399   -7635.7519   -946.36318     102002.7      46.7237      46.7237      46.7237 
  269000    109.87239   -8296.0633    -7608.295   -839.49592     102002.7      46.7237      46.7237      46.7237 
  270000     109.5781   -8315.6455   -7629.7194   -719.72376     102002.7      46.7237      46.7237      46.7237 
  271000     111.2075   -8298.4508   -7602.3251   -912.07084     102002.7      46.7237      46.7237      46.7237 
  272000    107.77768   -8303.8582   -7629.2022   -697.94603     102002.7      46.7237      46.7237      46.7237 
  273000     109.7072   -8304.7863    -7618.052   -636.27973     102002.7      46.7237      46.7237      46.7237 
  274000     111.5783   -8327.6831   -7629.2363   -1006.2757     102002.7      46.7237      46.7237      46.7237 
  275000    108.37899   -8320.0668   -7641.6467   -758.44369     102002.7      46.7237      46.7237      46.7237 
  276000    107.54133   -8315.2633   -7642.0867   -799.66547     102002.7      46.7237      46.7237      46.7237 
  277000    110.75734   -8332.4843   -7639.1764   -834.50233     102002.7      46.7237      46.7237      46.7237 
  278000    107.64053   -8292.8712   -7619.0736    -862.6512     102002.7      46.7237      46.7237      46.7237 
  279000    110.77367   -8303.0753   -7609.6652    -839.0091     102002.7      46.7237      46.7237      46.7237 
  280000    111.33397   -8323.1632   -7626.2458   -889.49149     102002.7      46.7237      46.7237      46.7237 
  281000    111.20823   -8328.8114   -7632.6811   -698.33954     102002.7      46.7237      46.7237      46.7237 
  282000    108.90179   -8314.9644   -7633.2718   -827.52823     102002.7      46.7237      46.7237      46.7237 
  283000    107.95695   -8285.5814   -7609.8032    -865.6903     102002.7      46.7237      46.7237      46.7237 
  284000    109.11604   -8324.6757   -7641.6419   -933.95706     102002.7      46.7237      46.7237      46.7237 
  285000    111.24017   -8336.4551   -7640.1249   -782.91801     102002.7      46.7237      46.7237      46.7237 
  286000    107.12579   -8325.3241   -7654.7487   -719.71901     102002.7      46.7237      46.7237      46.7237 
  287000    110.80187   -8320.0303   -7626.4437    -1036.896     102002.7      46.7237      46.7237      46.7237 
  288000    109.86938   -8295.7917   -7608.0423   -597.95214     102002.7      46.7237      46.7237      46.7237 
  289000    107.82043   -8324.8795   -7649.9558   -551.40002     102002.7      46.7237      46.7237      46.7237 
  290000    110.36283   -8294.2487   -7603.4104   -987.28545     102002.7      46.7237      46.7237      46.7237 
  291000    108.85029   -8297.5596   -7616.1894   -877.66531     102002.7      46.7237      46.7237      46.7237 
  292000    109.24069   -8319.4832   -7635.6691   -883.42394     102002.7      46.7237      46.7237      46.7237 
  293000    109.07941   -8317.9564   -7635.1519   -643.64746     102002.7      46.7237      46.7237      46.7237 
  294000    112.52288   -8295.6242   -7591.2646   -885.28185     102002.7      46.7237      46.7237      46.7237 
  295000    108.77026   -8316.6157   -7635.7464   -961.08146     102002.7      46.7237      46.7237      46.7237 
  296000    109.12179   -8331.7568    -7648.687   -795.81735     102002.7      46.7237      46.7237      46.7237 
  297000    108.64664   -8294.6535   -7614.5581    -762.0933     102002.7      46.7237      46.7237      46.7237 
  298000    108.23451   -8319.6594   -7642.1437   -647.27486     102002.7      46.7237      46.7237      46.7237 
  299000    107.77946   -8344.4007   -7669.7335   -548.13379     102002.7      46.7237      46.7237      46.7237 
  300000    111.69853   -8305.5773   -7606.3779   -965.17818     102002.7      46.7237      46.7237      46.7237 
  301000    110.05768   -8324.6986   -7635.7704   -641.68364     102002.7      46.7237      46.7237      46.7237 
  302000    110.89011   -8322.7744   -7628.6355   -702.70408     102002.7      46.7237      46.7237      46.7237 
  303000     108.8091   -8305.5144   -7624.4019   -763.37348     102002.7      46.7237      46.7237      46.7237 
  304000    110.57567   -8325.9754   -7633.8048   -681.07132     102002.7      46.7237      46.7237      46.7237 
  305000    108.99091    -8315.282   -7633.0315   -788.86089     102002.7      46.7237      46.7237      46.7237 
  306000    111.31072   -8337.1849   -7640.4131   -821.17696     102002.7      46.7237      46.7237      46.7237 
  307000    110.38435    -8307.089   -7616.1159   -906.43196     102002.7      46.7237      46.7237      46.7237 
  308000    111.13206   -8317.2863   -7621.6328   -712.55841     102002.7      46.7237      46.7237      46.7237 
  309000     107.3419   -8288.9472    -7617.019    -932.5032     102002.7      46.7237      46.7237      46.7237 
  310000    109.52754   -8298.4781   -7612.8684   -751.73028     102002.7      46.7237      46.7237      46.7237 
  311000    114.04289   -8321.2383   -7607.3639   -521.84799     102002.7      46.7237      46.7237      46.7237 
  312000    111.31388   -8309.1685   -7612.3769    -699.2757     102002.7      46.7237      46.7237      46.7237 
  313000    107.98957    -8316.344   -7640.3616   -709.50949     102002.7      46.7237      46.7237      46.7237 
  314000    112.98288   -8317.2998   -7610.0608   -630.32138     102002.7      46.7237      46.7237      46.7237 
  315000    107.71028   -8307.7371    -7633.503   -456.86052     102002.7      46.7237      46.7237      46.7237 
  316000    106.91413   -8329.4212   -7660.1707   -358.46544     102002.7      46.7237      46.7237      46.7237 
  317000    110.03557   -8311.2911   -7622.5013   -567.77571     102002.7      46.7237      46.7237      46.7237 
  318000    107.06933   -8323.3199   -7653.0979    -551.3601     102002.7      46.7237      46.7237      46.7237 
  319000    109.25435   -8332.4176    -7648.518   -836.19925     102002.7      46.7237      46.7237      46.7237 
  320000    109.69652    -8322.811   -7636.1436   -364.17942     102002.7      46.7237      46.7237      46.7237 
  321000    107.85702   -8303.3476   -7628.1949   -640.65147     102002.7      46.7237      46.7237      46.7237 
  322000     109.1889   -8312.5725   -7629.0826   -794.45032     102002.7      46.7237      46.7237      46.7237 
  323000    111.49376   -8313.6967   -7615.7791   -633.42811     102002.7      46.7237      46.7237      46.7237 
  324000    108.96642   -8323.3622    -7641.265   -842.85929     102002.7      46.7237      46.7237      46.7237 
  325000    110.02238   -8315.7766   -7627.0694   -463.97276     102002.7      46.7237      46.7237      46.7237 
  326000    107.06647   -8336.1002   -7665.8961   -1010.8721     102002.7      46.7237      46.7237      46.7237 
  327000    111.11374   -8312.4883   -7616.9495   -716.07449     102002.7      46.7237      46.7237      46.7237 
  328000    107.43415   -8324.2835   -7651.7779   -769.01198     102002.7      46.7237      46.7237      46.7237 
  329000    106.64367   -8319.6669   -7652.1094   -695.63347     102002.7      46.7237      46.7237      46.7237 
  330000    111.29192   -8294.1402    -7597.486     -456.487     102002.7      46.7237      46.7237      46.7237 
  331000    111.22055   -8337.7991   -7641.5917   -717.57022     102002.7      46.7237      46.7237      46.7237 
  332000    108.73763   -8307.6918   -7627.0267   -993.70424     102002.7      46.7237      46.7237      46.7237 
  333000    108.83633   -8311.3739    -7630.091   -822.17069     102002.7      46.7237      46.7237      46.7237 
  334000    108.73741   -8282.4737   -7601.8101   -633.39889     102002.7      46.7237      46.7237      46.7237 
  335000    103.93166   -8308.6271    -7658.046   -652.78006     102002.7      46.7237      46.7237      46.7237 
  336000    110.13469   -8322.6715   -7633.2612   -681.93119     102002.7      46.7237      46.7237      46.7237 
  337000    109.61802   -8283.5968   -7597.4208    -621.8851     102002.7      46.7237      46.7237      46.7237 
  338000    111.69401   -8329.2863   -7630.1152   -940.64326     102002.7      46.7237      46.7237      46.7237 
  339000    107.82504   -8311.6247   -7636.6722   -703.40633     102002.7      46.7237      46.7237      46.7237 
  340000    111.32056   -8358.5351   -7661.7017   -553.45297     102002.7      46.7237      46.7237      46.7237 
  341000    110.03886   -8322.0045   -7633.1942   -887.11706     102002.7      46.7237      46.7237      46.7237 
  342000     109.4769   -8332.8079   -7647.5152   -886.49893     102002.7      46.7237      46.7237      46.7237 
  343000    108.90448   -8342.7845    -7661.075   -883.51599     102002.7      46.7237      46.7237      46.7237 
  344000    111.40447   -8335.0835   -7637.7249   -1005.8999     102002.7      46.7237      46.7237      46.7237 
  345000     112.2052   -8318.6248   -7616.2538   -868.03021     102002.7      46.7237      46.7237      46.7237 
  346000    106.58909   -8325.5644   -7658.3485   -626.87359     102002.7      46.7237      46.7237      46.7237 
  347000     114.3811   -8343.0527   -7627.0612   -802.29614     102002.7      46.7237      46.7237      46.7237 
  348000    108.68956   -8313.8972    -7633.533   -1076.1864     102002.7      46.7237      46.7237      46.7237 
  349000    107.41345   -8339.5244   -7667.1483   -719.70154     102002.7      46.7237      46.7237      46.7237 
  350000    110.46387   -8309.2918    -7617.821   -727.35215     102002.7      46.7237      46.7237      46.7237 
  351000    109.48277    -8293.999   -7608.6695   -657.95493     102002.7      46.7237      46.7237      46.7237 
  352000    110.82192   -8341.0241    -7647.312   -622.92066     102002.7      46.7237      46.7237      46.7237 
  353000     108.6707   -8318.8526   -7638.6065   -986.40235     102002.7      46.7237      46.7237      46.7237 
  354000     108.0847   -8346.7989    -7670.221    -552.3668     102002.7      46.7237      46.7237      46.7237 
  355000    108.62612   -8328.1773   -7648.2103   -564.64176     102002.7      46.7237      46.7237      46.7237 
  356000    108.02658   -8380.1287   -7703.9146   -659.22765     102002.7      46.7237      46.7237      46.7237 
  357000    108.02474   -8314.7355    -7638.533   -735.53133     102002.7      46.7237      46.7237      46.7237 
  358000    111.88032   -8324.4342   -7624.0968   -868.50981     102002.7      46.7237      46.7237      46.7237 
  359000     111.8372    -8346.108   -7646.0406     -804.061     102002.7      46.7237      46.7237      46.7237 
  360000    111.62177   -8353.0372   -7654.3183   -874.06024     102002.7      46.7237      46.7237      46.7237 
  361000    105.86287   -8338.4813   -7675.8114   -575.64498     102002.7      46.7237      46.7237      46.7237 
  362000    109.07672   -8343.5998   -7660.8122    -1004.004     102002.7      46.7237      46.7237      46.7237 
  363000    113.22572   -8330.7935   -7622.0343   -777.83585     102002.7      46.7237      46.7237      46.7237 
  364000    108.21223   -8353.0675   -7675.6913   -816.76565     102002.7      46.7237      46.7237      46.7237 
  365000     111.8566   -8315.3744   -7615.1855   -1016.7637     102002.7      46.7237      46.7237      46.7237 
  366000    109.81755   -8345.5004   -7658.0753   -537.35344     102002.7      46.7237      46.7237      46.7237 
  367000       110.87   -8328.9654   -7634.9524   -887.78477     102002.7      46.7237      46.7237      46.7237 
  368000    108.34209   -8306.2467   -7628.0576   -869.31653     102002.7      46.7237      46.7237      46.7237 
  369000    112.71097   -8330.7301   -7625.1931   -817.10606     102002.7      46.7237      46.7237      46.7237 
  370000    111.02617   -8332.0935   -7637.1028   -537.42036     102002.7      46.7237      46.7237      46.7237 
  371000    110.85376   -8330.4826   -7636.5711   -568.44314     102002.7      46.7237      46.7237      46.7237 
  372000    110.18616     -8333.46   -7643.7275   -802.40994     102002.7      46.7237      46.7237      46.7237 
  373000    114.32903   -8331.2812   -7615.6156   -545.13385     102002.7      46.7237      46.7237      46.7237 
  374000    110.47472   -8330.7782   -7639.2395   -559.93278     102002.7      46.7237      46.7237      46.7237 
  375000    109.56787   -8327.4115   -7641.5493   -472.27003     102002.7      46.7237      46.7237      46.7237 
  376000    110.56867    -8332.883   -7640.7561   -704.62157     102002.7      46.7237      46.7237      46.7237 
  377000    107.92807   -8331.0797   -7655.4823   -814.40425     102002.7      46.7237      46.7237      46.7237 
  378000    111.37399   -8348.6972   -7651.5293   -620.63183     102002.7      46.7237      46.7237      46.7237 
  379000    110.20631   -8329.4618   -7639.6032   -718.66342     102002.7      46.7237      46.7237      46.7237 
  380000    107.97408   -8296.0392   -7620.1537   -620.66259     102002.7      46.7237      46.7237      46.7237 
  381000    111.07735   -8342.8965   -7647.5855   -736.42417     102002.7      46.7237      46.7237      46.7237 
  382000    115.62734   -8288.7792   -7564.9866   -729.07918     102002.7      46.7237      46.7237      46.7237 
  383000    107.65331   -8332.5068   -7658.6293   -467.65231     102002.7      46.7237      46.7237      46.7237 
  384000    109.28717    -8325.675     -7641.57   -1002.9309     102002.7      46.7237      46.7237      46.7237 
  385000    110.77901   -8315.5216   -7622.0781    -610.6036     102002.7      46.7237      46.7237      46.7237 
  386000    109.35198   -8322.3804   -7637.8697    -830.4134     102002.7      46.7237      46.7237      46.7237 
  387000    107.33382   -8302.1992   -7630.3216   -655.19523     102002.7      46.7237      46.7237      46.7237 
  388000    109.66012   -8314.3875   -7627.9479   -609.78344     102002.7      46.7237      46.7237      46.7237 
  389000    107.80314   -8313.6274    -7638.812   -485.48782     102002.7      46.7237      46.7237      46.7237 
  390000    110.74148   -8321.5799   -7628.3714   -933.05726     102002.7      46.7237      46.7237      46.7237 
  391000    110.28316   -8333.7273   -7643.3877   -801.05493     102002.7      46.7237      46.7237      46.7237 
  392000    110.57081   -8325.9607   -7633.8205   -472.41647     102002.7      46.7237      46.7237      46.7237 
  393000    110.98021   -8331.2162   -7636.5133   -746.16993     102002.7      46.7237      46.7237      46.7237 
  394000    109.63296   -8310.8705   -7624.6009   -493.02045     102002.7      46.7237      46.7237      46.7237 
  395000    110.66866   -8322.5725   -7629.8197   -541.68273     102002.7      46.7237      46.7237      46.7237 
  396000    110.93978   -8322.1632   -7627.7133   -847.85515     102002.7      46.7237      46.7237      46.7237 
  397000     108.1835   -8335.1205   -7657.9242   -494.03229     102002.7      46.7237      46.7237      46.7237 
  398000    110.74126   -8329.7874   -7636.5802   -827.38332     102002.7      46.7237      46.7237      46.7237 
  399000    106.64516   -8315.0198    -7647.453   -877.49736     102002.7      46.7237      46.7237      46.7237 
  400000    109.27594   -8308.1516   -7624.1169   -822.50199     102002.7      46.7237      46.7237      46.7237 
  401000    109.64803   -8351.9816   -7665.6177   -637.84576     102002.7      46.7237      46.7237      46.7237 
  402000     112.1773   -8311.3109   -7609.1145   -875.93587     102002.7      46.7237      46.7237      46.7237 
  403000    108.43182   -8306.8871   -7628.1363   -713.47068     102002.7      46.7237      46.7237      46.7237 
  404000    106.39157   -8339.8799   -7673.9005   -836.69164     102002.7      46.7237      46.7237      46.7237 
  405000    112.32152   -8345.3738   -7642.2747   -431.35524     102002.7      46.7237      46.7237      46.7237 
  406000    106.67373   -8324.2259   -7656.4802   -683.17275     102002.7      46.7237      46.7237      46.7237 
  407000    112.39744   -8333.9238   -7630.3494    -865.5518     102002.7      46.7237      46.7237      46.7237 
  408000    112.31486   -8328.9902   -7625.9328   -887.85155     102002.7      46.7237      46.7237      46.7237 
  409000    113.32339   -8324.2631   -7614.8926    -904.0652     102002.7      46.7237      46.7237      46.7237 
  410000    109.32966   -8350.1126   -7665.7416   -633.76866     102002.7      46.7237      46.7237      46.7237 
  411000    109.26448   -8322.5198   -7638.5568   -961.85032     102002.7      46.7237      46.7237      46.7237 
  412000    111.35963   -8349.8015   -7652.7235   -397.56094     102002.7      46.7237      46.7237      46.7237 
  413000     110.3182   -8325.1445   -7634.5855   -653.19325     102002.7      46.7237      46.7237      46.7237 
  414000     109.0672   -8310.7066   -7627.9785   -922.14508     102002.7      46.7237      46.7237      46.7237 
  415000    108.46263   -8331.5412   -7652.5975    -937.5326     102002.7      46.7237      46.7237      46.7237 
  416000    110.62032   -8314.0589   -7621.6088   -653.98513     102002.7      46.7237      46.7237      46.7237 
  417000    106.15384   -8346.6481   -7682.1568   -886.85541     102002.7      46.7237      46.7237      46.7237 
  418000     110.4775   -8315.2533   -7623.6972   -702.70861     102002.7      46.7237      46.7237      46.7237 
  419000    113.36034   -8328.1166   -7618.5147   -587.12728     102002.7      46.7237      46.7237      46.7237 
  420000    109.28903   -8340.6446   -7656.5279   -842.70502     102002.7      46.7237      46.7237      46.7237 
  421000    110.97404   -8325.2373    -7630.573   -791.65712     102002.7      46.7237      46.7237      46.7237 
  422000    109.78647   -8312.6379   -7625.4074   -1146.8016     102002.7      46.7237      46.7237      46.7237 
  423000    110.94236   -8314.0307   -7619.5646   -892.13733     102002.7      46.7237      46.7237      46.7237 
  424000    110.50066   -8317.3902   -7625.6891   -895.84117     102002.7      46.7237      46.7237      46.7237 
  425000    108.44159    -8330.992     -7652.18   -827.25915     102002.7      46.7237      46.7237      46.7237 
  426000    107.38095   -8305.3094   -7633.1368   -1106.2439     102002.7      46.7237      46.7237      46.7237 
  427000    111.25937   -8329.6746   -7633.2242   -689.44218     102002.7      46.7237      46.7237      46.7237 
  428000    109.98872     -8346.98   -7658.4835   -811.56462     102002.7      46.7237      46.7237      46.7237 
  429000    110.64557   -8333.0656   -7640.4574   -883.68329     102002.7      46.7237      46.7237      46.7237 
  430000    109.82186   -8310.5448   -7623.0928    -1132.332     102002.7      46.7237      46.7237      46.7237 
  431000    111.04069   -8319.9864   -7624.9049   -807.14466     102002.7      46.7237      46.7237      46.7237 
  432000    108.60617     -8354.27   -7674.4278   -591.73395     102002.7      46.7237      46.7237      46.7237 
  433000    106.94775   -8305.2635   -7635.8025   -1115.3452     102002.7      46.7237      46.7237      46.7237 
  434000    109.24399   -8309.3053   -7625.4706   -935.60703     102002.7      46.7237      46.7237      46.7237 
  435000    112.12528   -8306.1411   -7604.2703   -661.14108     102002.7      46.7237      46.7237      46.7237 
  436000    108.91869   -8325.9895   -7644.1911   -930.42058     102002.7      46.7237      46.7237      46.7237 
  437000    107.81604   -8345.7901   -7670.8939   -767.37045     102002.7      46.7237      46.7237      46.7237 
  438000    110.44979   -8309.7103   -7618.3276   -831.42822     102002.7      46.7237      46.7237      46.7237 
  439000    110.24539    -8326.449   -7636.3458   -1073.9341     102002.7      46.7237      46.7237      46.7237 
  440000    111.35716   -8324.3842   -7627.3216   -1079.9466     102002.7      46.7237      46.7237      46.7237 
  441000    112.55801   -8304.2514   -7599.6719   -855.41662     102002.7      46.7237      46.7237      46.7237 
  442000    106.70833   -8324.4438   -7656.4815   -1183.6019     102002.7      46.7237      46.7237      46.7237 
  443000    110.53387   -8317.5507   -7625.6417   -844.89431     102002.7      46.7237      46.7237      46.7237 
  444000    112.26718    -8321.329     -7618.57   -1031.8151     102002.7      46.7237      46.7237      46.7237 
  445000    110.18314   -8312.7996    -7623.086   -782.41312     102002.7      46.7237      46.7237      46.7237 
  446000    108.29771   -8328.4029   -7650.4916   -724.91469     102002.7      46.7237      46.7237      46.7237 
  447000    110.01201   -8333.5228   -7644.8805   -885.24368     102002.7      46.7237      46.7237      46.7237 
  448000    109.39472   -8329.5256   -7644.7474   -584.04692     102002.7      46.7237      46.7237      46.7237 
  449000    111.82153   -8327.0026   -7627.0333     -758.563     102002.7      46.7237      46.7237      46.7237 
  450000    108.48871   -8347.4772   -7668.3703   -896.63759     102002.7      46.7237      46.7237      46.7237 
  451000    110.72558   -8326.9307   -7633.8217   -716.90903     102002.7      46.7237      46.7237      46.7237 
  452000    111.30621   -8330.2966    -7633.553   -620.45434     102002.7      46.7237      46.7237      46.7237 
  453000    109.69406   -8318.0097   -7631.3577   -535.33526     102002.7      46.7237      46.7237      46.7237 
  454000    110.80959   -8317.9375   -7624.3027   -753.65936     102002.7      46.7237      46.7237      46.7237 
  455000    111.93917   -8325.4845   -7624.7788   -801.74508     102002.7      46.7237      46.7237      46.7237 
  456000    109.81128   -8335.4232   -7648.0374   -576.43367     102002.7      46.7237      46.7237      46.7237 
  457000    110.47968   -8314.0885   -7622.5187   -1043.8612     102002.7      46.7237      46.7237      46.7237 
  458000    113.83765   -8350.3912   -7637.8015    -763.2757     102002.7      46.7237      46.7237      46.7237 
  459000    108.91633   -8334.8141   -7653.0305     -864.808     102002.7      46.7237      46.7237      46.7237 
  460000    109.29679   -8300.6364   -7616.4712   -632.91206     102002.7      46.7237      46.7237      46.7237 
  461000    109.07628   -8333.9465   -7651.1616   -842.67259     102002.7      46.7237      46.7237      46.7237 
  462000     107.6945   -8325.4467   -7651.3112   -945.03583     102002.7      46.7237      46.7237      46.7237 
  463000    110.99514   -8330.2177   -7635.4213   -542.67505     102002.7      46.7237      46.7237      46.7237 
  464000    108.52002   -8315.3896   -7636.0867   -977.38967     102002.7      46.7237      46.7237      46.7237 
  465000    108.73852   -8338.1275   -7657.4569   -812.11877     102002.7      46.7237      46.7237      46.7237 
  466000    110.89936   -8318.6211   -7624.4242   -995.95818     102002.7      46.7237      46.7237      46.7237 
  467000    109.23457   -8302.0349   -7618.2592   -990.01684     102002.7      46.7237      46.7237      46.7237 
  468000    109.68337   -8328.3911   -7641.8059   -1014.0429     102002.7      46.7237      46.7237      46.7237 
  469000    112.66351   -8316.0204   -7610.7805   -976.87913     102002.7      46.7237      46.7237      46.7237 
  470000     109.5412   -8319.2347   -7633.5396   -750.83178     102002.7      46.7237      46.7237      46.7237 
  471000    107.68448   -8348.2348   -7674.1621   -874.69477     102002.7      46.7237      46.7237      46.7237 
  472000     110.0099   -8334.2237   -7645.5946   -787.64748     102002.7      46.7237      46.7237      46.7237 
  473000    112.98478   -8316.2826   -7609.0317   -869.08729     102002.7      46.7237      46.7237      46.7237 
  474000     111.5655   -8335.6671   -7637.3004   -571.98407     102002.7      46.7237      46.7237      46.7237 
  475000    109.23789   -8315.9251   -7632.1285   -875.78025     102002.7      46.7237      46.7237      46.7237 
  476000    108.80555   -8310.6184   -7629.5281   -1114.0197     102002.7      46.7237      46.7237      46.7237 
  477000    109.64938   -8328.1755   -7641.8032   -601.81264     102002.7      46.7237      46.7237      46.7237 
  478000    107.70911   -8316.8587   -7642.6319   -782.50006     102002.7      46.7237      46.7237      46.7237 
  479000    113.23817      -8327.6   -7618.7629   -838.67751     102002.7      46.7237      46.7237      46.7237 
  480000    110.98431   -8298.9949   -7604.2663   -697.06587     102002.7      46.7237      46.7237      46.7237 
  481000     109.4585   -8331.2113   -7646.0338   -886.39223     102002.7      46.7237      46.7237      46.7237 
  482000    111.56528   -8306.4587   -7608.0934   -786.98247     102002.7      46.7237      46.7237      46.7237 
  483000    112.09568    -8319.273   -7617.5875   -1155.0025     102002.7      46.7237      46.7237      46.7237 
  484000    110.42748   -8305.5254   -7614.2823   -802.15985     102002.7      46.7237      46.7237      46.7237 
  485000    110.39668   -8323.0283   -7631.9781   -771.91874     102002.7      46.7237      46.7237      46.7237 
  486000    108.03705   -8326.4211   -7650.1415   -778.38493     102002.7      46.7237      46.7237      46.7237 
  487000    110.45901   -8321.7557   -7630.3153   -958.04583     102002.7      46.7237      46.7237      46.7237 
  488000    110.87445   -8307.4377   -7613.3968   -804.94818     102002.7      46.7237      46.7237      46.7237 
  489000    113.18644   -8326.9601   -7618.4468   -596.41992     102002.7      46.7237      46.7237      46.7237 
  490000    109.95266   -8305.1411   -7616.8704   -874.85748     102002.7      46.7237      46.7237      46.7237 
  491000    107.90611   -8315.8632   -7640.4033   -918.94436     102002.7      46.7237      46.7237      46.7237 
  492000    110.21564   -8326.8897   -7636.9727    -735.5074     102002.7      46.7237      46.7237      46.7237 
  493000    113.78897   -8328.2695   -7615.9845   -942.32198     102002.7      46.7237      46.7237      46.7237 
  494000    107.04418   -8319.0168   -7648.9523   -675.47429     102002.7      46.7237      46.7237      46.7237 
  495000    111.08917   -8309.7962   -7614.4112   -878.68387     102002.7      46.7237      46.7237      46.7237 
  496000    108.09042   -8324.6114   -7647.9976   -863.65384     102002.7      46.7237      46.7237      46.7237 
  497000    111.33992   -8321.7973   -7624.8427    -740.2594     102002.7      46.7237      46.7237      46.7237 
  498000    108.00867   -8330.4995   -7654.3975   -935.14338     102002.7      46.7237      46.7237      46.7237 
  499000     111.9634   -8306.0258   -7605.1684   -643.52873     102002.7      46.7237      46.7237      46.7237 
  500000    110.30322   -8326.2394   -7635.7742   -807.63716     102002.7      46.7237      46.7237      46.7237 
  500501    108.50267   -8333.1188   -7653.9245   -578.46988     102002.7      46.7237      46.7237      46.7237 
Loop time of 606.578 on 24 procs for 500000 steps with 2101 atoms

Performance: 71.219 ns/day, 0.337 hours/ns, 824.296 timesteps/s
99.4% CPU use with 24 MPI tasks x no OpenMP threads

MPI task timing breakdown:
Section |  min time  |  avg time  |  max time  |%varavg| %total
---------------------------------------------------------------
Pair    | 253.36     | 316.52     | 391.99     | 224.6 | 52.18
Bond    | 62.344     | 78.501     | 97.507     | 110.6 | 12.94
Neigh   | 3.4328     | 3.4615     | 3.4807     |   0.9 |  0.57
Comm    | 131.34     | 199.92     | 264.87     | 263.9 | 32.96
Output  | 0.34725    | 0.34757    | 0.35122    |   0.1 |  0.06
Modify  | 3.7274     | 4.0812     | 4.3455     |   8.2 |  0.67
Other   |            | 3.739      |            |       |  0.62

Nlocal:    87.5417 ave 110 max 57 min
Histogram: 2 0 0 2 2 7 4 4 2 1
Nghost:    2375.42 ave 2532 max 2276 min
Histogram: 8 6 2 0 0 0 0 0 1 7
Neighs:    7644.12 ave 11458 max 3932 min
Histogram: 2 1 3 2 3 3 4 5 0 1

Total # of neighbors = 183459
Ave neighs/atom = 87.3198
Ave special neighs/atom = 5.4831
Neighbor list builds = 4415
Dangerous builds = 0
Neighbor list info ...
  update every 1 steps, delay 10 steps, check yes
  max neighbors/atom: 2000, page size: 100000
  master list distance cutoff = 16
  ghost atom cutoff = 16
  binsize = 8, bins = 6 6 6
  3 neighbor lists, perpetual/occasional/extra = 3 0 0
  (1) pair buck6d/coul/gauss/dsf, perpetual, skip from (3)
      attributes: half, newton on
      pair build: skip
      stencil: none
      bin: none
  (2) pair lj/cut, perpetual, skip from (3)
      attributes: half, newton on
      pair build: skip
      stencil: none
      bin: none
  (3) neighbor class addition, perpetual
      attributes: half, newton on
      pair build: half/bin/newton
      stencil: half/bin/3d/newton
      bin: standard
Setting up Verlet run ...
  Unit style    : real
  Current step  : 500501
  Time step     : 1
WARNING: Inconsistent image flags (../domain.cpp:786)
Per MPI rank memory allocation (min/avg/max) = 24.13 | 24.5 | 24.6 Mbytes
Step Time TotEng KinEng PotEng E_mol E_pair Temp Pxx Pyy Pzz Pxy Pxz Pyz Cella Cellb Cellc CellAlpha CellBeta CellGamma Volume Press 
  500501       500000   -7653.9245     679.1943   -8333.1188    4286.0979   -12619.217    108.50267    -138.1236   -1215.1722    -382.1138    40.438514    67.115365     86.26342      46.7237      46.7237      46.7237           90           90           90     102002.7   -578.46988 
  501000       500499     -7633.55    687.64929   -8321.1993    4282.5518   -12603.751    109.85337   -1095.4228   -903.12147   -471.07962     142.8275   -382.29074   -68.570171      46.7237      46.7237      46.7237           90           90           90     102002.7   -823.20796 
  502000       501499   -7638.1015    687.19861   -8325.3001    4291.8759   -12617.176    109.78138   -161.58611   -1240.1634   -576.55063   -57.110713   -142.28434    -135.2818      46.7237      46.7237      46.7237           90           90           90     102002.7   -659.43339 
  503000       502499   -7618.0368    698.33173   -8316.3685    4296.3135   -12612.682    111.55992   -1200.1346   -650.70676   -837.86345    -68.48077   -162.90725   -242.38551      46.7237      46.7237      46.7237           90           90           90     102002.7   -896.23493 
  504000       503499   -7627.1381    692.36805   -8319.5062    4319.5322   -12639.038    110.60721   -867.67335   -1125.4544   -793.53373   -108.23853    185.72532    38.923619      46.7237      46.7237      46.7237           90           90           90     102002.7   -928.88717 
  505000       504499   -7646.6702    669.26971   -8315.9399    4301.4968   -12617.437     106.9172   -1031.4885    -905.7111   -913.55224    115.88294    143.21492    28.416451      46.7237      46.7237      46.7237           90           90           90     102002.7   -950.25062 
  506000       505499   -7634.2227    694.78022    -8329.003    4285.4053   -12614.408    110.99256   -503.66423   -514.72341   -1162.3748    -82.60786   -314.34954   -109.76477      46.7237      46.7237      46.7237           90           90           90     102002.7   -726.92081 
  507000       506499   -7589.2833    710.54539   -8299.8286    4305.7845   -12605.613    113.51107   -523.05781   -1000.9043   -799.69289    55.918899    51.720423    91.601963      46.7237      46.7237      46.7237           90           90           90     102002.7   -774.55165 
  508000       507499   -7653.3906    682.67882   -8336.0695    4282.9952   -12619.065    109.05933   -265.05327   -820.80336   -374.44869    22.962744     -233.887    115.62052      46.7237      46.7237      46.7237           90           90           90     102002.7   -486.76844 
  509000       508499   -7651.8431    690.27548   -8342.1186    4280.9748   -12623.093    110.27291   -578.36133   -464.40767   -985.88029   -65.431541    152.27532    85.664634      46.7237      46.7237      46.7237           90           90           90     102002.7   -676.21643 
  510000       509499   -7642.4361    693.93306   -8336.3691    4290.6221   -12626.991    110.85722    -501.8276   -444.58048   -591.06837   -104.76206   -9.6512314   -35.419579      46.7237      46.7237      46.7237           90           90           90     102002.7   -512.49215 
  511000       510499    -7668.522    682.83637   -8351.3584    4280.6276   -12631.986     109.0845    -927.9928   -991.73026   -717.41977   -32.092721    161.31633   -74.632401      46.7237      46.7237      46.7237           90           90           90     102002.7   -879.04761 
  512000       511499   -7648.8271    683.29046   -8332.1175    4285.7074   -12617.825    109.15704   -974.02413   -855.59077    -553.7698   -163.22994    90.989893    310.22246      46.7237      46.7237      46.7237           90           90           90     102002.7   -794.46157 
  513000       512499   -7634.8543     688.0019   -8322.8562    4283.1674   -12606.024     109.9097   -720.13124   -1137.5936   -1142.8729   -47.969294    169.18756    125.76946      46.7237      46.7237      46.7237           90           90           90     102002.7   -1000.1993 
  514000       513499   -7609.9789      690.837   -8300.8159    4305.9804   -12606.796    110.36262   -640.18045   -970.07508   -409.28037    285.70753   -33.772591    74.596458      46.7237      46.7237      46.7237           90           90           90     102002.7   -673.17863 
  515000       514499   -7632.5884    693.00334   -8325.5917     4281.021   -12606.613    110.70869   -790.92731    -1226.055   -395.35317   -48.449662   -114.92324   -71.199109      46.7237      46.7237      46.7237           90           90           90     102002.7   -804.11183 
  516000       515499    -7620.224    700.90836   -8321.1324    4309.1241   -12630.257    111.97154   -543.06902   -880.43603   -452.75342    337.15164   -114.20552    34.978719      46.7237      46.7237      46.7237           90           90           90     102002.7   -625.41949 
  517000       516499   -7664.9287    673.52038   -8338.4491    4276.2784   -12614.727    107.59625   -867.31487    -752.8664   -774.48534   -174.06712   -72.927165   -14.829627      46.7237      46.7237      46.7237           90           90           90     102002.7    -798.2222 
  518000       517499   -7625.5716    695.40557   -8320.9772    4285.4515   -12606.429    111.09246   -897.80584   -994.39692   -1201.2143    200.28467   -131.66784   -187.81658      46.7237      46.7237      46.7237           90           90           90     102002.7    -1031.139 
  519000       518499   -7691.9959    667.63168   -8359.6276    4258.5802   -12618.208    106.65552   -576.32025   -963.13222   -863.33168    230.02841     3.718772    44.718991      46.7237      46.7237      46.7237           90           90           90     102002.7   -800.92805 
  520000       519499    -7613.016    705.11676   -8318.1327     4291.437    -12609.57    112.64384    -591.3057   -364.74387   -578.35331    3.1557508   -144.11731    332.62783      46.7237      46.7237      46.7237           90           90           90     102002.7   -511.46763 
  521000       520499   -7651.5685    676.39925   -8327.9678    4274.9855   -12602.953    108.05616   -765.60108   -620.43021   -707.45409   -104.28477     16.12398    236.75253      46.7237      46.7237      46.7237           90           90           90     102002.7   -697.82846 
  522000       521499   -7662.1621    674.84418   -8337.0062    4292.7513   -12629.758    107.80773    -579.0317   -838.06057   -425.99017   -134.95025    242.14111    103.31136      46.7237      46.7237      46.7237           90           90           90     102002.7   -614.36081 
  523000       522499   -7611.4926    701.21274   -8312.7053    4291.6457   -12604.351    112.02016   -942.02579   -752.06431   -910.80853   -50.975097    77.969426    67.859048      46.7237      46.7237      46.7237           90           90           90     102002.7   -868.29954 
  524000       523499   -7647.5641    672.90365   -8320.4678    4301.6471   -12622.115    107.49773   -546.54302   -644.75535   -450.01182    94.293668   -55.905085    138.15229      46.7237      46.7237      46.7237           90           90           90     102002.7    -547.1034 
  525000       524499   -7659.2936    683.03337    -8342.327    4276.2957   -12618.623    109.11597   -990.78925   -940.89322   -796.97656    138.98293    16.469147   -20.591222      46.7237      46.7237      46.7237           90           90           90     102002.7   -909.55301 
  526000       525499   -7623.9977    696.17801   -8320.1757    4307.5881   -12627.764    111.21586   -821.38834    -687.1477   -1188.7505   -43.258777    408.12003   -5.1581661      46.7237      46.7237      46.7237           90           90           90     102002.7   -899.09552 
  527000       526499   -7667.2617      675.773   -8343.0347    4286.0046   -12629.039    107.95611   -988.65647   -838.93709   -547.55593   -191.31353   -155.64633    16.895592      46.7237      46.7237      46.7237           90           90           90     102002.7    -791.7165 
  528000       527499   -7626.5663    673.74338   -8300.3097    4334.1652   -12634.475    107.63188   -637.37454   -1019.7067   -1646.2742    239.78811   -441.06827   -255.00635      46.7237      46.7237      46.7237           90           90           90     102002.7   -1101.1185 
  529000       528499   -7625.5561    686.14813   -8311.7043     4296.738   -12608.442    109.61356    -629.6496   -549.87603   -944.56473     269.8595    90.460581    64.717469      46.7237      46.7237      46.7237           90           90           90     102002.7   -708.03012 
  530000       529499   -7643.5454    680.96041   -8324.5058    4296.4907   -12620.997    108.78481   -657.47176    -797.0822   -532.60822   -164.91132   0.78460079    204.54931      46.7237      46.7237      46.7237           90           90           90     102002.7   -662.38739 
  531000       530499     -7608.56    687.52801    -8296.088    4322.2061   -12618.294      109.834   -1336.7095   -425.76939   -1162.8848   -46.686111    232.53811   -3.0050666      46.7237      46.7237      46.7237           90           90           90     102002.7   -975.12121 
  532000       531499   -7634.1519    684.12754   -8318.2794    4309.9102    -12628.19    109.29077   -1106.7274    -531.0987   -1132.2355    54.509518   -44.389521    272.81669      46.7237      46.7237      46.7237           90           90           90     102002.7   -923.35387 
  533000       532499   -7666.7664     658.8855   -8325.6519    4286.3601   -12612.012     105.2583   -530.76617    -1009.765   -663.87449    32.941751   -67.921459    76.675919      46.7237      46.7237      46.7237           90           90           90     102002.7   -734.80189 
  534000       533499   -7628.5615    676.48547    -8305.047     4318.741   -12623.788    108.06993   -745.48969   -735.60449   -931.35449   -75.417616    254.26583   -16.883808      46.7237      46.7237      46.7237           90           90           90     102002.7   -804.14955 
  535000       534499   -7634.8915    686.15827   -8321.0498    4300.9112   -12621.961    109.61518   -852.64122   -1201.1936   -836.58834   -193.36575   -17.477833   -45.473971      46.7237      46.7237      46.7237           90           90           90     102002.7   -963.47439 
  536000       535499   -7641.7367    687.76273   -8329.4994    4281.1729   -12610.672     109.8715   -656.93376   -1137.9064   -174.11308    39.988365    3.5446465    425.40549      46.7237      46.7237      46.7237           90           90           90     102002.7   -656.31776 
  537000       536499   -7654.9323    692.85228   -8347.7846     4288.544   -12636.329    110.68456   -649.22287   -829.78311   -1025.6802    104.32246     19.99991   -30.907646      46.7237      46.7237      46.7237           90           90           90     102002.7   -834.89539 
  538000       537499   -7629.3576    693.42847   -8322.7861    4294.1182   -12616.904    110.77661   -902.82474   -943.31175   -674.92186    86.078227   -69.871705   -171.30049      46.7237      46.7237      46.7237           90           90           90     102002.7   -840.35278 
  539000       538499   -7668.3672    673.53032   -8341.8975    4292.7962   -12634.694    107.59784   -815.06181   -1248.4802   -1006.6202   -49.386443   -81.817538    149.44639      46.7237      46.7237      46.7237           90           90           90     102002.7   -1023.3874 
  540000       539499   -7632.4698    705.98243   -8338.4522    4279.4517   -12617.904    112.78213   -698.57218   -828.45457   -1158.7942   -172.78837    45.643861   -142.11724      46.7237      46.7237      46.7237           90           90           90     102002.7   -895.27364 
  541000       540499   -7623.1588    708.14437   -8331.3032    4315.9458   -12647.249    113.12751   -762.00476   -829.17484    -1028.195    348.74733   -26.817853    45.177388      46.7237      46.7237      46.7237           90           90           90     102002.7   -873.12485 
  542000       541499   -7661.7998    693.64264   -8355.4425    4283.0985   -12638.541    110.81082   -643.18215   -914.45634   -303.48738   -106.54627   -125.41877   -281.64464      46.7237      46.7237      46.7237           90           90           90     102002.7   -620.37529 
  543000       542499   -7626.7684      706.578   -8333.3464    4275.1494   -12608.496    112.87727   -869.14754   -623.69247   -696.81767    82.797991    30.135048    1.3667782      46.7237      46.7237      46.7237           90           90           90     102002.7   -729.88589 
  544000       543499   -7638.8518    693.07535   -8331.9272    4305.5205   -12637.448     110.7202   -512.56296   -990.17694   -859.10542   -52.433374   -96.079028    291.20413      46.7237      46.7237      46.7237           90           90           90     102002.7   -787.28177 
  545000       544499   -7663.7451    680.38973   -8344.1348    4271.0071   -12615.142    108.69364    -446.4669   -577.86196   -1044.5536   -29.496465   -103.24133    57.330069      46.7237      46.7237      46.7237           90           90           90     102002.7   -689.62748 
  546000       545499   -7649.9864    704.25115   -8354.2376    4272.3759   -12626.613    112.50556   -773.02586   -1136.4293     -823.584   -124.11004   -17.546192   -197.25183      46.7237      46.7237      46.7237           90           90           90     102002.7   -911.01306 
  547000       546499   -7620.8078    712.34512   -8333.1529    4285.2097   -12618.363    113.79858   -687.59265   -830.88663   -418.67793   -6.3172485   -292.54705    6.6499471      46.7237      46.7237      46.7237           90           90           90     102002.7   -645.71907 
  548000       547499   -7662.0098    689.58463   -8351.5944    4271.2837   -12622.878    110.16255   -771.92047   -1003.9517   -1184.0424    126.34237   -92.956954    54.001743      46.7237      46.7237      46.7237           90           90           90     102002.7   -986.63819 
  549000       548499   -7642.2581    702.17472   -8344.4328    4308.0951   -12652.528    112.17384   -1211.4728    -617.7293    -1095.447    -99.88801   -189.79762    50.085004      46.7237      46.7237      46.7237           90           90           90     102002.7   -974.88303 
  550000       549499   -7620.5111    706.33243   -8326.8435    4303.7695   -12630.613    112.83804   -572.46919   -674.34357   -1304.7197   0.55128937    225.95467   -117.99437      46.7237      46.7237      46.7237           90           90           90     102002.7   -850.51082 
  551000       550499   -7651.2804    688.97265   -8340.2531    4274.2455   -12614.499    110.06478   -573.38581   -1151.7168   -713.14573    98.206671    235.79227    148.18754      46.7237      46.7237      46.7237           90           90           90     102002.7   -812.74945 
  552000       551499   -7671.0751    657.35367   -8328.4288    4286.3375   -12614.766    105.01359   -597.21298   -597.77744   -900.30517   -15.136123    269.78538    17.417157      46.7237      46.7237      46.7237           90           90           90     102002.7   -698.43186 
  553000       552499   -7662.4611    684.41883     -8346.88    4282.7171   -12629.597     109.3373   -580.00322   -601.55089   -790.64843   -260.09387    -130.1846     21.26027      46.7237      46.7237      46.7237           90           90           90     102002.7   -657.40085 
  554000       553499   -7646.1363    690.23137   -8336.3676    4294.9304   -12631.298    110.26587   -713.03273   -922.66502    -535.6727   -13.503348    139.10325     -121.911      46.7237      46.7237      46.7237           90           90           90     102002.7   -723.79015 
  555000       554499    -7627.546    685.31722   -8312.8632    4304.6488   -12617.512    109.48082   -614.03824   -510.45522   -768.59622    14.633748   -143.76593   -54.098394      46.7237      46.7237      46.7237           90           90           90     102002.7   -631.02989 
[...]
  936000       935499   -7650.3464    684.51858   -8334.8649    4292.7654    -12627.63    109.35324   -847.77324   -941.73269     -615.691    70.139606    61.379061   -12.855374      46.7237      46.7237      46.7237           90           90           90     102002.7   -801.73231 
  937000       936499   -7613.1195    695.96959   -8309.0891    4301.7877   -12610.877    111.18256    -1327.647   -1006.2382   -934.75224    40.937574   -125.48443    16.436039      46.7237      46.7237      46.7237           90           90           90     102002.7   -1089.5458 
  938000       937499    -7665.427     671.9799   -8337.4069    4298.4296   -12635.836    107.35016   -656.26872   -686.25567   -916.07788   -100.28881    65.145049    218.66166      46.7237      46.7237      46.7237           90           90           90     102002.7   -752.86742 
  939000       938499    -7625.743    687.19213   -8312.9351    4307.6914   -12620.626    109.78034   -750.43621   -691.72705   -1016.6551   -61.898458    121.59611   -59.375921      46.7237      46.7237      46.7237           90           90           90     102002.7   -819.60612 
  940000       939499   -7646.6818    696.57296   -8343.2547    4290.0951    -12633.35    111.27895   -1228.4548    -593.4698   -850.74365   -76.450012    131.11117    148.03401      46.7237      46.7237      46.7237           90           90           90     102002.7   -890.88942 
  941000       940499   -7617.6868    684.86207   -8302.5489    4323.8041   -12626.353    109.40811   -915.82199   -1098.6833   -719.00293    260.45201    42.907491    58.545396      46.7237      46.7237      46.7237           90           90           90     102002.7   -911.16941 
  942000       941499   -7644.7544    695.26696   -8340.0213     4272.142   -12612.163    111.07031    -708.1402   -725.18057   -809.03616    39.644118   0.16118745   -450.99831      46.7237      46.7237      46.7237           90           90           90     102002.7   -747.45231 
  943000       942499   -7635.1103    687.38251   -8322.4928     4308.523   -12631.016    109.81076   -638.57803   -722.56914   -454.19873   -196.07999   -92.849844    23.416921      46.7237      46.7237      46.7237           90           90           90     102002.7    -605.1153 
  944000       943499   -7665.4189    671.02771   -8336.4466    4282.8944   -12619.341    107.19804   -1044.1336   -990.99452   -930.51016   -25.829583    64.803145    144.73332      46.7237      46.7237      46.7237           90           90           90     102002.7    -988.5461 
  945000       944499    -7603.724    699.56635   -8303.2903    4313.5393    -12616.83    111.75715   -560.26344   -1044.8271   -284.75244    230.21694   -134.00695    268.44544      46.7237      46.7237      46.7237           90           90           90     102002.7   -629.94765 
  946000       945499   -7628.9227    692.52446   -8321.4471    4319.9151   -12641.362    110.63219   -126.91181   -975.27133   -417.49834    84.083174    179.53278    136.83566      46.7237      46.7237      46.7237           90           90           90     102002.7   -506.56049 
  947000       946499   -7641.7914    690.94108   -8332.7325    4310.4794   -12643.212    110.37924   -1003.5834   -1188.7999   -908.95208    39.755015   -21.052133      103.776      46.7237      46.7237      46.7237           90           90           90     102002.7   -1033.7785 
  948000       947499   -7620.7846    708.72467   -8329.5093     4283.401    -12612.91    113.22021   -294.47192    -477.3228   -466.96032    36.531917   -50.766472    71.649161      46.7237      46.7237      46.7237           90           90           90     102002.7   -412.91835 
  949000       948499   -7614.3593    713.43715   -8327.7964    4297.1368   -12624.933    113.97304   -418.92263   -653.51825   -453.49275   -180.16452   -22.769587    7.7013852      46.7237      46.7237      46.7237           90           90           90     102002.7   -508.64454 
  950000       949499   -7634.4806    679.57209   -8314.0527    4288.5195   -12602.572    108.56303   -647.31267   -1026.3711   -350.43936    32.135543    -73.74892   -90.676909      46.7237      46.7237      46.7237           90           90           90     102002.7   -674.70769 
  951000       950499   -7630.2554    694.95783   -8325.2132    4280.4041   -12605.617    111.02093   -725.20908    -434.2804   -221.21374   -42.253139     11.16766    172.40456      46.7237      46.7237      46.7237           90           90           90     102002.7   -460.23441 
  952000       951499   -7632.0767     680.6411   -8312.7178    4295.3465   -12608.064     108.7338   -558.61623   -850.36414   -452.22048    298.90372    173.40733    62.835629      46.7237      46.7237      46.7237           90           90           90     102002.7   -620.40029 
  953000       952499   -7654.3059    683.20045   -8337.5063    4286.0955   -12623.602    109.14266   -757.57341    -133.1223   -480.70478    247.77901    -26.22596    -136.5866      46.7237      46.7237      46.7237           90           90           90     102002.7   -457.13349 
  954000       953499   -7619.8845    696.70773   -8316.5922    4287.1607   -12603.753    111.30048    -423.2487   -606.00047   -688.48742    18.918088    25.689518   -147.71835      46.7237      46.7237      46.7237           90           90           90     102002.7   -572.57886 
  955000       954499    -7645.374    691.95898    -8337.333    4281.1685   -12618.501    110.54186    -734.1683   -850.38642   -560.10411   -22.925995   -168.01827    38.925476      46.7237      46.7237      46.7237           90           90           90     102002.7   -714.88628 
  956000       955499   -7617.1151    703.75079   -8320.8659    4296.6875   -12617.553    112.42562   -1097.3665   -298.76202   -906.58468    110.19763    104.25958   -112.22735      46.7237      46.7237      46.7237           90           90           90     102002.7   -767.57105 
  957000       956499   -7620.2127    684.34055   -8304.5532    4306.0432   -12610.596     109.3248   -808.28119   -753.19389   -659.33789   -195.77355    229.20686    379.05124      46.7237      46.7237      46.7237           90           90           90     102002.7   -740.27099 
  958000       957499   -7642.8588    682.61339   -8325.4721    4275.6705   -12601.143    109.04888   -816.40927   -940.89265   -746.76095   -190.74336    7.1469635    31.146879      46.7237      46.7237      46.7237           90           90           90     102002.7   -834.68762 
  959000       958499   -7600.2453    694.59257   -8294.8379    4332.1508   -12626.989    110.96258   -813.01967   -786.20635   -832.28973   -112.04633    68.316733   -16.409891      46.7237      46.7237      46.7237           90           90           90     102002.7   -810.50525 
  960000       959499   -7660.4415    681.94464   -8342.3861    4301.3038    -12643.69    108.94205   -666.54359   -667.83631   -947.99088   -99.152417   -169.63063    256.37092      46.7237      46.7237      46.7237           90           90           90     102002.7   -760.79026 
  961000       960499   -7629.8701    692.21722   -8322.0873    4289.1255   -12611.213    110.58311   -1101.8341   -496.91252   -563.49325    65.543589   0.64938394    11.935484      46.7237      46.7237      46.7237           90           90           90     102002.7   -720.74664 
  962000       961499   -7633.3207    690.13571   -8323.4564    4272.2149   -12595.671    110.25059   -799.63896   -867.00525   -225.97394    25.694009    52.679459    119.37441      46.7237      46.7237      46.7237           90           90           90     102002.7   -630.87272 
  963000       962499   -7641.0711    692.94734   -8334.0184    4270.6274   -12604.646    110.69975   -729.63665   -507.67823   -433.59538    227.11184   -28.635999    140.19828      46.7237      46.7237      46.7237           90           90           90     102002.7   -556.97009 
  964000       963499   -7643.1089    688.69156   -8331.8005    4307.7319   -12639.532    110.01988   -966.00621   -531.32236   -397.82709    15.974682   -99.225841   -132.67331      46.7237      46.7237      46.7237           90           90           90     102002.7   -631.71855 
  965000       964499   -7649.8128    686.87216   -8336.6849    4269.3653    -12606.05    109.72923    -1061.318   -884.00238   -1488.7571   -9.4054298   -35.481907   -238.39928      46.7237      46.7237      46.7237           90           90           90     102002.7   -1144.6925 
  966000       965499   -7670.9678    663.47052   -8334.4383    4293.9323   -12628.371    105.99077   -973.21138   -811.19293   -1088.7832   -73.652074    -156.6187   -37.808772      46.7237      46.7237      46.7237           90           90           90     102002.7   -957.72918 
  967000       966499   -7632.8393    673.02549   -8305.8648    4312.9179   -12618.783    107.51719   -720.69507   -545.78607   -854.73963     112.1683    234.26582   -41.269881      46.7237      46.7237      46.7237           90           90           90     102002.7   -707.07359 
  968000       967499   -7626.2509    695.75131   -8322.0022     4307.263   -12629.265    111.14769   -608.99314   -1407.1931     -1118.25    16.463616    186.91744   -188.75657      46.7237      46.7237      46.7237           90           90           90     102002.7   -1044.8121 
  969000       968499   -7645.9531    684.04927   -8330.0024    4279.7445   -12609.747    109.27826   -486.76274    -576.5972   -1215.9978   -118.15869    290.32668   -248.86009      46.7237      46.7237      46.7237           90           90           90     102002.7    -759.7859 
  970000       969499   -7648.6745    678.85509   -8327.5296    4284.6945   -12612.224    108.44848   -757.38258   -792.18603   -1248.5827   -42.299724    139.65573   -59.142084      46.7237      46.7237      46.7237           90           90           90     102002.7   -932.71709 
  971000       970499   -7637.0247    693.05164   -8330.0763    4273.4122   -12603.489    110.71641   -563.36326   -538.74941    -1097.946   -50.016924    197.07818   -1.0190657      46.7237      46.7237      46.7237           90           90           90     102002.7   -733.35289 
  972000       971499   -7655.3622    676.51001   -8331.8722    4271.0533   -12602.926    108.07385   -1049.9035   -894.92165   -784.18305    -11.89848    32.987612     308.6458      46.7237      46.7237      46.7237           90           90           90     102002.7   -909.66941 
  973000       972499   -7636.8982    673.48316   -8310.3813     4319.854   -12630.235    107.59031   -1318.0916   -1419.6479   -687.54553   -158.93262    65.791741   -63.182643      46.7237      46.7237      46.7237           90           90           90     102002.7   -1141.7616 
  974000       973499   -7622.9944    686.11917   -8309.1136    4313.2555   -12622.369    109.60894    -410.8674   -608.09652    -657.3052    86.502204    89.243914   -13.487538      46.7237      46.7237      46.7237           90           90           90     102002.7   -558.75637 
  975000       974499   -7617.8582    687.28234   -8305.1406    4289.7702   -12594.911    109.79475   -806.39547   -904.24066   -1064.4128    63.111629   -15.901705    102.18875      46.7237      46.7237      46.7237           90           90           90     102002.7    -925.0163 
  976000       975499   -7653.3947    675.52338    -8328.918    4284.3077   -12613.226    107.91624   -123.02953   -720.83428   -1347.4668    89.212372   -55.208008    79.272685      46.7237      46.7237      46.7237           90           90           90     102002.7   -730.44354 
  977000       976499   -7646.6213    687.51399   -8334.1353    4263.1187   -12597.254    109.83176   -741.79768   -1245.3769   -1039.4799   -37.922872   -332.76737    209.37766      46.7237      46.7237      46.7237           90           90           90     102002.7   -1008.8848 
  978000       977499   -7602.4799    697.49326   -8299.9732    4306.2093   -12606.183    111.42597   -547.29968   -549.42627   -552.89825    -180.3077    88.370683   -46.789679      46.7237      46.7237      46.7237           90           90           90     102002.7   -549.87473 
  979000       978499   -7611.1977    698.57766   -8309.7754    4290.6188   -12600.394     111.5992   -695.55588   -719.33774   -725.24606    98.099119    43.649613    110.69643      46.7237      46.7237      46.7237           90           90           90     102002.7    -713.3799 
  980000       979499   -7654.8064    668.39556    -8323.202    4293.3824   -12616.584    106.77755   -1063.7003   -1104.4338   -1118.4271    -21.91701     122.1293   -182.95648      46.7237      46.7237      46.7237           90           90           90     102002.7   -1095.5204 
  981000       980499   -7623.2664    681.96235   -8305.2287    4317.7036   -12622.932    108.94487   -893.62502   -700.89508   -936.69744    120.57339    68.095047    56.166426      46.7237      46.7237      46.7237           90           90           90     102002.7   -843.73918 
  982000       981499   -7660.1623    674.94652   -8335.1088    4286.0042   -12621.113    107.82408   -778.32998   -1234.6503   -1098.5156   -91.479393   -85.109285    42.836814      46.7237      46.7237      46.7237           90           90           90     102002.7   -1037.1653 
  983000       982499   -7646.8573     691.4125   -8338.2698    4282.4785   -12620.748    110.45456   -740.29574   -919.09692   -726.78552   -168.65511   -61.018383   -40.632479      46.7237      46.7237      46.7237           90           90           90     102002.7   -795.39273 
  984000       983499   -7616.7967    692.51189   -8309.3086    4310.8754   -12620.184    110.63018     -755.464   -873.31597   -1307.2011    116.21271   -7.7854398   -111.42697      46.7237      46.7237      46.7237           90           90           90     102002.7   -978.66037 
  985000       984499   -7648.5701    673.76716   -8322.3373     4303.201   -12625.538    107.63568   -1126.5799   -1439.1679   -537.83704   -139.57487    121.70353    190.02955      46.7237      46.7237      46.7237           90           90           90     102002.7   -1034.5283 
  986000       985499   -7682.1918    662.86993   -8345.0617    4260.3571   -12605.419    105.89482   -638.56394   -147.07909    -210.6752   -18.481105     195.8985   -90.371798      46.7237      46.7237      46.7237           90           90           90     102002.7   -332.10608 
  987000       986499   -7611.5683    704.81492   -8316.3832    4290.5758   -12606.959    112.59562   -750.70442   -866.11886   -1246.8284    38.471672   -123.47624   -85.474469      46.7237      46.7237      46.7237           90           90           90     102002.7   -954.55056 
  988000       987499   -7641.0457    686.43887   -8327.4846    4298.8101   -12626.295    109.66001   -795.44174   -856.80481   -882.03874   -42.228314    181.50831   -48.033067      46.7237      46.7237      46.7237           90           90           90     102002.7   -844.76176 
  989000       988499    -7622.436    678.81107    -8301.247    4290.7091   -12591.956    108.44145   -958.50612   -816.30491   -520.56052    203.18176    77.337548    99.557272      46.7237      46.7237      46.7237           90           90           90     102002.7   -765.12385 
  990000       989499   -7616.2746    694.46784   -8310.7424    4289.0096   -12599.752    110.94265    -1366.041   -913.05713   -1219.4218   -115.42357   -41.325012    82.210574      46.7237      46.7237      46.7237           90           90           90     102002.7   -1166.1733 
  991000       990499   -7631.3774     676.1662   -8307.5436    4312.9932   -12620.537    108.01893   -792.00618   -519.99204   -578.74867   -9.1610629   -89.875573    37.935167      46.7237      46.7237      46.7237           90           90           90     102002.7   -630.24896 
  992000       991499   -7653.6019    678.87282   -8332.4748    4291.8873   -12624.362    108.45132   -1499.3782   -1377.3383   -793.33381   -12.015878   -103.76292   -91.364152      46.7237      46.7237      46.7237           90           90           90     102002.7   -1223.3501 
  993000       992499    -7639.688    677.76626   -8317.4542    4305.3765   -12622.831    108.27454   -703.47022    -785.8378   -936.31681   -201.34155    -45.83253     -177.684      46.7237      46.7237      46.7237           90           90           90     102002.7   -808.54161 
  994000       993499   -7634.6592    707.69387   -8342.3531    4300.4497   -12642.803    113.05554   -615.95391   -720.97612   -404.71978     256.9158    17.148743     36.48737      46.7237      46.7237      46.7237           90           90           90     102002.7   -580.54993 
  995000       994499   -7638.7673    676.35478   -8315.1221    4322.3332   -12637.455    108.04905    -1427.241   -926.09528   -1092.5943   -82.371749   -76.782891    146.11134      46.7237      46.7237      46.7237           90           90           90     102002.7   -1148.6435 
  996000       995499   -7656.9072     694.0412   -8350.9484    4286.0224   -12636.971    110.87449   -729.55846   -691.52282   -630.92272   -182.03892    51.548831   -150.85861      46.7237      46.7237      46.7237           90           90           90     102002.7   -684.00133 
  997000       996499    -7625.861    694.51142   -8320.3724    4299.7249   -12620.097    110.94961   -755.72678    -1156.626   -1130.2229    -275.7887    125.55922    61.097984      46.7237      46.7237      46.7237           90           90           90     102002.7   -1014.1919 
  998000       997499   -7641.5642    704.01515   -8345.5793    4271.0249   -12616.604    112.46785   -971.75792   -423.91042   -917.29411   -3.3096874   -90.512935    -172.3496      46.7237      46.7237      46.7237           90           90           90     102002.7   -770.98748 
  999000       998499   -7651.7468    682.49351   -8334.2403    4314.3929   -12648.633    109.02973    -907.7141   -788.10972   -771.07777    102.18351    71.569797    137.48536      46.7237      46.7237      46.7237           90           90           90     102002.7   -822.30053 
 1000000       999499   -7655.1616    672.90852   -8328.0701    4301.0959   -12629.166    107.49851   -806.20271   -1383.9765   -992.24551   -130.53189    33.882113   -73.666262      46.7237      46.7237      46.7237           90           90           90     102002.7   -1060.8083 
 1000501      1000000   -7667.1333    681.27619   -8348.4095     4275.992   -12624.402    108.83526   -693.22237   -643.44956   -1136.1421   -108.77011    30.068121   -25.790075      46.7237      46.7237      46.7237           90           90           90     102002.7   -824.27135 
Loop time of 684.466 on 24 procs for 500000 steps with 2101 atoms

Performance: 63.115 ns/day, 0.380 hours/ns, 730.497 timesteps/s
99.5% CPU use with 24 MPI tasks x no OpenMP threads

MPI task timing breakdown:
Section |  min time  |  avg time  |  max time  |%varavg| %total
---------------------------------------------------------------
Pair    | 281.6      | 360.19     | 446.89     | 248.1 | 52.62
Bond    | 61.487     | 82.54      | 104.19     | 128.9 | 12.06
Neigh   | 3.4581     | 3.4851     | 3.5036     |   0.8 |  0.51
Comm    | 130        | 221.81     | 305.64     | 316.2 | 32.41
Output  | 0.5032     | 0.52875    | 0.53001    |   0.7 |  0.08
Modify  | 11.804     | 12.185     | 12.543     |   5.2 |  1.78
Other   |            | 3.724      |            |       |  0.54

Nlocal:    87.5417 ave 121 max 67 min
Histogram: 3 1 4 6 4 2 3 0 0 1
Nghost:    2365.38 ave 2490 max 2267 min
Histogram: 2 3 9 2 0 0 0 0 4 4
Neighs:    7638.96 ave 13497 max 5050 min
Histogram: 6 5 2 3 3 2 2 0 0 1

Total # of neighbors = 183335
Ave neighs/atom = 87.2608
Ave special neighs/atom = 5.4831
Neighbor list builds = 4387
Dangerous builds = 0
Total wall time: 0:21:32
