LAMMPS (30 Mar 2018)
Reading data file ...
  orthogonal box = (0 0 0) to (46.7237 46.7237 46.7237)
  2 by 2 by 4 MPI processor grid
  reading atoms ...
  1919 atoms
  scanning bonds ...
  5 = max bonds/atom
  scanning angles ...
  10 = max angles/atom
  scanning dihedrals ...
  32 = max dihedrals/atom
  scanning impropers ...
  3 = max impropers/atom
  reading bonds ...
  2064 bonds
  reading angles ...
  3696 angles
  reading dihedrals ...
  6240 dihedrals
  reading impropers ...
  1008 impropers
Finding 1-2 1-3 1-4 neighbors ...
  special bond factors lj:   0          0          0         
  special bond factors coul: 0          0          0         
  5 = max # of 1-2 neighbors
  8 = max # of 1-3 neighbors
  20 = max # of 1-4 neighbors
  19 = max # of special neighbors
Finding 1-2 1-3 1-4 neighbors ...
  special bond factors lj:   0          0          1         
  special bond factors coul: 1          1          1         
  5 = max # of 1-2 neighbors
  8 = max # of 1-3 neighbors
  19 = max # of special neighbors
WARNING: Using 'neigh_modify every 1 delay 0 check yes' setting during minimization (../min.cpp:168)
Neighbor list info ...
  update every 1 steps, delay 0 steps, check yes
  max neighbors/atom: 2000, page size: 100000
  master list distance cutoff = 16
  ghost atom cutoff = 16
  binsize = 8, bins = 6 6 6
  3 neighbor lists, perpetual/occasional/extra = 3 0 0
  (1) pair buck6d/coul/gauss/dsf, perpetual, skip from (3)
      attributes: half, newton on
      pair build: skip
      stencil: none
      bin: none
  (2) pair lj/cut, perpetual, skip from (3)
      attributes: half, newton on
      pair build: skip
      stencil: none
      bin: none
  (3) neighbor class addition, perpetual
      attributes: half, newton on
      pair build: half/bin/newton
      stencil: half/bin/3d/newton
      bin: standard
Setting up cg style minimization ...
  Unit style    : real
  Current step  : 0
WARNING: Inconsistent image flags (../domain.cpp:786)
Per MPI rank memory allocation (min/avg/max) = 22.9 | 23.36 | 23.8 Mbytes
Step Temp E_pair E_mol TotEng Press 
       0            0    -12117.32    6482.8914    -5634.429    6091.3923 
     501            0   -12167.832    3722.6171   -8445.2146   -612.71071 
Loop time of 3.04898 on 16 procs for 501 steps with 1919 atoms

99.9% CPU use with 16 MPI tasks x no OpenMP threads

Minimization stats:
  Stopping criterion = max force evaluations
  Energy initial, next-to-last, final = 
         -5634.4289506     -8445.19824143     -8445.21462676
  Force two-norm initial, final = 2576.12 6.01934
  Force max component initial, final = 152.138 0.67808
  Final line search alpha, max atom move = 0.0156362 0.0106026
  Iterations, force evaluations = 501 1000

MPI task timing breakdown:
Section |  min time  |  avg time  |  max time  |%varavg| %total
---------------------------------------------------------------
Pair    | 1.2684     | 1.7456     | 2.2617     |  24.8 | 57.25
Bond    | 0.30085    | 0.35972    | 0.40941    |   4.7 | 11.80
Neigh   | 0.020665   | 0.020823   | 0.020976   |   0.1 |  0.68
Comm    | 0.34944    | 0.88279    | 1.4151     |  35.9 | 28.95
Output  | 0          | 0          | 0          |   0.0 |  0.00
Modify  | 0          | 0          | 0          |   0.0 |  0.00
Other   |            | 0.04005    |            |       |  1.31

Nlocal:    119.938 ave 131 max 105 min
Histogram: 1 1 1 3 0 2 2 0 5 1
Nghost:    2362.56 ave 2377 max 2347 min
Histogram: 1 2 1 2 3 0 0 2 3 2
Neighs:    11455.1 ave 15543 max 7968 min
Histogram: 3 2 3 0 0 2 1 2 0 3

Total # of neighbors = 183281
Ave neighs/atom = 95.5086
Ave special neighs/atom = 6.00313
Neighbor list builds = 14
Dangerous builds = 0
Neighbor list info ...
  update every 1 steps, delay 10 steps, check yes
  max neighbors/atom: 2000, page size: 100000
  master list distance cutoff = 16
  ghost atom cutoff = 16
  binsize = 8, bins = 6 6 6
  3 neighbor lists, perpetual/occasional/extra = 3 0 0
  (1) pair buck6d/coul/gauss/dsf, perpetual, skip from (3)
      attributes: half, newton on
      pair build: skip
      stencil: none
      bin: none
  (2) pair lj/cut, perpetual, skip from (3)
      attributes: half, newton on
      pair build: skip
      stencil: none
      bin: none
  (3) neighbor class addition, perpetual
      attributes: half, newton on
      pair build: half/bin/newton
      stencil: half/bin/3d/newton
      bin: standard
Setting up Verlet run ...
  Unit style    : real
  Current step  : 501
  Time step     : 1
WARNING: Inconsistent image flags (../domain.cpp:786)
Per MPI rank memory allocation (min/avg/max) = 22.55 | 22.65 | 23.2 Mbytes
Step Temp PotEng TotEng Press Volume Lx Ly Lz 
     501           91   -8445.2146     -7924.95   -379.55531     102002.7      46.7237      46.7237      46.7237 
    1000    76.863277   -7968.7224   -7529.2802   -731.86002     102002.7      46.7237      46.7237      46.7237 
    2000    97.550297   -7930.9082   -7373.1943    -653.0142     102002.7      46.7237      46.7237      46.7237 
    3000    90.047205   -7899.8316   -7385.0143    -741.1394     102002.7      46.7237      46.7237      46.7237 
    4000    90.934098   -7903.1859    -7383.298   -581.67548     102002.7      46.7237      46.7237      46.7237 
    5000    90.955603   -7918.5722   -7398.5614   -710.34505     102002.7      46.7237      46.7237      46.7237 
    6000    90.449084   -7905.0031   -7387.8882   -613.91872     102002.7      46.7237      46.7237      46.7237 
    7000    88.301519   -7911.6285   -7406.7916   -507.22482     102002.7      46.7237      46.7237      46.7237 
    8000    92.346841   -7903.8818    -7375.917   -938.79807     102002.7      46.7237      46.7237      46.7237 
    9000    90.659557   -7919.2644   -7400.9461   -847.44755     102002.7      46.7237      46.7237      46.7237 
   10000    89.907173   -7887.8085   -7373.7917   -778.29318     102002.7      46.7237      46.7237      46.7237 
   11000    91.537708   -7903.3574   -7380.0185   -723.86055     102002.7      46.7237      46.7237      46.7237 
   12000    89.792313   -7900.6034   -7387.2434   -595.47486     102002.7      46.7237      46.7237      46.7237 
   13000    91.443555   -7906.5131   -7383.7126   -874.75764     102002.7      46.7237      46.7237      46.7237 
   14000    89.876981   -7913.0162   -7399.1721   -418.36474     102002.7      46.7237      46.7237      46.7237 
   15000    91.616594   -7890.7949   -7367.0051   -489.30933     102002.7      46.7237      46.7237      46.7237 
   16000    91.963912    -7917.199   -7391.4235   -717.64915     102002.7      46.7237      46.7237      46.7237 
   17000    89.365799   -7900.2034   -7389.2818    -730.3969     102002.7      46.7237      46.7237      46.7237 
   18000    91.973555   -7904.8323   -7379.0016   -1184.4786     102002.7      46.7237      46.7237      46.7237 
   19000    93.994711   -7910.3411   -7372.9551   -750.20698     102002.7      46.7237      46.7237      46.7237 
   20000    91.903512   -7877.3068   -7351.8766   -853.86091     102002.7      46.7237      46.7237      46.7237 
   21000    89.263316   -7900.7167   -7390.3811   -916.97301     102002.7      46.7237      46.7237      46.7237 
   22000    88.326626   -7891.0255   -7386.0451   -600.15056     102002.7      46.7237      46.7237      46.7237 
   23000    91.953239   -7900.2491   -7374.5346   -962.89445     102002.7      46.7237      46.7237      46.7237 
   24000    94.396208   -7905.7822   -7366.1008   -862.16384     102002.7      46.7237      46.7237      46.7237 
   25000     91.67693    -7896.072   -7371.9373    -495.9664     102002.7      46.7237      46.7237      46.7237 
   26000    91.615878   -7909.5047    -7385.719   -738.16206     102002.7      46.7237      46.7237      46.7237 
   27000    93.011971   -7902.2369   -7370.4694   -543.89258     102002.7      46.7237      46.7237      46.7237 
   28000    91.200632   -7901.6766   -7380.2649   -852.14337     102002.7      46.7237      46.7237      46.7237 
   29000    94.624186   -7907.6184   -7366.6336   -467.78919     102002.7      46.7237      46.7237      46.7237 
   30000    91.380718   -7918.9825   -7396.5412    -552.2567     102002.7      46.7237      46.7237      46.7237 
   31000    89.838447   -7895.4056   -7381.7817   -881.78717     102002.7      46.7237      46.7237      46.7237 
   32000    91.353346   -7892.0319   -7369.7471   -571.69514     102002.7      46.7237      46.7237      46.7237 
   33000    90.259186   -7917.2116   -7401.1824   -579.97894     102002.7      46.7237      46.7237      46.7237 
   34000    94.576076   -7906.2462   -7365.5364   -590.03332     102002.7      46.7237      46.7237      46.7237 
   35000    90.275436   -7899.3178   -7383.1956   -459.33589     102002.7      46.7237      46.7237      46.7237 
   36000    91.511397   -7891.9428   -7368.7544    -950.1219     102002.7      46.7237      46.7237      46.7237 
   37000    87.932509    -7906.336   -7403.6088   -726.24738     102002.7      46.7237      46.7237      46.7237 
   38000     89.48505   -7891.1013    -7379.498   -685.62753     102002.7      46.7237      46.7237      46.7237 
   39000    87.960485   -7897.4153   -7394.5282   -711.28083     102002.7      46.7237      46.7237      46.7237 
   40000    92.873016   -7892.7909   -7361.8178   -730.87229     102002.7      46.7237      46.7237      46.7237 
   41000    87.905008   -7895.2265   -7392.6565   -1034.2862     102002.7      46.7237      46.7237      46.7237 
   42000     91.26812   -7892.1701   -7370.3725   -578.79621     102002.7      46.7237      46.7237      46.7237 
   43000    91.500915   -7895.8883   -7372.7598   -806.65262     102002.7      46.7237      46.7237      46.7237 
   44000    93.335341   -7884.6924   -7351.0762   -761.19353     102002.7      46.7237      46.7237      46.7237 
   45000    92.103891   -7881.4628    -7354.887   -623.22363     102002.7      46.7237      46.7237      46.7237 
   46000    89.734321   -7888.4971   -7375.4686    -745.6438     102002.7      46.7237      46.7237      46.7237 
   47000    90.424765   -7914.6133   -7397.6374   -670.72697     102002.7      46.7237      46.7237      46.7237 
   48000     91.27637   -7907.7813   -7385.9366    -838.4981     102002.7      46.7237      46.7237      46.7237 
   49000    91.618033   -7895.1778   -7371.3798   -705.72791     102002.7      46.7237      46.7237      46.7237 
   50000    91.062342   -7909.4419   -7388.8208   -822.91668     102002.7      46.7237      46.7237      46.7237 
   51000    91.523957   -7881.1367   -7357.8765   -670.06395     102002.7      46.7237      46.7237      46.7237 
   52000    92.308388   -7908.0661   -7380.3212   -523.77647     102002.7      46.7237      46.7237      46.7237 
   53000    90.251007   -7903.5816   -7387.5991    -894.1083     102002.7      46.7237      46.7237      46.7237 
   54000    89.087538   -7882.7702   -7373.4395   -785.21894     102002.7      46.7237      46.7237      46.7237 
   55000    92.090311   -7898.3104   -7371.8123   -577.05054     102002.7      46.7237      46.7237      46.7237 
   56000    89.674639    -7887.101   -7374.4137   -844.14778     102002.7      46.7237      46.7237      46.7237 
   57000    94.653081   -7902.8949   -7361.7449   -942.70041     102002.7      46.7237      46.7237      46.7237 
   58000    93.242752   -7915.9315   -7382.8447   -996.11406     102002.7      46.7237      46.7237      46.7237 
   59000    91.867671   -7892.1838   -7366.9585   -764.56237     102002.7      46.7237      46.7237      46.7237 
   60000       91.794    -7901.305   -7376.5009   -554.82143     102002.7      46.7237      46.7237      46.7237 
   61000    93.043393   -7911.4251    -7379.478   -853.11395     102002.7      46.7237      46.7237      46.7237 
   62000    92.390911   -7888.6652   -7360.4485   -824.67752     102002.7      46.7237      46.7237      46.7237 
   63000    91.207143   -7903.4958   -7382.0469   -740.36268     102002.7      46.7237      46.7237      46.7237 
   64000      93.1133   -7900.1739   -7367.8272   -792.57042     102002.7      46.7237      46.7237      46.7237 
   65000    89.426812   -7902.6252   -7391.3548   -671.10929     102002.7      46.7237      46.7237      46.7237 
   66000    89.518021   -7898.8561   -7387.0642   -742.99876     102002.7      46.7237      46.7237      46.7237 
   67000    91.838488    -7870.111   -7345.0526   -717.16298     102002.7      46.7237      46.7237      46.7237 
   68000    90.864628   -7904.5599   -7385.0692   -861.57168     102002.7      46.7237      46.7237      46.7237 
   69000    89.560627   -7898.6179   -7386.5824   -857.71275     102002.7      46.7237      46.7237      46.7237 
   70000    91.597953   -7885.1467   -7361.4635   -748.85503     102002.7      46.7237      46.7237      46.7237 
   71000    89.100406   -7889.7372   -7380.3329   -771.94626     102002.7      46.7237      46.7237      46.7237 
   72000    91.371847   -7896.5878   -7374.1973   -651.68496     102002.7      46.7237      46.7237      46.7237 
   73000    91.149614   -7900.9647   -7379.8447   -521.03926     102002.7      46.7237      46.7237      46.7237 
   74000    92.806329   -7869.4798    -7338.888   -816.94288     102002.7      46.7237      46.7237      46.7237 
   75000    90.837851   -7907.0799   -7387.7423   -450.00305     102002.7      46.7237      46.7237      46.7237 
   76000    89.781481   -7892.1305   -7378.8323   -537.53435     102002.7      46.7237      46.7237      46.7237 
   77000     89.32537   -7908.6376   -7397.9472   -801.96694     102002.7      46.7237      46.7237      46.7237 
   78000     89.52914   -7907.3315    -7395.476   -704.35921     102002.7      46.7237      46.7237      46.7237 
   79000    92.109412   -7910.0431   -7383.4357   -816.62867     102002.7      46.7237      46.7237      46.7237 
   80000    89.479956   -7901.2065   -7389.6322   -814.01599     102002.7      46.7237      46.7237      46.7237 
   81000    90.418085   -7895.1867    -7378.249   -707.95881     102002.7      46.7237      46.7237      46.7237 
   82000    95.374063   -7915.8379   -7370.5659   -726.19567     102002.7      46.7237      46.7237      46.7237 
   83000    91.010392   -7915.8361   -7395.5121    -611.5862     102002.7      46.7237      46.7237      46.7237 
   84000    90.085204   -7892.2901   -7377.2555   -710.38418     102002.7      46.7237      46.7237      46.7237 
   85000    91.389207   -7896.2352   -7373.7454   -737.92333     102002.7      46.7237      46.7237      46.7237 
   86000    90.037953   -7910.6602   -7395.8958   -881.80444     102002.7      46.7237      46.7237      46.7237 
   87000    85.420021   -7903.1139   -7414.7511   -677.55463     102002.7      46.7237      46.7237      46.7237 
   88000    90.934439   -7907.6104   -7387.7206   -682.43868     102002.7      46.7237      46.7237      46.7237 
   89000    93.738021   -7895.2909   -7359.3725   -898.75224     102002.7      46.7237      46.7237      46.7237 
   90000    90.240497   -7892.2254    -7376.303   -987.48935     102002.7      46.7237      46.7237      46.7237 
   91000    90.792055   -7889.0036   -7369.9278   -1020.3411     102002.7      46.7237      46.7237      46.7237 
   92000    90.730283   -7893.1866    -7374.464   -962.75196     102002.7      46.7237      46.7237      46.7237 
   93000    89.533401   -7889.5456   -7377.6658    -472.9411     102002.7      46.7237      46.7237      46.7237 
   94000    90.907001   -7863.6939   -7343.9609   -713.97266     102002.7      46.7237      46.7237      46.7237 
   95000    91.908735    -7904.637    -7379.177    -776.1348     102002.7      46.7237      46.7237      46.7237 
   96000     91.34243   -7901.7445   -7379.5221   -784.49239     102002.7      46.7237      46.7237      46.7237 
   97000    92.394407   -7906.8344   -7378.5977   -1033.6579     102002.7      46.7237      46.7237      46.7237 
   98000    90.681738   -7888.9094   -7370.4644   -709.19903     102002.7      46.7237      46.7237      46.7237 
   99000    93.757921   -7906.0326   -7370.0004   -767.39363     102002.7      46.7237      46.7237      46.7237 
  100000    91.030887    -7921.595   -7401.1538   -930.41206     102002.7      46.7237      46.7237      46.7237 
  101000    91.696701   -7887.2033   -7362.9555   -814.47359     102002.7      46.7237      46.7237      46.7237 
  102000    92.523299   -7898.1535   -7369.1799   -1032.5823     102002.7      46.7237      46.7237      46.7237 
  103000    92.576739   -7911.0724   -7381.7933   -945.39023     102002.7      46.7237      46.7237      46.7237 
  104000    92.847565   -7891.8551   -7361.0276   -898.16297     102002.7      46.7237      46.7237      46.7237 
  105000    90.460319   -7895.4339   -7378.2548   -1112.2475     102002.7      46.7237      46.7237      46.7237 
  106000    90.451143   -7913.4938   -7396.3671   -914.60118     102002.7      46.7237      46.7237      46.7237 
  107000    89.664352   -7902.2671   -7389.6387   -921.39666     102002.7      46.7237      46.7237      46.7237 
  108000     91.50005   -7894.3346   -7371.2111   -906.73632     102002.7      46.7237      46.7237      46.7237 
  109000    90.534844   -7903.6266   -7386.0214   -681.58429     102002.7      46.7237      46.7237      46.7237 
  110000    92.315962   -7913.4955   -7385.7073   -861.52404     102002.7      46.7237      46.7237      46.7237 
  111000    88.696635   -7897.0978   -7390.0019   -1025.8259     102002.7      46.7237      46.7237      46.7237 
  112000     88.13202   -7890.8584   -7386.9905   -402.64067     102002.7      46.7237      46.7237      46.7237 
  113000    90.846027   -7890.1885   -7370.8041   -838.43429     102002.7      46.7237      46.7237      46.7237 
  114000    91.860696   -7894.8492   -7369.6638   -944.14953     102002.7      46.7237      46.7237      46.7237 
  115000    92.178169   -7900.2281   -7373.2276    -639.0006     102002.7      46.7237      46.7237      46.7237 
  116000    89.291004   -7898.4152   -7387.9213   -888.70692     102002.7      46.7237      46.7237      46.7237 
  117000    90.761107   -7914.8765   -7395.9777   -656.90372     102002.7      46.7237      46.7237      46.7237 
  118000    90.972861   -7888.8269   -7368.7175    -670.8338     102002.7      46.7237      46.7237      46.7237 
  119000    93.765195   -7907.8932   -7371.8194    -945.4209     102002.7      46.7237      46.7237      46.7237 
  120000    91.498459   -7892.7355   -7369.6211   -528.41372     102002.7      46.7237      46.7237      46.7237 
  121000    91.645785   -7907.1833   -7383.2266   -754.11215     102002.7      46.7237      46.7237      46.7237 
  122000    93.781084   -7928.7314   -7392.5667   -397.95828     102002.7      46.7237      46.7237      46.7237 
  123000    91.247212   -7893.1628   -7371.4848     -741.151     102002.7      46.7237      46.7237      46.7237 
  124000    92.988613   -7874.3174   -7342.6835   -882.44688     102002.7      46.7237      46.7237      46.7237 
  125000    89.911406   -7913.3562   -7399.3153   -707.86076     102002.7      46.7237      46.7237      46.7237 
  126000    87.409744   -7906.9517   -7407.2132   -694.25057     102002.7      46.7237      46.7237      46.7237 
  127000    90.068106   -7896.6946   -7381.7578   -522.51931     102002.7      46.7237      46.7237      46.7237 
  128000    89.185373   -7908.2887   -7398.3986   -762.35816     102002.7      46.7237      46.7237      46.7237 
  129000    93.526374   -7905.7217   -7371.0133   -784.84023     102002.7      46.7237      46.7237      46.7237 
  130000    89.359813   -7901.6258   -7390.7384    -802.4665     102002.7      46.7237      46.7237      46.7237 
  131000    91.077331   -7908.0849   -7387.3781   -977.15141     102002.7      46.7237      46.7237      46.7237 
  132000    91.705802    -7907.912   -7383.6122   -725.99071     102002.7      46.7237      46.7237      46.7237 
  133000    92.128221   -7894.4231   -7367.7082   -881.69136     102002.7      46.7237      46.7237      46.7237 
  134000    90.391955   -7904.5577   -7387.7694   -793.01726     102002.7      46.7237      46.7237      46.7237 
  135000    93.666514   -7897.6634   -7362.1538   -739.27474     102002.7      46.7237      46.7237      46.7237 
  136000    89.446802   -7908.3996   -7397.0149   -919.15568     102002.7      46.7237      46.7237      46.7237 
  137000    89.221898   -7889.7278    -7379.629   -568.52555     102002.7      46.7237      46.7237      46.7237 
  138000    93.253263    -7886.385    -7353.238   -531.36085     102002.7      46.7237      46.7237      46.7237 
  139000    90.873076   -7905.3649   -7385.8259   -735.77426     102002.7      46.7237      46.7237      46.7237 
  140000    86.728391   -7905.3576   -7409.5146   -862.10601     102002.7      46.7237      46.7237      46.7237 
  141000    92.640348   -7902.1065   -7372.4637   -1001.8066     102002.7      46.7237      46.7237      46.7237 
  142000    92.070676   -7884.2942   -7357.9083   -559.69855     102002.7      46.7237      46.7237      46.7237 
  143000    90.728897   -7906.3404   -7387.6258   -779.02989     102002.7      46.7237      46.7237      46.7237 
  144000    91.436955   -7904.2414   -7381.4786   -867.06915     102002.7      46.7237      46.7237      46.7237 
  145000     94.11964   -7885.7822    -7347.682   -621.71333     102002.7      46.7237      46.7237      46.7237 
  146000    89.019684   -7883.6706   -7374.7278   -684.66265     102002.7      46.7237      46.7237      46.7237 
  147000    89.667888   -7881.4511   -7368.8024   -638.21277     102002.7      46.7237      46.7237      46.7237 
  148000    88.728799   -7885.6637    -7378.384     -714.958     102002.7      46.7237      46.7237      46.7237 
  149000    89.364059    -7879.365   -7368.4533   -810.66201     102002.7      46.7237      46.7237      46.7237 
  150000    91.539874   -7896.7647   -7373.4135   -877.78043     102002.7      46.7237      46.7237      46.7237 
  151000    90.371876   -7916.2051   -7399.5316   -726.67764     102002.7      46.7237      46.7237      46.7237 
  152000    90.070515   -7895.3743   -7380.4237   -544.96414     102002.7      46.7237      46.7237      46.7237 
  153000    94.497299   -7882.5607   -7342.3013   -673.74968     102002.7      46.7237      46.7237      46.7237 
  154000     90.89367   -7891.1236   -7371.4669   -934.60925     102002.7      46.7237      46.7237      46.7237 
  155000    89.014249   -7900.2396   -7391.3279   -718.84664     102002.7      46.7237      46.7237      46.7237 
  156000    90.016082   -7899.0471   -7384.4077   -1122.9078     102002.7      46.7237      46.7237      46.7237 
  157000    89.934074   -7903.1547   -7388.9842   -870.05617     102002.7      46.7237      46.7237      46.7237 
  158000    89.583929   -7893.5717   -7381.4031   -966.90893     102002.7      46.7237      46.7237      46.7237 
  159000    93.553025    -7878.291   -7343.4302   -817.25038     102002.7      46.7237      46.7237      46.7237 
  160000    92.607845   -7902.4836   -7373.0266   -957.22474     102002.7      46.7237      46.7237      46.7237 
  161000    89.373937   -7897.3682   -7386.4001   -1046.1695     102002.7      46.7237      46.7237      46.7237 
  162000    92.383476   -7894.5138   -7366.3396   -818.51237     102002.7      46.7237      46.7237      46.7237 
  163000    90.298764   -7878.4873   -7362.2318   -731.80546     102002.7      46.7237      46.7237      46.7237 
  164000    88.933736   -7896.4317   -7387.9803   -801.31362     102002.7      46.7237      46.7237      46.7237 
  165000    90.346105   -7890.6614   -7374.1353    -651.2268     102002.7      46.7237      46.7237      46.7237 
  166000    89.207145   -7902.0199   -7392.0054   -839.72393     102002.7      46.7237      46.7237      46.7237 
  167000    92.527453   -7879.8116   -7350.8142   -650.10405     102002.7      46.7237      46.7237      46.7237 
  168000     91.44363   -7912.8111   -7390.0102   -684.42971     102002.7      46.7237      46.7237      46.7237 
  169000    92.507677   -7900.2709   -7371.3866   -851.60879     102002.7      46.7237      46.7237      46.7237 
  170000    91.047696   -7885.9666   -7365.4293   -638.05653     102002.7      46.7237      46.7237      46.7237 
  171000    89.675633   -7901.9077   -7389.2148   -732.64872     102002.7      46.7237      46.7237      46.7237 
  172000    93.733839   -7900.3074   -7364.4129   -578.56984     102002.7      46.7237      46.7237      46.7237 
  173000    91.039113   -7906.0725   -7385.5843   -585.65704     102002.7      46.7237      46.7237      46.7237 
  174000    92.152989    -7896.739   -7369.8826   -760.86936     102002.7      46.7237      46.7237      46.7237 
  175000    91.391242   -7891.7662   -7369.2648   -443.54613     102002.7      46.7237      46.7237      46.7237 
  176000    90.147255   -7888.7505   -7373.3612   -761.25471     102002.7      46.7237      46.7237      46.7237 
  177000    90.459731    -7886.941   -7369.7652   -746.73968     102002.7      46.7237      46.7237      46.7237 
  178000    91.884461   -7896.2813     -7370.96   -573.23452     102002.7      46.7237      46.7237      46.7237 
  179000    91.526638     -7899.85   -7376.5745   -512.70833     102002.7      46.7237      46.7237      46.7237 
  180000    88.371885   -7910.5251    -7405.286   -385.09672     102002.7      46.7237      46.7237      46.7237 
  181000    89.848397    -7887.866   -7374.1853   -765.54367     102002.7      46.7237      46.7237      46.7237 
  182000    88.427316   -7900.9667   -7395.4106   -592.76073     102002.7      46.7237      46.7237      46.7237 
  183000    91.072366   -7904.7998   -7384.1214   -336.04981     102002.7      46.7237      46.7237      46.7237 
  184000    90.012568   -7910.6549   -7396.0357    -772.1303     102002.7      46.7237      46.7237      46.7237 
  185000    90.145872   -7881.0329   -7365.6515   -861.56868     102002.7      46.7237      46.7237      46.7237 
  186000    90.370389   -7905.6519   -7388.9869   -551.67872     102002.7      46.7237      46.7237      46.7237 
  187000    89.748276    -7905.128   -7392.0197   -652.66142     102002.7      46.7237      46.7237      46.7237 
  188000    89.539963   -7892.8277   -7380.9104   -721.25243     102002.7      46.7237      46.7237      46.7237 
  189000     93.37218   -7880.3421   -7346.5153   -800.03479     102002.7      46.7237      46.7237      46.7237 
  190000    91.557157   -7887.4176   -7363.9676   -488.46279     102002.7      46.7237      46.7237      46.7237 
  191000    92.085201   -7911.1649    -7384.696   -535.24528     102002.7      46.7237      46.7237      46.7237 
  192000     90.64013   -7882.7484   -7364.5412   -876.25547     102002.7      46.7237      46.7237      46.7237 
  193000    89.399647   -7877.8078   -7366.6928    -703.3411     102002.7      46.7237      46.7237      46.7237 
  194000    91.203366   -7909.0159   -7387.5886   -887.30371     102002.7      46.7237      46.7237      46.7237 
  195000    90.145845    -7876.016   -7360.6347   -601.39846     102002.7      46.7237      46.7237      46.7237 
  196000    89.626953   -7892.7116   -7380.2969   -638.00841     102002.7      46.7237      46.7237      46.7237 
  197000    90.885365   -7894.0071   -7374.3979   -840.12936     102002.7      46.7237      46.7237      46.7237 
  198000    92.067119   -7898.9239   -7372.5583   -813.56838     102002.7      46.7237      46.7237      46.7237 
  199000    92.284186    -7907.718   -7380.1115   -663.18249     102002.7      46.7237      46.7237      46.7237 
  200000     89.15015   -7916.3451   -7406.6565   -754.06811     102002.7      46.7237      46.7237      46.7237 
  201000    90.606889   -7902.1766   -7384.1595   -570.04959     102002.7      46.7237      46.7237      46.7237 
  202000    91.609758   -7895.5408   -7371.7901   -720.13358     102002.7      46.7237      46.7237      46.7237 
  203000    92.549222   -7876.8609   -7347.7391   -758.06101     102002.7      46.7237      46.7237      46.7237 
  204000    92.779265   -7902.6779   -7372.2409   -859.13479     102002.7      46.7237      46.7237      46.7237 
  205000    88.880494   -7887.4537   -7379.3067   -571.49708     102002.7      46.7237      46.7237      46.7237 
  206000    89.771214   -7900.1505   -7386.9111   -655.12077     102002.7      46.7237      46.7237      46.7237 
  207000    93.571865    -7865.918   -7330.9495   -709.55312     102002.7      46.7237      46.7237      46.7237 
  208000    93.661381   -7905.9667   -7370.4864    -625.1219     102002.7      46.7237      46.7237      46.7237 
  209000    90.144296   -7912.1452   -7396.7728   -676.32471     102002.7      46.7237      46.7237      46.7237 
  210000    92.688241   -7901.7117    -7371.795   -769.14078     102002.7      46.7237      46.7237      46.7237 
  211000    87.744354   -7892.1913   -7390.5398    -998.9124     102002.7      46.7237      46.7237      46.7237 
  212000    93.315852   -7907.6664   -7374.1616   -565.68662     102002.7      46.7237      46.7237      46.7237 
  213000    93.916113   -7898.8065   -7361.8699   -734.91343     102002.7      46.7237      46.7237      46.7237 
  214000    89.494473   -7889.7027   -7378.0455   -702.82756     102002.7      46.7237      46.7237      46.7237 
  215000    89.682863   -7902.9498   -7390.2155   -822.32951     102002.7      46.7237      46.7237      46.7237 
  216000    87.632318   -7889.3609   -7388.3499   -638.17577     102002.7      46.7237      46.7237      46.7237 
  217000    90.859677   -7881.8908   -7362.4284   -835.79955     102002.7      46.7237      46.7237      46.7237 
  218000    92.441845   -7895.9733   -7367.4654   -688.71258     102002.7      46.7237      46.7237      46.7237 
  219000    89.822417   -7895.7001    -7382.168   -864.93893     102002.7      46.7237      46.7237      46.7237 
  220000    91.838948    -7902.269    -7377.208   -683.49157     102002.7      46.7237      46.7237      46.7237 
  221000    92.194207   -7891.7407   -7364.6485    -805.4032     102002.7      46.7237      46.7237      46.7237 
  222000    91.096348   -7890.4446   -7369.6291   -875.12796     102002.7      46.7237      46.7237      46.7237 
  223000    89.418504   -7891.7834   -7380.5605   -782.61204     102002.7      46.7237      46.7237      46.7237 
  224000    91.657032   -7890.7652   -7366.7442   -639.52958     102002.7      46.7237      46.7237      46.7237 
  225000    89.307964    -7890.019   -7379.4281   -623.34166     102002.7      46.7237      46.7237      46.7237 
  226000    91.769967   -7885.7552   -7361.0885   -616.80083     102002.7      46.7237      46.7237      46.7237 
  227000    87.319403   -7892.6129    -7393.391   -687.87957     102002.7      46.7237      46.7237      46.7237 
  228000    87.721123   -7881.5204   -7380.0018   -584.55193     102002.7      46.7237      46.7237      46.7237 
  229000    91.183742   -7924.0473   -7402.7322   -582.84555     102002.7      46.7237      46.7237      46.7237 
  230000    91.292926   -7884.3099   -7362.3706   -799.09716     102002.7      46.7237      46.7237      46.7237 
  231000    89.991295   -7925.0019   -7410.5043   -316.85311     102002.7      46.7237      46.7237      46.7237 
  232000    90.690359   -7897.2197   -7378.7254   -700.97953     102002.7      46.7237      46.7237      46.7237 
  233000    88.455702     -7892.71   -7386.9916   -918.89409     102002.7      46.7237      46.7237      46.7237 
  234000    90.094013    -7903.207   -7388.1221   -620.96504     102002.7      46.7237      46.7237      46.7237 
  235000    89.927741   -7890.1938   -7376.0595   -759.66241     102002.7      46.7237      46.7237      46.7237 
  236000      88.5113   -7886.8231   -7380.7868   -821.53737     102002.7      46.7237      46.7237      46.7237 
  237000    90.269808   -7884.7264   -7368.6364    -615.3844     102002.7      46.7237      46.7237      46.7237 
  238000     91.46196   -7900.8974   -7377.9917    -632.8443     102002.7      46.7237      46.7237      46.7237 
  239000    89.670943   -7894.4911    -7381.825   -424.44753     102002.7      46.7237      46.7237      46.7237 
  240000    92.455203   -7890.9083    -7362.324   -718.14926     102002.7      46.7237      46.7237      46.7237 
  241000    86.683866   -7919.1449   -7423.5564   -816.34145     102002.7      46.7237      46.7237      46.7237 
  242000    93.160569   -7906.2637   -7373.6466   -774.69398     102002.7      46.7237      46.7237      46.7237 
  243000    89.899425   -7894.8506   -7380.8782   -802.53047     102002.7      46.7237      46.7237      46.7237 
  244000    89.611725   -7906.3694   -7394.0418   -794.41981     102002.7      46.7237      46.7237      46.7237 
  245000    89.185183   -7900.0014   -7390.1124   -802.06812     102002.7      46.7237      46.7237      46.7237 
  246000    92.721039   -7886.4771   -7356.3729   -677.11267     102002.7      46.7237      46.7237      46.7237 
  247000    92.149862   -7883.7048   -7356.8662   -797.31001     102002.7      46.7237      46.7237      46.7237 
  248000    88.918634    -7887.918    -7379.553   -862.98994     102002.7      46.7237      46.7237      46.7237 
  249000    94.832993    -7889.857   -7347.6784   -744.03932     102002.7      46.7237      46.7237      46.7237 
  250000    88.104698   -7886.3115   -7382.5999    -643.3958     102002.7      46.7237      46.7237      46.7237 
  251000    91.693414    -7894.677    -7370.448   -730.78511     102002.7      46.7237      46.7237      46.7237 
  252000    89.007768   -7904.4046   -7395.5299   -982.13475     102002.7      46.7237      46.7237      46.7237 
  253000    92.012332   -7908.2803    -7382.228    -980.4305     102002.7      46.7237      46.7237      46.7237 
  254000    92.793046   -7903.0806   -7372.5648   -910.24804     102002.7      46.7237      46.7237      46.7237 
  255000    92.431312   -7887.8029   -7359.3552   -659.35945     102002.7      46.7237      46.7237      46.7237 
  256000    90.515554   -7908.4036   -7390.9087   -536.20759     102002.7      46.7237      46.7237      46.7237 
  257000    89.437432   -7875.6688   -7364.3377   -696.68476     102002.7      46.7237      46.7237      46.7237 
  258000    90.083027   -7893.1766   -7378.1544   -515.26917     102002.7      46.7237      46.7237      46.7237 
  259000    90.731548   -7903.5616   -7384.8318    -431.2035     102002.7      46.7237      46.7237      46.7237 
  260000    92.288838   -7894.5699   -7366.9368   -971.83106     102002.7      46.7237      46.7237      46.7237 
  261000    87.509011   -7876.2285   -7375.9225   -765.14861     102002.7      46.7237      46.7237      46.7237 
  262000     90.37899   -7917.2156   -7400.5014   -850.05598     102002.7      46.7237      46.7237      46.7237 
  263000    92.411963   -7910.3838   -7382.0467   -513.18623     102002.7      46.7237      46.7237      46.7237 
  264000    90.504708   -7887.6842   -7370.2512   -634.40755     102002.7      46.7237      46.7237      46.7237 
  265000    93.747212   -7897.8459   -7361.8749   -753.29965     102002.7      46.7237      46.7237      46.7237 
  266000    91.957871   -7875.7262   -7349.9853    -474.9829     102002.7      46.7237      46.7237      46.7237 
  267000     90.15612   -7888.6808   -7373.2408   -853.47716     102002.7      46.7237      46.7237      46.7237 
  268000    93.027146   -7897.8442     -7365.99   -807.73988     102002.7      46.7237      46.7237      46.7237 
  269000    87.521587   -7900.1772   -7399.7993   -649.59845     102002.7      46.7237      46.7237      46.7237 
  270000    89.395464   -7876.3584   -7365.2672   -981.86752     102002.7      46.7237      46.7237      46.7237 
  271000    90.757148   -7902.0251   -7383.1489   -703.30572     102002.7      46.7237      46.7237      46.7237 
  272000    89.260034   -7880.9653   -7370.6484   -1203.4656     102002.7      46.7237      46.7237      46.7237 
  273000    90.974931   -7882.3201   -7362.1988   -794.53659     102002.7      46.7237      46.7237      46.7237 
  274000    91.471606   -7908.6513   -7385.6904   -691.55363     102002.7      46.7237      46.7237      46.7237 
  275000    90.885385   -7906.0033    -7386.394   -566.89998     102002.7      46.7237      46.7237      46.7237 
  276000    87.102236    -7889.042   -7391.0616   -812.11565     102002.7      46.7237      46.7237      46.7237 
  277000    90.782217   -7888.8473   -7369.8278   -973.20084     102002.7      46.7237      46.7237      46.7237 
  278000     92.10942   -7896.3701   -7369.7627   -598.76759     102002.7      46.7237      46.7237      46.7237 
  279000    94.518924   -7902.7982   -7362.4152   -924.40426     102002.7      46.7237      46.7237      46.7237 
  280000    93.193922   -7896.6794   -7363.8717   -744.31797     102002.7      46.7237      46.7237      46.7237 
  281000    92.160642   -7917.6746   -7390.7743   -779.53965     102002.7      46.7237      46.7237      46.7237 
  282000    90.563927   -7907.1944   -7389.4229   -848.11454     102002.7      46.7237      46.7237      46.7237 
  283000    91.559461   -7889.8719   -7366.4088   -469.63586     102002.7      46.7237      46.7237      46.7237 
  284000      87.3033   -7908.1596   -7409.0298   -829.51527     102002.7      46.7237      46.7237      46.7237 
  285000    89.830322   -7906.9079   -7393.3306   -835.61057     102002.7      46.7237      46.7237      46.7237 
  286000    91.880661   -7908.6925    -7383.393   -664.43301     102002.7      46.7237      46.7237      46.7237 
  287000    92.083272    -7904.192   -7377.7341   -601.82027     102002.7      46.7237      46.7237      46.7237 
  288000    91.239057   -7900.6711   -7379.0397   -563.92953     102002.7      46.7237      46.7237      46.7237 
  289000    92.055997   -7875.5774   -7349.2754   -1310.8141     102002.7      46.7237      46.7237      46.7237 
  290000    88.988616   -7893.8507   -7385.0855   -783.82174     102002.7      46.7237      46.7237      46.7237 
  291000    92.557853   -7889.1087   -7359.9375   -726.21415     102002.7      46.7237      46.7237      46.7237 
  292000    93.326974   -7904.0729   -7370.5045   -893.75162     102002.7      46.7237      46.7237      46.7237 
  293000    90.988585   -7916.8879   -7396.6885   -1037.5631     102002.7      46.7237      46.7237      46.7237 
  294000    90.231987   -7905.3834   -7389.5096    -1134.747     102002.7      46.7237      46.7237      46.7237 
  295000    90.388345   -7899.5769   -7382.8093   -783.10963     102002.7      46.7237      46.7237      46.7237 
  296000    92.212662   -7918.7978   -7391.6002   -983.73888     102002.7      46.7237      46.7237      46.7237 
  297000    92.980913   -7898.4258   -7366.8359   -1100.6631     102002.7      46.7237      46.7237      46.7237 
  298000    90.495827   -7907.2743   -7389.8922   -957.22065     102002.7      46.7237      46.7237      46.7237 
  299000    89.971002   -7883.2623   -7368.8806   -789.40897     102002.7      46.7237      46.7237      46.7237 
  300000    90.215851   -7905.0785    -7389.297    -752.5919     102002.7      46.7237      46.7237      46.7237 
  301000    90.342195   -7908.8349   -7392.3311   -1009.9688     102002.7      46.7237      46.7237      46.7237 
  302000     88.92796   -7895.9288   -7387.5104   -770.18621     102002.7      46.7237      46.7237      46.7237 
  303000    91.420378   -7897.6374   -7374.9694   -570.63938     102002.7      46.7237      46.7237      46.7237 
  304000    90.355819   -7894.3844   -7377.8026   -849.96109     102002.7      46.7237      46.7237      46.7237 
  305000    89.623428   -7895.6595    -7383.265   -560.81731     102002.7      46.7237      46.7237      46.7237 
  306000    93.258343   -7910.8034   -7377.6274   -734.71913     102002.7      46.7237      46.7237      46.7237 
  307000    89.163504   -7898.1754   -7388.4104   -1054.8821     102002.7      46.7237      46.7237      46.7237 
  308000    92.803388   -7894.6285   -7364.0536    -678.4596     102002.7      46.7237      46.7237      46.7237 
  309000     90.43434   -7889.3873   -7372.3567   -1046.3173     102002.7      46.7237      46.7237      46.7237 
  310000     90.22936   -7903.7659   -7387.9072   -784.51228     102002.7      46.7237      46.7237      46.7237 
  311000      92.1529   -7915.5239   -7388.6679   -631.10645     102002.7      46.7237      46.7237      46.7237 
  312000    89.131471   -7886.0808   -7376.4989   -682.24873     102002.7      46.7237      46.7237      46.7237 
  313000     93.77953   -7898.4124   -7362.2567   -590.71534     102002.7      46.7237      46.7237      46.7237 
  314000    91.427282   -7897.1191   -7374.4116   -982.07196     102002.7      46.7237      46.7237      46.7237 
  315000    88.919099   -7893.6475   -7385.2798   -445.17941     102002.7      46.7237      46.7237      46.7237 
  316000    91.132398   -7883.8585    -7362.837   -898.33441     102002.7      46.7237      46.7237      46.7237 
  317000    93.541701   -7883.6953   -7348.8993   -840.60308     102002.7      46.7237      46.7237      46.7237 
  318000    92.477022   -7911.0504   -7382.3413   -581.73251     102002.7      46.7237      46.7237      46.7237 
  319000    89.639338   -7889.8934    -7377.408   -803.84908     102002.7      46.7237      46.7237      46.7237 
  320000     89.98116   -7887.7461   -7373.3064   -814.37753     102002.7      46.7237      46.7237      46.7237 
  321000    90.744384   -7910.7181   -7391.9149   -924.03935     102002.7      46.7237      46.7237      46.7237 
  322000    92.450488    -7908.459   -7379.9016   -889.93754     102002.7      46.7237      46.7237      46.7237 
  323000    88.179751   -7892.1176   -7387.9769   -832.47007     102002.7      46.7237      46.7237      46.7237 
  324000    92.309518    -7906.268   -7378.5166   -1054.4591     102002.7      46.7237      46.7237      46.7237 
  325000    93.980866   -7892.8719   -7355.5651   -781.52572     102002.7      46.7237      46.7237      46.7237 
  326000    89.330619     -7902.76   -7392.0395   -1066.4233     102002.7      46.7237      46.7237      46.7237 
  327000    91.012838   -7895.7911   -7375.4531   -901.68015     102002.7      46.7237      46.7237      46.7237 
  328000    91.242578   -7896.0661   -7374.4146   -796.94295     102002.7      46.7237      46.7237      46.7237 
  329000    91.259902   -7924.1307   -7402.3801   -921.57131     102002.7      46.7237      46.7237      46.7237 
  330000    88.830143   -7895.8277   -7387.9686    -804.6757     102002.7      46.7237      46.7237      46.7237 
  331000    92.108661   -7897.0782   -7370.4752   -680.53068     102002.7      46.7237      46.7237      46.7237 
  332000    87.557345   -7886.3137   -7385.7314   -814.58321     102002.7      46.7237      46.7237      46.7237 
  333000    89.869806   -7910.6593   -7396.8562   -713.40536     102002.7      46.7237      46.7237      46.7237 
  334000    89.858782   -7884.3712   -7370.6312   -945.13717     102002.7      46.7237      46.7237      46.7237 
  335000    91.897418   -7887.4053   -7362.0099   -923.86655     102002.7      46.7237      46.7237      46.7237 
  336000     89.02198   -7893.3952   -7384.4393   -770.93944     102002.7      46.7237      46.7237      46.7237 
  337000    90.202456   -7897.5533   -7381.8484   -698.87649     102002.7      46.7237      46.7237      46.7237 
  338000    89.765865   -7894.6845   -7381.4757    -579.4509     102002.7      46.7237      46.7237      46.7237 
  339000    89.976104   -7902.5706   -7388.1597   -558.80927     102002.7      46.7237      46.7237      46.7237 
  340000    91.350964   -7897.6774   -7375.4063   -526.65285     102002.7      46.7237      46.7237      46.7237 
  341000    94.816776   -7895.3869   -7353.3011   -906.97627     102002.7      46.7237      46.7237      46.7237 
  342000    89.872745   -7900.5088   -7386.6889   -625.04783     102002.7      46.7237      46.7237      46.7237 
  343000    90.329606   -7892.2922   -7375.8604   -649.82654     102002.7      46.7237      46.7237      46.7237 
  344000    94.157243   -7884.2425   -7345.9273   -917.99845     102002.7      46.7237      46.7237      46.7237 
  345000    92.406534    -7894.693   -7366.3869   -358.43628     102002.7      46.7237      46.7237      46.7237 
  346000      91.8135   -7899.7768   -7374.8612   -822.83233     102002.7      46.7237      46.7237      46.7237 
  347000    90.844411   -7911.4006   -7392.0255   -921.22853     102002.7      46.7237      46.7237      46.7237 
  348000    91.725117    -7876.636   -7352.2258   -857.50347     102002.7      46.7237      46.7237      46.7237 
  349000     90.71572    -7910.442   -7391.8027   -904.66814     102002.7      46.7237      46.7237      46.7237 
  350000    93.292089   -7900.3527   -7366.9838   -566.93776     102002.7      46.7237      46.7237      46.7237 
  351000     91.99198   -7913.1705   -7387.2345   -843.51754     102002.7      46.7237      46.7237      46.7237 
  352000    90.994635   -7923.6162   -7403.3822    -851.1213     102002.7      46.7237      46.7237      46.7237 
  353000    89.219106   -7894.0173   -7383.9344   -600.75891     102002.7      46.7237      46.7237      46.7237 
  354000    90.220943   -7878.6515   -7362.8409   -1286.2296     102002.7      46.7237      46.7237      46.7237 
  355000    88.782422   -7915.1177   -7407.5314   -715.70844     102002.7      46.7237      46.7237      46.7237 
  356000    90.842064   -7899.5606   -7380.1989   -803.67699     102002.7      46.7237      46.7237      46.7237 
  357000    90.407031   -7898.7085    -7381.834   -775.86933     102002.7      46.7237      46.7237      46.7237 
  358000    88.899321   -7910.4934   -7402.2388   -541.55926     102002.7      46.7237      46.7237      46.7237 
  359000    93.961831   -7912.1022   -7374.9042   -647.15954     102002.7      46.7237      46.7237      46.7237 
  360000    88.085876   -7901.3562   -7397.7522   -692.72957     102002.7      46.7237      46.7237      46.7237 
  361000    89.897065   -7895.0512   -7381.0923    -714.0462     102002.7      46.7237      46.7237      46.7237 
  362000    91.728054   -7908.6129   -7384.1858   -453.97344     102002.7      46.7237      46.7237      46.7237 
  363000    90.316944   -7888.2191   -7371.8597   -750.25127     102002.7      46.7237      46.7237      46.7237 
  364000    92.289466   -7889.7262   -7362.0894   -595.47538     102002.7      46.7237      46.7237      46.7237 
  365000    90.085471   -7919.1171    -7404.081   -878.83225     102002.7      46.7237      46.7237      46.7237 
  366000    88.570986   -7893.6141   -7387.2366   -727.10743     102002.7      46.7237      46.7237      46.7237 
  367000    91.556038   -7882.0867   -7358.6431    -573.3919     102002.7      46.7237      46.7237      46.7237 
  368000    89.199163   -7883.7067   -7373.7378   -1216.2553     102002.7      46.7237      46.7237      46.7237 
  369000    89.349087   -7893.3746   -7382.5485   -681.74773     102002.7      46.7237      46.7237      46.7237 
  370000    89.705942   -7893.9449   -7381.0787   -785.92789     102002.7      46.7237      46.7237      46.7237 
  371000    92.023849   -7885.7892    -7359.671   -385.00269     102002.7      46.7237      46.7237      46.7237 
  372000    90.362617   -7913.3934   -7396.7728    -234.3112     102002.7      46.7237      46.7237      46.7237 
  373000    89.046901   -7897.9993    -7388.901   -990.60749     102002.7      46.7237      46.7237      46.7237 
  374000    90.883277   -7888.1246   -7368.5273   -553.41077     102002.7      46.7237      46.7237      46.7237 
  375000     93.33326   -7901.8622   -7368.2578   -737.30512     102002.7      46.7237      46.7237      46.7237 
  376000    94.340885   -7883.9503   -7344.5852   -859.39731     102002.7      46.7237      46.7237      46.7237 
  377000    92.867394   -7896.9817   -7366.0409   -705.02094     102002.7      46.7237      46.7237      46.7237 
  378000    87.879532    -7897.206   -7394.7817   -1071.4265     102002.7      46.7237      46.7237      46.7237 
  379000    90.668527   -7909.5575    -7391.188   -672.57241     102002.7      46.7237      46.7237      46.7237 
  380000    92.582256   -7903.4227    -7374.112   -874.47669     102002.7      46.7237      46.7237      46.7237 
  381000    88.379178   -7915.7145   -7410.4336   -854.76193     102002.7      46.7237      46.7237      46.7237 
  382000    88.816171   -7903.5994   -7395.8202   -856.82559     102002.7      46.7237      46.7237      46.7237 
  383000    89.257443   -7901.4315   -7391.1294   -866.90527     102002.7      46.7237      46.7237      46.7237 
  384000     91.93898   -7904.6753   -7379.0424   -455.84523     102002.7      46.7237      46.7237      46.7237 
  385000    92.245643   -7891.9767   -7364.5905   -627.11616     102002.7      46.7237      46.7237      46.7237 
  386000    90.850764   -7893.6738   -7374.2624    -771.1923     102002.7      46.7237      46.7237      46.7237 
  387000    89.793671   -7900.9959    -7387.628   -632.86336     102002.7      46.7237      46.7237      46.7237 
  388000    92.654032   -7895.1233   -7365.4022   -1185.8872     102002.7      46.7237      46.7237      46.7237 
  389000    88.271822    -7896.817   -7392.1499   -879.49869     102002.7      46.7237      46.7237      46.7237 
  390000    90.050462   -7901.4607   -7386.6248   -771.47118     102002.7      46.7237      46.7237      46.7237 
  391000    92.849115   -7903.3695   -7372.5332   -689.85473     102002.7      46.7237      46.7237      46.7237 
  392000    91.002866   -7898.0606   -7377.7796   -906.47823     102002.7      46.7237      46.7237      46.7237 
  393000    90.593072   -7881.4263   -7363.4882   -685.75367     102002.7      46.7237      46.7237      46.7237 
  394000    90.500148   -7883.9666   -7366.5597   -1059.5717     102002.7      46.7237      46.7237      46.7237 
  395000    92.688821   -7903.4125   -7373.4926   -809.92457     102002.7      46.7237      46.7237      46.7237 
  396000    92.385824   -7872.1727   -7343.9851   -912.97214     102002.7      46.7237      46.7237      46.7237 
  397000    93.027666   -7891.3427   -7359.4855   -789.55097     102002.7      46.7237      46.7237      46.7237 
  398000    90.941873   -7902.3821   -7382.4498    -761.6552     102002.7      46.7237      46.7237      46.7237 
  399000    90.877724   -7912.4478   -7392.8822   -720.32874     102002.7      46.7237      46.7237      46.7237 
  400000    93.503494   -7889.1536    -7354.576   -790.65907     102002.7      46.7237      46.7237      46.7237 
  401000    91.882297   -7909.4147   -7384.1058   -646.07785     102002.7      46.7237      46.7237      46.7237 
  402000     88.43999   -7880.0559   -7374.4273   -923.01101     102002.7      46.7237      46.7237      46.7237 
  403000    92.834398   -7897.8242   -7367.0719   -822.39103     102002.7      46.7237      46.7237      46.7237 
  404000    90.219277    -7908.821   -7393.0199   -760.86456     102002.7      46.7237      46.7237      46.7237 
  405000     93.57656   -7896.4721   -7361.4768   -533.91409     102002.7      46.7237      46.7237      46.7237 
  406000     86.95841   -7896.8115   -7399.6535   -616.77365     102002.7      46.7237      46.7237      46.7237 
  407000    91.702742   -7886.0359   -7361.7536   -692.44448     102002.7      46.7237      46.7237      46.7237 
  408000    92.868515   -7892.9343    -7361.987   -521.64612     102002.7      46.7237      46.7237      46.7237 
  409000    88.963862   -7900.9184   -7392.2948   -811.92634     102002.7      46.7237      46.7237      46.7237 
  410000    89.568179   -7889.1359   -7377.0573   -780.67025     102002.7      46.7237      46.7237      46.7237 
  411000    88.677173   -7868.2152   -7361.2306   -874.77829     102002.7      46.7237      46.7237      46.7237 
  412000    92.175492   -7895.9853   -7369.0001   -946.47242     102002.7      46.7237      46.7237      46.7237 
  413000    91.072867    -7906.093   -7385.4118   -854.72436     102002.7      46.7237      46.7237      46.7237 
  414000     87.81463   -7895.7886   -7393.7353   -841.56829     102002.7      46.7237      46.7237      46.7237 
  415000    90.482722   -7908.0192    -7390.712   -948.35869     102002.7      46.7237      46.7237      46.7237 
  416000    90.055741   -7881.9833   -7367.1171   -519.95269     102002.7      46.7237      46.7237      46.7237 
  417000    90.588616   -7881.7412   -7363.8285   -802.31416     102002.7      46.7237      46.7237      46.7237 
  418000    91.689924   -7888.7379   -7364.5289     -810.679     102002.7      46.7237      46.7237      46.7237 
  419000    92.425662   -7914.9561   -7386.5407    -788.6548     102002.7      46.7237      46.7237      46.7237 
  420000    88.666502   -7894.2896    -7387.366    -776.8781     102002.7      46.7237      46.7237      46.7237 
  421000    88.355165   -7889.0691   -7383.9255   -777.25615     102002.7      46.7237      46.7237      46.7237 
  422000    93.579492   -7898.7196   -7363.7075   -977.63954     102002.7      46.7237      46.7237      46.7237 
  423000    93.546024   -7886.8557   -7352.0349   -694.75165     102002.7      46.7237      46.7237      46.7237 
  424000    89.667254   -7900.5876   -7387.9426   -779.49359     102002.7      46.7237      46.7237      46.7237 
  425000    90.571272   -7898.1702   -7380.3567    -967.9994     102002.7      46.7237      46.7237      46.7237 
  426000    93.610295   -7901.3782     -7366.19   -923.21435     102002.7      46.7237      46.7237      46.7237 
  427000     89.75888   -7908.7531   -7395.5842   -788.45301     102002.7      46.7237      46.7237      46.7237 
  428000    90.930388   -7917.2419   -7397.3753   -710.64115     102002.7      46.7237      46.7237      46.7237 
  429000    89.998438   -7877.7022   -7363.1637   -726.02742     102002.7      46.7237      46.7237      46.7237 
  430000    88.144276   -7879.8076   -7375.8697   -773.65533     102002.7      46.7237      46.7237      46.7237 
  431000    94.929247   -7890.4105   -7347.6816   -513.36637     102002.7      46.7237      46.7237      46.7237 
  432000    90.500556   -7892.4499   -7375.0407   -876.96628     102002.7      46.7237      46.7237      46.7237 
  433000    90.339499   -7899.4514    -7382.963    -853.0088     102002.7      46.7237      46.7237      46.7237 
  434000    90.603862   -7891.7264   -7373.7265   -792.20481     102002.7      46.7237      46.7237      46.7237 
  435000    92.411203   -7881.1248   -7352.7921   -753.18495     102002.7      46.7237      46.7237      46.7237 
  436000     89.21824   -7879.3235   -7369.2455    -991.2412     102002.7      46.7237      46.7237      46.7237 
  437000    88.927524   -7903.3573   -7394.9414   -702.86393     102002.7      46.7237      46.7237      46.7237 
  438000    91.550028   -7905.4284   -7382.0191   -585.93358     102002.7      46.7237      46.7237      46.7237 
  439000    93.342541   -7897.9429   -7364.2855   -795.13612     102002.7      46.7237      46.7237      46.7237 
  440000    91.287211   -7882.5665   -7360.6599   -363.95306     102002.7      46.7237      46.7237      46.7237 
  441000    88.883993   -7900.3665   -7392.1995   -555.22963     102002.7      46.7237      46.7237      46.7237 
  442000    90.506954   -7899.5756   -7382.1298   -873.33421     102002.7      46.7237      46.7237      46.7237 
  443000     90.90009   -7885.6106   -7365.9172   -768.54739     102002.7      46.7237      46.7237      46.7237 
  444000    90.000731   -7896.8775   -7382.3259   -977.82062     102002.7      46.7237      46.7237      46.7237 
  445000    92.540329   -7901.5556   -7372.4846   -349.04247     102002.7      46.7237      46.7237      46.7237 
  446000    92.691469   -7884.9289   -7354.9938   -762.23315     102002.7      46.7237      46.7237      46.7237 
  447000    87.949633   -7873.9362   -7371.1111    -895.7881     102002.7      46.7237      46.7237      46.7237 
  448000    94.826384   -7888.9393   -7346.7985   -525.60461     102002.7      46.7237      46.7237      46.7237 
  449000    88.824301    -7891.491   -7383.6653    -759.8439     102002.7      46.7237      46.7237      46.7237 
  450000    94.598003   -7898.5398   -7357.7047   -661.92078     102002.7      46.7237      46.7237      46.7237 
  451000    91.583538   -7891.2516   -7367.6508   -704.18964     102002.7      46.7237      46.7237      46.7237 
  452000    91.303187   -7898.6053   -7376.6073   -765.85329     102002.7      46.7237      46.7237      46.7237 
  453000    88.460595   -7909.3415   -7403.5951   -735.27544     102002.7      46.7237      46.7237      46.7237 
  454000    93.104824    -7896.922   -7364.6237   -859.70844     102002.7      46.7237      46.7237      46.7237 
  455000    90.979504   -7895.8134    -7375.666   -737.59289     102002.7      46.7237      46.7237      46.7237 
  456000    90.685057   -7904.0162   -7385.5522   -617.60735     102002.7      46.7237      46.7237      46.7237 
  457000    95.041978   -7912.8857   -7369.5123   -757.12546     102002.7      46.7237      46.7237      46.7237 
  458000    89.687149   -7891.4983   -7378.7395   -737.18175     102002.7      46.7237      46.7237      46.7237 
  459000    90.407299   -7885.0401    -7368.164   -707.68916     102002.7      46.7237      46.7237      46.7237 
  460000    93.458051   -7894.3166   -7359.9988   -849.80793     102002.7      46.7237      46.7237      46.7237 
  461000    91.674664   -7876.7108    -7352.589   -624.53322     102002.7      46.7237      46.7237      46.7237 
  462000    89.742237   -7879.2892   -7366.2154   -715.21833     102002.7      46.7237      46.7237      46.7237 
  463000    91.471154   -7904.9074   -7381.9491   -853.02982     102002.7      46.7237      46.7237      46.7237 
  464000    89.410905   -7897.9335    -7386.754   -642.54616     102002.7      46.7237      46.7237      46.7237 
  465000    93.146443   -7900.5291   -7367.9928   -892.15945     102002.7      46.7237      46.7237      46.7237 
  466000    90.333743   -7892.0427   -7375.5872   -706.14828     102002.7      46.7237      46.7237      46.7237 
  467000    89.877119   -7896.6912   -7382.8463   -743.75408     102002.7      46.7237      46.7237      46.7237 
  468000    91.650334   -7909.8408   -7385.8581     -638.098     102002.7      46.7237      46.7237      46.7237 
  469000    89.552504   -7891.6969   -7379.7078   -496.29637     102002.7      46.7237      46.7237      46.7237 
  470000    87.694384   -7893.9608   -7392.5951   -635.02326     102002.7      46.7237      46.7237      46.7237 
  471000    92.282821   -7905.8836   -7378.2848   -476.24233     102002.7      46.7237      46.7237      46.7237 
  472000     92.44373   -7896.4553   -7367.9366   -639.19841     102002.7      46.7237      46.7237      46.7237 
  473000    92.529443   -7895.7204   -7366.7116   -756.27441     102002.7      46.7237      46.7237      46.7237 
  474000    93.954418   -7899.9549   -7362.7993   -760.71086     102002.7      46.7237      46.7237      46.7237 
  475000    87.779593   -7905.2542   -7403.4012   -700.04971     102002.7      46.7237      46.7237      46.7237 
  476000     91.17539   -7890.3716   -7369.1042   -395.61486     102002.7      46.7237      46.7237      46.7237 
  477000    89.273648   -7899.4099   -7389.0152   -641.26044     102002.7      46.7237      46.7237      46.7237 
  478000    92.868454   -7877.9509    -7347.004   -613.77701     102002.7      46.7237      46.7237      46.7237 
  479000    91.762971   -7896.7472   -7372.1206   -623.00853     102002.7      46.7237      46.7237      46.7237 
  480000    93.408807   -7920.5455   -7386.5092   -726.95449     102002.7      46.7237      46.7237      46.7237 
  481000    90.584266   -7891.6485   -7373.7607   -347.14043     102002.7      46.7237      46.7237      46.7237 
  482000    90.693741   -7885.4668   -7366.9532   -617.11765     102002.7      46.7237      46.7237      46.7237 
  483000    89.450757   -7898.8543    -7387.447   -586.47402     102002.7      46.7237      46.7237      46.7237 
  484000    92.139523   -7896.2709   -7369.4914   -477.40686     102002.7      46.7237      46.7237      46.7237 
  485000    90.734539    -7905.859    -7387.112   -526.72252     102002.7      46.7237      46.7237      46.7237 
  486000    91.871984   -7898.6161   -7373.3662   -734.84842     102002.7      46.7237      46.7237      46.7237 
  487000    89.310629     -7905.18   -7394.5739   -751.40722     102002.7      46.7237      46.7237      46.7237 
  488000     92.40359   -7889.0493     -7360.76   -756.56552     102002.7      46.7237      46.7237      46.7237 
  489000     90.34254   -7890.6337   -7374.1279   -659.09147     102002.7      46.7237      46.7237      46.7237 
  490000    90.194536   -7882.4973   -7366.8377   -1070.9222     102002.7      46.7237      46.7237      46.7237 
  491000    93.821731   -7897.9645   -7361.5675   -741.89474     102002.7      46.7237      46.7237      46.7237 
  492000    90.300965   -7898.4587   -7382.1906   -791.76918     102002.7      46.7237      46.7237      46.7237 
  493000    92.735514   -7899.7114   -7369.5245   -749.94428     102002.7      46.7237      46.7237      46.7237 
  494000    92.583015   -7889.6524   -7360.3373   -607.66909     102002.7      46.7237      46.7237      46.7237 
  495000    90.929686   -7905.5459   -7385.6832   -818.00459     102002.7      46.7237      46.7237      46.7237 
  496000    89.785853   -7882.9997   -7369.6766   -795.33027     102002.7      46.7237      46.7237      46.7237 
  497000    89.299747   -7902.2582   -7391.7143   -1154.0491     102002.7      46.7237      46.7237      46.7237 
  498000    89.300308   -7901.8061   -7391.2589   -693.01427     102002.7      46.7237      46.7237      46.7237 
  499000    92.424375   -7901.0099   -7372.6018   -591.90975     102002.7      46.7237      46.7237      46.7237 
  500000    89.346358   -7872.5803   -7361.7699   -648.06824     102002.7      46.7237      46.7237      46.7237 
  500501    91.881075   -7877.5833   -7352.2814   -796.66526     102002.7      46.7237      46.7237      46.7237 
Loop time of 1365.39 on 16 procs for 500000 steps with 1919 atoms

Performance: 31.639 ns/day, 0.759 hours/ns, 366.195 timesteps/s
99.8% CPU use with 16 MPI tasks x no OpenMP threads

MPI task timing breakdown:
Section |  min time  |  avg time  |  max time  |%varavg| %total
---------------------------------------------------------------
Pair    | 514.56     | 737.78     | 959.98     | 558.5 | 54.03
Bond    | 162.01     | 174.2      | 186.02     |  59.7 | 12.76
Neigh   | 5.5376     | 5.5806     | 5.6162     |   1.0 |  0.41
Comm    | 202.88     | 433.34     | 665.37     | 761.9 | 31.74
Output  | 0.020503   | 0.021067   | 0.024662   |   0.6 |  0.00
Modify  | 7.8375     | 8.5552     | 9.3578     |  16.7 |  0.63
Other   |            | 5.922      |            |       |  0.43

Nlocal:    119.938 ave 140 max 94 min
Histogram: 2 0 0 3 1 2 2 1 4 1
Nghost:    2397.38 ave 2419 max 2380 min
Histogram: 2 2 1 3 1 2 1 2 1 1
Neighs:    11451.9 ave 14931 max 6706 min
Histogram: 2 1 1 2 2 0 0 1 2 5

Total # of neighbors = 183231
Ave neighs/atom = 95.4825
Ave special neighs/atom = 6.00313
Neighbor list builds = 3823
Dangerous builds = 0
Neighbor list info ...
  update every 1 steps, delay 10 steps, check yes
  max neighbors/atom: 2000, page size: 100000
  master list distance cutoff = 16
  ghost atom cutoff = 16
  binsize = 8, bins = 6 6 6
  3 neighbor lists, perpetual/occasional/extra = 3 0 0
  (1) pair buck6d/coul/gauss/dsf, perpetual, skip from (3)
      attributes: half, newton on
      pair build: skip
      stencil: none
      bin: none
  (2) pair lj/cut, perpetual, skip from (3)
      attributes: half, newton on
      pair build: skip
      stencil: none
      bin: none
  (3) neighbor class addition, perpetual
      attributes: half, newton on
      pair build: half/bin/newton
      stencil: half/bin/3d/newton
      bin: standard
Setting up Verlet run ...
  Unit style    : real
  Current step  : 500501
  Time step     : 1
WARNING: Inconsistent image flags (../domain.cpp:786)
Per MPI rank memory allocation (min/avg/max) = 23.16 | 23.32 | 23.35 Mbytes
Step Time TotEng KinEng PotEng E_mol E_pair Temp Pxx Pyy Pzz Pxy Pxz Pyz Cella Cellb Cellc CellAlpha CellBeta CellGamma Volume Press 
  500501       500000   -7352.2814     525.3019   -7877.5833    4211.5978   -12089.181    91.881075   -835.07612   -1051.7468   -503.17283   -46.082652    57.196015   -136.29434      46.7237      46.7237      46.7237           90           90           90     102002.7   -796.66526 
  501000       500499    -7374.821    519.38072   -7894.2017    4195.5574   -12089.759    90.845395   -710.29585   -938.68375   -592.08792   -8.0739171    24.020502    -229.9994      46.7237      46.7237      46.7237           90           90           90     102002.7    -747.0225 
  502000       501499    -7368.215    510.06871   -7878.2837    4218.5401   -12096.824    89.216622   -585.09596   -1200.8007   -570.74389    169.26799   -166.10315    83.723223      46.7237      46.7237      46.7237           90           90           90     102002.7   -785.54686 
  503000       502499   -7378.6403    533.79728   -7912.4376    4173.6504   -12086.088     93.36701   -706.09514   -1479.4812   -186.06129     59.96567   -88.801145     33.82901      46.7237      46.7237      46.7237           90           90           90     102002.7   -790.54588 
  504000       503499   -7402.5322      518.033   -7920.5652    4177.8124   -12098.378    90.609664   -920.79487   -486.27431   -737.25908   -199.64387    194.07454    27.896892      46.7237      46.7237      46.7237           90           90           90     102002.7   -714.77609 
  505000       504499   -7361.2122    530.39083    -7891.603    4196.7051   -12088.308    92.771185   -1111.3324   -990.30601   -952.16894   -10.792812   -10.051533   -231.95201      46.7237      46.7237      46.7237           90           90           90     102002.7   -1017.9358 
  506000       505499   -7378.7756    522.85743    -7901.633    4198.2781   -12099.911     91.45351   -343.20819   -1195.2052   -852.89041   -261.86632   -171.81158    120.01232      46.7237      46.7237      46.7237           90           90           90     102002.7   -797.10127 
  507000       506499   -7407.3366    502.66777   -7910.0044    4199.9966   -12110.001    87.922117   -768.38905   -1230.0931   -455.62137   -68.192724   -150.61099    78.346622      46.7237      46.7237      46.7237           90           90           90     102002.7    -818.0345 
  508000       507499   -7368.5092    537.11637   -7905.6256    4172.3781   -12078.004    93.947555   -1001.2303   -611.32495   -829.51104   -16.655426    69.019859   -123.93362      46.7237      46.7237      46.7237           90           90           90     102002.7    -814.0221 
  509000       508499   -7404.6484    515.75032   -7920.3987    4160.4827   -12080.881    90.210399   -796.18705   -722.21525   -586.47185    -6.040457     127.3733   -77.754511      46.7237      46.7237      46.7237           90           90           90     102002.7   -701.62472 
  510000       509499   -7388.7437    525.42905   -7914.1727    4185.6578   -12099.831    91.903315   -610.25736   -1003.4385   -758.06878    -221.1078   -118.24611    13.653311      46.7237      46.7237      46.7237           90           90           90     102002.7   -790.58822 
  511000       510499   -7362.3757    527.03505   -7889.4108    4191.1068   -12080.518    92.184221   -873.90615   -608.78436   -707.73562    111.05401   -71.865201    251.09266      46.7237      46.7237      46.7237           90           90           90     102002.7   -730.14204 
  512000       511499   -7401.4478    514.92364   -7916.3715    4173.6606   -12090.032    90.065804   -837.99616   -664.51925   -453.83328    121.06623   -92.846369   -12.410263      46.7237      46.7237      46.7237           90           90           90     102002.7   -652.11623 
  513000       512499   -7358.7706    525.97781   -7884.7484    4197.9696   -12082.718    91.999298   -856.01957   -733.86823   -535.45865   -197.64144    -1.954714   -148.08654      46.7237      46.7237      46.7237           90           90           90     102002.7   -708.44881 
  514000       513499     -7396.64    508.87768   -7905.5177    4182.6902   -12088.208    89.008299     -488.062   -424.15803   -704.28654   -38.329334   -125.66316   -136.81375      46.7237      46.7237      46.7237           90           90           90     102002.7   -538.83552 
  515000       514499   -7386.3348    508.14999   -7894.4848    4184.8743   -12079.359    88.881018   -419.31066   -717.49517   -656.65211   -116.16026    19.276848   -118.16118      46.7237      46.7237      46.7237           90           90           90     102002.7   -597.81931 
  516000       515499   -7399.7019    524.12397   -7923.8259    4164.9455   -12088.771    91.675042    -886.8902   -660.04112   -637.30561    42.987742    102.51838   -136.40145      46.7237      46.7237      46.7237           90           90           90     102002.7   -728.07898 
  517000       516499   -7378.0164    524.47934   -7902.4957    4197.8776   -12100.373      91.7372   -343.16038   -843.72513   -619.72212   -157.74698    119.25042    182.89995      46.7237      46.7237      46.7237           90           90           90     102002.7   -602.20254 
  518000       517499    -7387.132    510.79722   -7897.9293    4196.8736   -12094.803    89.344047   -318.94063   -647.69135   -611.43101   -33.814788     108.5672    222.44082      46.7237      46.7237      46.7237           90           90           90     102002.7   -526.02099 
  519000       518499     -7387.57    528.71855   -7916.2885     4175.853   -12092.142    92.478685   -385.85423   -516.86211   -497.37057    158.16638   -52.474826   -30.666389      46.7237      46.7237      46.7237           90           90           90     102002.7   -466.69564 
  520000       519499   -7374.5205    525.46139   -7899.9819    4188.7111   -12088.693    91.908972   -710.92098   -878.57694   -723.15493    139.66005    253.57179    18.876706      46.7237      46.7237      46.7237           90           90           90     102002.7   -770.88428 
  521000       520499   -7343.2145    535.83545     -7879.05     4200.383   -12079.433    93.723509   -880.68743   -780.15249   -577.89754   -8.2726178   -34.817844   -152.24183      46.7237      46.7237      46.7237           90           90           90     102002.7   -746.24582 
  522000       521499   -7375.1122    518.63005   -7893.7422     4189.969   -12083.711    90.714095   -814.39526    -959.5892   -946.31713    39.402974   -28.982659    23.090065      46.7237      46.7237      46.7237           90           90           90     102002.7    -906.7672 
  523000       522499    -7384.062    515.57657   -7899.6386    4208.4623   -12108.101    90.180008   -547.60125   -618.78589   -623.12679   -59.860525    140.70917    103.37797      46.7237      46.7237      46.7237           90           90           90     102002.7   -596.50465 
  524000       523499   -7398.3022    507.55839   -7905.8606    4175.0968   -12080.957     88.77754    -890.1625   -912.53665   -535.32244    204.93429   -149.16834    93.586681      46.7237      46.7237      46.7237           90           90           90     102002.7   -779.34053 
  525000       524499   -7374.3435    532.06702   -7906.4105    4196.1841   -12102.595    93.064369   -599.00082   -799.49051   -564.38302   -248.45729    18.279356    29.624287      46.7237      46.7237      46.7237           90           90           90     102002.7   -654.29145 
  526000       525499   -7366.6451    523.10161   -7889.7467    4192.0419   -12081.789    91.496219   -43.476357   -961.14371    -609.3293   -191.43217   -83.936709    211.37359      46.7237      46.7237      46.7237           90           90           90     102002.7   -537.98312 
  527000       526499   -7381.6365    509.48604   -7891.1225    4196.4386   -12087.561    89.114708   -809.34436   -664.21613   -1143.7269    126.15699    -13.53087   -21.562485      46.7237      46.7237      46.7237           90           90           90     102002.7   -872.42914 
  528000       527499   -7359.1062    536.87912   -7895.9853    4200.9637   -12096.949    93.906058   -658.31034   -1043.8375   -774.75506    59.347101   -54.960307    -14.08819      46.7237      46.7237      46.7237           90           90           90     102002.7    -825.6343 
  529000       528499   -7382.3791    519.01021   -7901.3893    4207.0177   -12108.407    90.780589   -738.38202   -1176.9391   -882.99143    166.16361   -15.630179    66.078997      46.7237      46.7237      46.7237           90           90           90     102002.7   -932.77086 
  530000       529499   -7378.0765    522.19858   -7900.2751    4187.1128   -12087.388    91.338271   -1099.7195   -158.37785   -759.52098   -111.29669   -60.441295   -75.508273      46.7237      46.7237      46.7237           90           90           90     102002.7   -672.53944 
  531000       530499    -7349.876     533.1731   -7883.0491    4194.4066   -12077.456    93.257834   -958.72514    -494.6282   -952.31548   -11.781172    112.42063   -40.803621      46.7237      46.7237      46.7237           90           90           90     102002.7   -801.88961 
  532000       531499   -7376.3367    522.93599   -7899.2727    4194.4098   -12093.683    91.467251   -765.47735   -946.21522   -1094.7254    162.51854    -25.53208    89.185059      46.7237      46.7237      46.7237           90           90           90     102002.7   -935.47265 
  533000       532499   -7397.9704    516.26375   -7914.2342    4169.3384   -12083.573    90.300202     -542.522   -1255.5005   -560.81207    215.92831   -124.30833   -51.107272      46.7237      46.7237      46.7237           90           90           90     102002.7   -786.27818 
  534000       533499   -7346.4877    538.61037   -7885.0981    4187.3029   -12072.401    94.208873   -692.59297   -674.30171   -700.35378   -25.166437   -227.59833   -161.88099      46.7237      46.7237      46.7237           90           90           90     102002.7   -689.08282 
  535000       534499   -7376.9877    518.43669   -7895.4244    4194.8925   -12090.317    90.680274   -556.70627   -1035.7794    -598.0234    -121.8091    43.309904    116.92749      46.7237      46.7237      46.7237           90           90           90     102002.7    -730.1697 
  536000       535499   -7364.3919    510.93486   -7875.3267    4202.5615   -12077.888    89.368122   -426.54235   -739.22173   -732.23796     2.773272   -33.883176    144.84673      46.7237      46.7237      46.7237           90           90           90     102002.7   -632.66734 
  537000       536499   -7375.7723    523.47275    -7899.245    4194.0795   -12093.325    91.561136   -724.77054   -927.41647   -1009.4798     46.86161    75.977793    206.10998      46.7237      46.7237      46.7237           90           90           90     102002.7   -887.22225 
  538000       537499   -7387.9709    518.27708    -7906.248    4179.0543   -12085.302    90.652357   -150.05085   -694.83724   -361.89012   -21.067254    6.5342089    211.71778      46.7237      46.7237      46.7237           90           90           90     102002.7    -402.2594 
  539000       538499   -7371.8191    537.01301   -7908.8321    4192.5891   -12101.421    93.929476   -666.23373   -929.34568    -1152.051    71.712579   -81.032751   -40.120514      46.7237      46.7237      46.7237           90           90           90     102002.7   -915.87679 
  540000       539499   -7377.1178    520.76332   -7897.8811    4176.0534   -12073.935    91.087226    -754.6392    -591.0563    -752.7231   -6.2272322   -48.861772   -25.056382      46.7237      46.7237      46.7237           90           90           90     102002.7   -699.47287 
  541000       540499   -7405.4196    502.46212   -7907.8817    4190.1775   -12098.059    87.886146   -388.05702   -863.33371   -1020.8843    214.68902   -18.658526   -70.879006      46.7237      46.7237      46.7237           90           90           90     102002.7   -757.42502 
  542000       541499   -7389.1485    524.78326   -7913.9317    4165.6567   -12079.588     91.79036   -1094.7287   -1092.2585   -808.11984    152.03826   -65.981628   -14.687169      46.7237      46.7237      46.7237           90           90           90     102002.7   -998.36901 
  543000       542499   -7365.2673    519.85887   -7885.1261    4218.8112   -12103.937    90.929029   -922.73456   -346.37937   -725.60556   -139.07291   -30.564188    14.774373      46.7237      46.7237      46.7237           90           90           90     102002.7    -664.9065 
  544000       543499    -7387.852    499.78181   -7887.6338    4202.6444   -12090.278    87.417331   -773.60274   -613.50952   -945.91266   -217.78347   -14.836413     33.20347      46.7237      46.7237      46.7237           90           90           90     102002.7   -777.67497 
  545000       544499   -7375.4803    529.39747   -7904.8777    4180.1299   -12085.008    92.597436   -557.99066   -895.36332   -1108.6353    26.872821    218.44887    42.594055      46.7237      46.7237      46.7237           90           90           90     102002.7   -853.99642 
  546000       545499   -7381.7941     515.7969    -7897.591    4196.5323   -12094.123    90.218546   -709.60028   -662.42343   -784.56421    -111.6861   -48.197658    129.38786      46.7237      46.7237      46.7237           90           90           90     102002.7   -718.86264 
  547000       546499   -7388.2736    518.79407   -7907.0677    4165.9381   -12073.006    90.742783   -1132.7649   -607.20356   -903.77678    182.00271    238.68247   -61.012547      46.7237      46.7237      46.7237           90           90           90     102002.7    -881.2484 
  548000       547499    -7399.005    502.56231   -7901.5673    4198.7157   -12100.283    87.903671   -965.52795   -876.57643   -1022.6461   -109.90467     95.50646     26.91021      46.7237      46.7237      46.7237           90           90           90     102002.7   -954.91684 
  549000       548499   -7355.7544    520.60031   -7876.3547    4201.3504   -12077.705    91.058715   -452.84463   -990.34545   -573.52956    82.433655   -319.11392    125.10952      46.7237      46.7237      46.7237           90           90           90     102002.7   -672.23988 
  550000       549499   -7401.3297    514.73631    -7916.066    4185.6155   -12101.682    90.033037   -1144.4246   -628.02643   -1275.9074    48.960168   -8.1371177   -142.43556      46.7237      46.7237      46.7237           90           90           90     102002.7   -1016.1195 
  551000       550499   -7374.1296    528.38473   -7902.5143    4187.2436   -12089.758    92.420296   -970.90222   -836.46248   -642.58279   -91.381781    4.5419551   -164.93948      46.7237      46.7237      46.7237           90           90           90     102002.7   -816.64916 
  552000       551499   -7344.1579    525.79909    -7869.957    4206.8283   -12076.785     91.96804   -1067.7108   -852.88673   -1039.5179    81.490963    197.77669    74.298723      46.7237      46.7237      46.7237           90           90           90     102002.7   -986.70515 
  553000       552499   -7380.9679    520.89173   -7901.8596    4190.8074   -12092.667    91.109688      -773.97    -791.6295   -826.63686   -35.764207    -92.32429   -284.02155      46.7237      46.7237      46.7237           90           90           90     102002.7   -797.41212 
  554000       553499    -7388.024    511.05052   -7899.0745    4195.1053    -12094.18    89.388352   -705.06281   -816.95418   -1272.4565   -60.338775   -25.404822    46.366604      46.7237      46.7237      46.7237           90           90           90     102002.7   -931.49117 
  555000       554499   -7378.2619    538.56173   -7916.8237     4169.864   -12086.688    94.200365   -660.74694   -577.76022   -728.25078    14.572858    59.917313   -69.002036      46.7237      46.7237      46.7237           90           90           90     102002.7   -655.58598 
[...]
  936000       935499   -7389.7714    512.57621   -7902.3476    4192.5013   -12094.849    89.655212   -885.66611   -533.40665   -873.87116   -55.842635   -5.4674592   -8.2618451      46.7237      46.7237      46.7237           90           90           90     102002.7   -764.31464 
  937000       936499   -7372.0941    523.16359   -7895.2577    4193.1519    -12088.41     91.50706   -933.47778   -114.87069   -879.16634    77.063182    33.027631    161.61124      46.7237      46.7237      46.7237           90           90           90     102002.7   -642.50493 
  938000       937499   -7372.8297    528.37272   -7901.2024    4182.9822   -12084.185    92.418194   -687.14029   -540.60982   -1226.8555   -112.14634    62.095557    83.545989      46.7237      46.7237      46.7237           90           90           90     102002.7   -818.20187 
  939000       938499   -7393.9851    519.06852   -7913.0536    4172.6457   -12085.699    90.790787   -745.05424   -619.59732   -767.48677   -112.77346     91.95661   -41.400958      46.7237      46.7237      46.7237           90           90           90     102002.7   -710.71277 
  940000       939499   -7357.9458    537.09827   -7895.0441    4202.4067   -12097.451     93.94439   -854.62054   -568.76814    -630.2864   -41.697211   -83.064945   -65.926863      46.7237      46.7237      46.7237           90           90           90     102002.7   -684.55836 
  941000       940499   -7384.5319     514.0498   -7898.5817    4199.1506   -12097.732    89.912958   -482.20098   -400.62503   -959.50623    -131.8639   -87.473108    -12.62935      46.7237      46.7237      46.7237           90           90           90     102002.7   -614.11075 
  942000       941499   -7368.6664    523.33868   -7892.0051    4197.3457   -12089.351    91.537687   -946.26209   -618.60335   -910.10913   -16.469767    69.476544   -138.20714      46.7237      46.7237      46.7237           90           90           90     102002.7   -824.99152 
  943000       942499   -7373.1638    534.79668   -7907.9605    4188.0116   -12095.972    93.541816   -744.69987   -475.63331   -1220.6818    13.047769    228.66414   -41.345784      46.7237      46.7237      46.7237           90           90           90     102002.7   -813.67167 
  944000       943499   -7379.9525    512.81128   -7892.7638    4196.8459    -12089.61    89.696329   -920.33178   -933.09955   -832.16436    13.239783    32.989233    4.3296468      46.7237      46.7237      46.7237           90           90           90     102002.7   -895.19856 
  945000       944499   -7370.8008    526.43601   -7897.2368     4201.606   -12098.843    92.079442   -1206.3162   -804.83844   -774.55519     34.73589   -30.892598   -205.51049      46.7237      46.7237      46.7237           90           90           90     102002.7   -928.56994 
  946000       945499    -7379.006    524.65101   -7903.6571    4175.9364   -12079.593    91.767227   -688.14947   -609.95477   -405.72017      65.9531   -99.732825    26.061176      46.7237      46.7237      46.7237           90           90           90     102002.7   -567.94147 
  947000       946499   -7365.2792    511.84509   -7877.1243    4200.8497   -12077.974    89.527332   -852.53666   -491.80793   -1179.1251    28.981262    162.91493   -36.519203      46.7237      46.7237      46.7237           90           90           90     102002.7   -841.15656 
  948000       947499   -7391.9983    506.15269    -7898.151    4191.5845   -12089.735    88.531668   -930.06584   -1291.6047   -455.20708    47.650167     288.0125    265.55863      46.7237      46.7237      46.7237           90           90           90     102002.7   -892.29255 
  949000       948499   -7376.1399    516.10815    -7892.248    4195.5397   -12087.788    90.272988   -552.28841   -633.57589   -845.86064   -78.588475      28.6337   -59.903148      46.7237      46.7237      46.7237           90           90           90     102002.7   -677.24165 
  950000       949499   -7376.8381    512.85455   -7889.6926     4193.527    -12083.22    89.703896   -743.07804   -917.12151   -884.62502   -216.34278    127.24648   -123.75822      46.7237      46.7237      46.7237           90           90           90     102002.7   -848.27486 
  951000       950499   -7354.8014     533.2604   -7888.0618    4201.5409   -12089.603    93.273105   -427.77823   -344.64379   -913.37357   -67.242025   -65.226575   -9.7892563      46.7237      46.7237      46.7237           90           90           90     102002.7   -561.93187 
  952000       951499   -7385.1659    516.97129   -7902.1372    4187.4013   -12089.538     90.42396   -634.00199   -743.32418   -857.14701    57.344177    16.712612   -30.311784      46.7237      46.7237      46.7237           90           90           90     102002.7    -744.8244 
  953000       952499   -7361.2652    529.43684   -7890.7021    4187.5728   -12078.275    92.604321   -381.77398    -740.5272   -913.71715     115.1919    190.19412    56.737683      46.7237      46.7237      46.7237           90           90           90     102002.7   -678.67278 
  954000       953499   -7366.3774    519.50035   -7885.8777     4215.864   -12101.742     90.86632   -1052.5575   -772.34716   -431.53121   -248.95716    138.68297    106.47063      46.7237      46.7237      46.7237           90           90           90     102002.7   -752.14528 
  955000       954499   -7380.5302    525.84604   -7906.3762    4172.9941    -12079.37    91.976251   -598.68212   -972.98239   -1075.8712   -45.059656    63.890166   -221.68018      46.7237      46.7237      46.7237           90           90           90     102002.7   -882.51191 
  956000       955499   -7373.1332    521.02479    -7894.158    4199.7068   -12093.865    91.132961   -279.43203   -699.62618   -1113.3375    137.13499   -299.95231    204.84696      46.7237      46.7237      46.7237           90           90           90     102002.7   -697.46525 
  957000       956499   -7385.7939    502.22436   -7888.0182    4198.2918    -12086.31    87.844559   -858.42418   -766.15165   -559.70313   -94.303339    -55.53855    229.43278      46.7237      46.7237      46.7237           90           90           90     102002.7   -728.09299 
  958000       957499   -7401.5475    514.19362   -7915.7411    4164.9254   -12080.667    89.938114   -980.91285   -829.35219   -839.03333    3.3343637    206.02813    7.7972656      46.7237      46.7237      46.7237           90           90           90     102002.7   -883.09946 
  959000       958499   -7391.5904    516.76382   -7908.3542    4176.6898   -12085.044     90.38767   -470.57541   -992.34215   -1172.8584   -64.647188   -217.73693   -56.049464      46.7237      46.7237      46.7237           90           90           90     102002.7   -878.59198 
  960000       959499   -7373.4862    529.42313   -7902.9093    4187.0251   -12089.934    92.601923   -751.05503   -1132.9987    -1125.931     219.9954   -82.166066    13.528551      46.7237      46.7237      46.7237           90           90           90     102002.7   -1003.3282 
  961000       960499   -7381.2721    521.08381   -7902.3559    4182.3814   -12084.737    91.143285   -472.31833   -624.34267    -576.9667   -47.633596    76.151434    103.22789      46.7237      46.7237      46.7237           90           90           90     102002.7    -557.8759 
  962000       961499   -7371.9723    517.92176    -7889.894    4197.9064     -12087.8    90.590207   -919.79724   -696.18175   -996.11691   -173.81868    58.765405    39.652457      46.7237      46.7237      46.7237           90           90           90     102002.7   -870.69863 
  963000       962499   -7387.8945    505.15177   -7893.0463    4180.4055   -12073.452    88.356595   -267.79886   -725.39958   -797.06458    -131.5383   -67.250658   -116.11373      46.7237      46.7237      46.7237           90           90           90     102002.7   -596.75434 
  964000       963499   -7349.6336    529.66266   -7879.2963    4216.9425   -12096.239     92.64382   -1080.5091   -737.05547   -1078.3404     18.67564   -254.90372    6.1453246      46.7237      46.7237      46.7237           90           90           90     102002.7   -965.30166 
  965000       964499    -7384.415    498.31711   -7882.7321    4208.2437   -12090.976    87.161139   -1050.3839   -1092.7914   -1226.4999     20.94251    64.879036   -55.041594      46.7237      46.7237      46.7237           90           90           90     102002.7   -1123.2251 
  966000       965499   -7376.8849    533.61063   -7910.4956    4173.7154   -12084.211    93.334362   -646.49961   -663.30213   -827.62818   -145.87104    -39.40349    127.90563      46.7237      46.7237      46.7237           90           90           90     102002.7   -712.47664 
  967000       966499   -7366.8623    523.10531   -7889.9676      4192.77   -12082.738    91.496866   -692.32323   -1036.7449   -1013.9154   -69.558682    264.92903   -16.227179      46.7237      46.7237      46.7237           90           90           90     102002.7   -914.32784 
  968000       967499   -7389.0368    506.90279   -7895.9396    4184.9874   -12080.927    88.662868   -624.50635   -507.56004   -803.94735   -99.317074   -22.216982   -124.67524      46.7237      46.7237      46.7237           90           90           90     102002.7   -645.33791 
  969000       968499   -7379.7772    518.33716   -7898.1143    4196.7047   -12094.819    90.662866    -923.6619   -217.97783   -609.36457   -126.41291   -29.378844   -151.68543      46.7237      46.7237      46.7237           90           90           90     102002.7    -583.6681 
  970000       969499   -7389.9514    517.50695   -7907.4583     4191.452    -12098.91    90.517652   -507.46827   -991.40494   -977.32676     -139.197    109.76897   -128.84115      46.7237      46.7237      46.7237           90           90           90     102002.7   -825.39999 
  971000       970499    -7380.855      514.654    -7895.509    4196.1392   -12091.648     90.01864   -883.67023   -877.22696   -817.80331   -81.181071   -11.974476   -43.660918      46.7237      46.7237      46.7237           90           90           90     102002.7   -859.56683 
  972000       971499   -7369.6313    518.08684   -7887.7182    4184.7628   -12072.481    90.619081   -486.40368    -775.7102   -721.49607   -5.4883225    45.660589   -275.60132      46.7237      46.7237      46.7237           90           90           90     102002.7   -661.20332 
  973000       972499   -7375.0579    510.72781   -7885.7857    4197.3087   -12083.094    89.331906   -281.98953   -838.77137   -371.46364   -194.25506    -83.77093    1.5135673      46.7237      46.7237      46.7237           90           90           90     102002.7   -497.40818 
  974000       973499   -7351.8222    533.42656   -7885.2488    4189.5836   -12074.832    93.302168   -333.88655   -377.32826   -608.11402    126.16553    52.275304    134.17605      46.7237      46.7237      46.7237           90           90           90     102002.7   -439.77627 
  975000       974499   -7386.2354    512.54234   -7898.7777    4184.1123    -12082.89    89.649288   -498.77807   -751.21773    -641.3603   -73.823668    183.21028   -65.788593      46.7237      46.7237      46.7237           90           90           90     102002.7   -630.45204 
  976000       975499   -7383.1365    526.41238   -7909.5489    4168.3301   -12077.879     92.07531   -594.97539    -797.0611   -335.31819   0.28878669    15.068542    119.92565      46.7237      46.7237      46.7237           90           90           90     102002.7    -575.7849 
  977000       976499   -7378.9752    522.41259   -7901.3878    4187.1526    -12088.54    91.375703   -909.69798   -1023.4264   -568.17599   -132.43631   -44.489438    22.041028      46.7237      46.7237      46.7237           90           90           90     102002.7   -833.76678 
  978000       977499   -7401.3743    502.69706   -7904.0713    4186.7993   -12090.871    87.927239    -678.1016   -570.27726   -397.91302    124.45009     -192.462    154.42094      46.7237      46.7237      46.7237           90           90           90     102002.7   -548.76396 
  979000       978499   -7365.4174    524.80695   -7890.2244    4194.6241   -12084.848    91.794502   -126.72468   -449.86231   -560.55781    86.494109     135.3889     15.54071      46.7237      46.7237      46.7237           90           90           90     102002.7   -379.04827 
  980000       979499   -7381.2542    513.01944   -7894.2737    4188.7104   -12082.984    89.732738   -115.42239   -614.70216   -1075.7055     -171.999    10.435486    172.88576      46.7237      46.7237      46.7237           90           90           90     102002.7   -601.94333 
  981000       980499   -7376.8763    531.18868   -7908.0649     4177.136   -12085.201    92.910737   -994.14539    -606.2923   -148.72789    86.118616    19.642913    129.86669      46.7237      46.7237      46.7237           90           90           90     102002.7   -583.05519 
  982000       981499   -7370.8555    510.98613   -7881.8416     4182.679   -12064.521    89.377089   -792.66384   -555.49903   -1037.4809    36.481249     12.18664    37.804077      46.7237      46.7237      46.7237           90           90           90     102002.7   -795.21459 
  983000       982499   -7351.1616     528.1703   -7879.3319    4197.4408   -12076.773    92.382789   -378.01715   -688.43306    -420.5404    108.28181    128.94204     44.07189      46.7237      46.7237      46.7237           90           90           90     102002.7   -495.66354 
  984000       983499   -7378.3549     526.3587   -7904.7136    4186.1754   -12090.889    92.065922   -910.53025   -635.73874   -422.38645   -209.81519   -32.765327   -57.312352      46.7237      46.7237      46.7237           90           90           90     102002.7   -656.21848 
  985000       984499   -7358.6934    531.45459    -7890.148    4192.4255   -12082.574    92.957248   -596.45267   -911.04206   -525.83555    96.120216   -37.702136   -44.731873      46.7237      46.7237      46.7237           90           90           90     102002.7   -677.77676 
  986000       985499    -7371.667    515.37547   -7887.0425    4206.9296   -12093.972    90.144834    -892.4257    -639.1427   -774.22961    252.15326   -57.889149   -274.85899      46.7237      46.7237      46.7237           90           90           90     102002.7   -768.59934 
  987000       986499   -7381.9432    513.25866   -7895.2019    4177.1041   -12072.306    89.774579   -735.44482   -881.02246   -928.06718    22.499652    138.85635    97.141648      46.7237      46.7237      46.7237           90           90           90     102002.7   -848.17815 
  988000       987499   -7391.8431    509.47881   -7901.3219    4182.1684    -12083.49    89.113443   -704.20352   -896.11568     -757.769   -273.59701   -200.50591    18.489036      46.7237      46.7237      46.7237           90           90           90     102002.7    -786.0294 
  989000       988499   -7353.3239    531.72936   -7885.0532    4180.6503   -12065.704    93.005308   -784.67935   -460.37265   -914.08421   -42.885744   -350.23125   -156.87907      46.7237      46.7237      46.7237           90           90           90     102002.7   -719.71207 
  990000       989499     -7368.56    513.29843   -7881.8584    4200.6807   -12082.539    89.781535    -876.1586   -693.37328   -754.26918   -119.32156    34.162654   -16.779612      46.7237      46.7237      46.7237           90           90           90     102002.7   -774.60036 
  991000       990499   -7377.0926    520.91221   -7898.0048    4187.5407   -12085.545     91.11327   -443.22497   -1064.4326   -249.33016   -68.131572   -58.208632   -37.299092      46.7237      46.7237      46.7237           90           90           90     102002.7   -585.66258 
  992000       991499   -7379.9846    519.36695   -7899.3516    4178.2359   -12077.588    90.842986   -235.22116   -954.00764   -794.51076    94.423301    210.59796    70.079923      46.7237      46.7237      46.7237           90           90           90     102002.7   -661.24652 
  993000       992499   -7368.5239    513.00318   -7881.5271    4206.6621   -12088.189    89.729893   -613.70329    -993.1817   -1231.7983   -115.22209    29.826215    -162.7667      46.7237      46.7237      46.7237           90           90           90     102002.7   -946.22776 
  994000       993499    -7350.838     524.1983   -7875.0363     4217.521   -12092.557    91.688044     -1041.63   -1034.4695   -862.50629   -32.137747    55.652391    230.55433      46.7237      46.7237      46.7237           90           90           90     102002.7   -979.53526 
  995000       994499   -7387.0076    518.68304   -7905.6906    4197.6169   -12103.308    90.723364   -538.84009   -778.37261    -726.0599    138.74052    42.405075   -38.621696      46.7237      46.7237      46.7237           90           90           90     102002.7   -681.09087 
  996000       995499   -7368.8239    516.87365   -7885.6976    4194.8965   -12080.594    90.406882   -912.10429   -641.52374   -932.65299    239.57674   -19.668267    114.30182      46.7237      46.7237      46.7237           90           90           90     102002.7   -828.76034 
  997000       996499   -7387.0643    517.91885   -7904.9832    4180.6568    -12085.64    90.589699    -543.0272    -526.1214   -720.16718   -133.30479   -47.366716   -43.895497      46.7237      46.7237      46.7237           90           90           90     102002.7   -596.43859 
  998000       997499   -7367.9398    519.08224    -7887.022    4205.4241   -12092.446    90.793188   -817.50529   -725.06397   -458.39999     54.14121    105.79425    48.132329      46.7237      46.7237      46.7237           90           90           90     102002.7   -666.98975 
  999000       998499   -7373.5251    528.21233   -7901.7374    4180.9977   -12082.735    92.390141    -653.9259   -235.31662   -681.61322   -95.260188   -23.385977    61.546834      46.7237      46.7237      46.7237           90           90           90     102002.7   -523.61858 
 1000000       999499   -7391.9685    518.60602   -7910.5745    4182.5901   -12093.165    90.709892   -612.66525   -905.70118   -229.70463    48.376192   -156.65168    20.507531      46.7237      46.7237      46.7237           90           90           90     102002.7   -582.69035 
 1000501      1000000   -7369.8181    525.65045   -7895.4686    4181.8349   -12077.303    91.942039   -882.11334   -735.49589   -438.44555    61.379218    75.538367    46.745527      46.7237      46.7237      46.7237           90           90           90     102002.7   -685.35159 
Loop time of 1601.52 on 16 procs for 500000 steps with 1919 atoms

Performance: 26.974 ns/day, 0.890 hours/ns, 312.204 timesteps/s
99.8% CPU use with 16 MPI tasks x no OpenMP threads

MPI task timing breakdown:
Section |  min time  |  avg time  |  max time  |%varavg| %total
---------------------------------------------------------------
Pair    | 553.45     | 848.06     | 1128.4     | 756.9 | 52.95
Bond    | 155.04     | 183.49     | 212.39     | 166.7 | 11.46
Neigh   | 5.7068     | 5.7486     | 5.7842     |   0.9 |  0.36
Comm    | 236.26     | 535.24     | 853.68     |1045.7 | 33.42
Output  | 0.10181    | 0.10718    | 0.10767    |   0.4 |  0.01
Modify  | 22.53      | 23.31      | 23.942     |   8.8 |  1.46
Other   |            | 5.56       |            |       |  0.35

Nlocal:    119.938 ave 157 max 86 min
Histogram: 2 0 3 2 1 2 3 2 0 1
Nghost:    2405.12 ave 2442 max 2359 min
Histogram: 1 0 1 1 5 1 4 0 1 2
Neighs:    11454.6 ave 18683 max 6172 min
Histogram: 2 4 1 1 1 0 3 3 0 1

Total # of neighbors = 183273
Ave neighs/atom = 95.5044
Ave special neighs/atom = 6.00313
Neighbor list builds = 3838
Dangerous builds = 0
Total wall time: 0:49:30
