LAMMPS (30 Mar 2018)
Reading data file ...
  orthogonal box = (0 0 0) to (46.7237 46.7237 46.7237)
  2 by 2 by 4 MPI processor grid
  reading atoms ...
  2053 atoms
  scanning bonds ...
  5 = max bonds/atom
  scanning angles ...
  10 = max angles/atom
  scanning dihedrals ...
  32 = max dihedrals/atom
  scanning impropers ...
  3 = max impropers/atom
  reading bonds ...
  2064 bonds
  reading angles ...
  3696 angles
  reading dihedrals ...
  6240 dihedrals
  reading impropers ...
  1008 impropers
Finding 1-2 1-3 1-4 neighbors ...
  special bond factors lj:   0          0          0         
  special bond factors coul: 0          0          0         
  5 = max # of 1-2 neighbors
  8 = max # of 1-3 neighbors
  20 = max # of 1-4 neighbors
  19 = max # of special neighbors
Finding 1-2 1-3 1-4 neighbors ...
  special bond factors lj:   0          0          1         
  special bond factors coul: 1          1          1         
  5 = max # of 1-2 neighbors
  8 = max # of 1-3 neighbors
  19 = max # of special neighbors
WARNING: Using 'neigh_modify every 1 delay 0 check yes' setting during minimization (../min.cpp:168)
Neighbor list info ...
  update every 1 steps, delay 0 steps, check yes
  max neighbors/atom: 2000, page size: 100000
  master list distance cutoff = 16
  ghost atom cutoff = 16
  binsize = 8, bins = 6 6 6
  3 neighbor lists, perpetual/occasional/extra = 3 0 0
  (1) pair buck6d/coul/gauss/dsf, perpetual, skip from (3)
      attributes: half, newton on
      pair build: skip
      stencil: none
      bin: none
  (2) pair lj/cut, perpetual, skip from (3)
      attributes: half, newton on
      pair build: skip
      stencil: none
      bin: none
  (3) neighbor class addition, perpetual
      attributes: half, newton on
      pair build: half/bin/newton
      stencil: half/bin/3d/newton
      bin: standard
Setting up cg style minimization ...
  Unit style    : real
  Current step  : 0
WARNING: Inconsistent image flags (../domain.cpp:786)
Per MPI rank memory allocation (min/avg/max) = 22.91 | 23.37 | 23.81 Mbytes
Step Temp E_pair E_mol TotEng Press 
       0            0   -12575.042    6482.8914   -6092.1507    6112.3052 
     501            0   -12665.437    3735.3998   -8930.0375   -670.60026 
Loop time of 3.11684 on 16 procs for 501 steps with 2053 atoms

99.9% CPU use with 16 MPI tasks x no OpenMP threads

Minimization stats:
  Stopping criterion = max force evaluations
  Energy initial, next-to-last, final = 
        -6092.15066726     -8929.99544759     -8930.03749629
  Force two-norm initial, final = 2574.59 9.62765
  Force max component initial, final = 151.94 2.24807
  Final line search alpha, max atom move = 0.00501617 0.0112767
  Iterations, force evaluations = 501 1001

MPI task timing breakdown:
Section |  min time  |  avg time  |  max time  |%varavg| %total
---------------------------------------------------------------
Pair    | 1.4139     | 1.8507     | 2.2781     |  20.5 | 59.38
Bond    | 0.29696    | 0.35979    | 0.43438    |   6.1 | 11.54
Neigh   | 0.02474    | 0.024922   | 0.025226   |   0.1 |  0.80
Comm    | 0.37835    | 0.84124    | 1.2864     |  29.5 | 26.99
Output  | 0          | 0          | 0          |   0.0 |  0.00
Modify  | 0          | 0          | 0          |   0.0 |  0.00
Other   |            | 0.04022    |            |       |  1.29

Nlocal:    128.312 ave 151 max 112 min
Histogram: 2 2 0 4 2 2 3 0 0 1
Nghost:    2497.56 ave 2511 max 2475 min
Histogram: 1 0 1 3 1 0 2 1 3 4
Neighs:    11450.8 ave 14814 max 8352 min
Histogram: 3 2 1 2 0 1 2 0 3 2

Total # of neighbors = 183213
Ave neighs/atom = 89.2416
Ave special neighs/atom = 5.6113
Neighbor list builds = 15
Dangerous builds = 0
Neighbor list info ...
  update every 1 steps, delay 10 steps, check yes
  max neighbors/atom: 2000, page size: 100000
  master list distance cutoff = 16
  ghost atom cutoff = 16
  binsize = 8, bins = 6 6 6
  3 neighbor lists, perpetual/occasional/extra = 3 0 0
  (1) pair buck6d/coul/gauss/dsf, perpetual, skip from (3)
      attributes: half, newton on
      pair build: skip
      stencil: none
      bin: none
  (2) pair lj/cut, perpetual, skip from (3)
      attributes: half, newton on
      pair build: skip
      stencil: none
      bin: none
  (3) neighbor class addition, perpetual
      attributes: half, newton on
      pair build: half/bin/newton
      stencil: half/bin/3d/newton
      bin: standard
Setting up Verlet run ...
  Unit style    : real
  Current step  : 501
  Time step     : 1
WARNING: Inconsistent image flags (../domain.cpp:786)
Per MPI rank memory allocation (min/avg/max) = 22.56 | 22.62 | 22.69 Mbytes
Step Temp PotEng TotEng Press Volume Lx Ly Lz 
     501           91   -8930.0375   -8373.4249   -421.15559     102002.7      46.7237      46.7237      46.7237 
    1000    77.820005   -8432.8476   -7956.8521   -712.80989     102002.7      46.7237      46.7237      46.7237 
    2000    96.833877   -8366.9732   -7774.6769   -486.64348     102002.7      46.7237      46.7237      46.7237 
    3000    94.085903   -8350.0009    -7774.513    -692.6411     102002.7      46.7237      46.7237      46.7237 
    4000    88.832061   -8346.4563   -7803.1042   -786.35138     102002.7      46.7237      46.7237      46.7237 
    5000    92.397592   -8361.7138   -7796.5526   -892.36493     102002.7      46.7237      46.7237      46.7237 
    6000    89.916426   -8354.5413   -7804.5565   -498.87435     102002.7      46.7237      46.7237      46.7237 
    7000    90.544058    -8353.766   -7799.9422   -653.87572     102002.7      46.7237      46.7237      46.7237 
    8000    91.914603   -8309.0129    -7746.806   -879.74127     102002.7      46.7237      46.7237      46.7237 
    9000    92.593964   -8365.2528   -7798.8905   -890.08003     102002.7      46.7237      46.7237      46.7237 
   10000    91.932656   -8350.2589   -7787.9415   -826.34601     102002.7      46.7237      46.7237      46.7237 
   11000    90.838859   -8362.4296   -7806.8026    -867.7586     102002.7      46.7237      46.7237      46.7237 
   12000    90.426405    -8349.966   -7796.8618   -752.48542     102002.7      46.7237      46.7237      46.7237 
   13000    94.184457   -8360.9903   -7784.8995   -804.72769     102002.7      46.7237      46.7237      46.7237 
   14000    88.844821   -8356.7828   -7813.3526    -690.7786     102002.7      46.7237      46.7237      46.7237 
   15000    89.381695   -8347.9301    -7801.216   -550.27955     102002.7      46.7237      46.7237      46.7237 
   16000    91.951644   -8340.1926   -7777.7591    -927.8728     102002.7      46.7237      46.7237      46.7237 
   17000    91.042406   -8356.2439   -7799.3719   -497.98779     102002.7      46.7237      46.7237      46.7237 
   18000     92.16414   -8346.6734   -7782.9402   -472.24636     102002.7      46.7237      46.7237      46.7237 
   19000    91.642065   -8354.9031   -7794.3632   -921.66362     102002.7      46.7237      46.7237      46.7237 
   20000    91.898346   -8355.1218   -7793.0144   -610.31573     102002.7      46.7237      46.7237      46.7237 
   21000    89.590264   -8353.5294   -7805.5396   -620.71144     102002.7      46.7237      46.7237      46.7237 
   22000    91.091912   -8360.5325   -7803.3576   -872.57825     102002.7      46.7237      46.7237      46.7237 
   23000    91.812974   -8333.2343    -7771.649   -742.45927     102002.7      46.7237      46.7237      46.7237 
   24000    91.592881   -8341.1222   -7780.8831   -1059.9602     102002.7      46.7237      46.7237      46.7237 
   25000    94.234756   -8347.8494    -7771.451   -787.65476     102002.7      46.7237      46.7237      46.7237 
   26000    89.517859   -8360.8577   -7813.3108   -931.63275     102002.7      46.7237      46.7237      46.7237 
   27000    91.565788   -8351.3597   -7791.2863   -1008.4028     102002.7      46.7237      46.7237      46.7237 
   28000     89.25688   -8348.7549   -7802.8043   -525.53793     102002.7      46.7237      46.7237      46.7237 
   29000    89.845565   -8354.6999   -7805.1485   -892.47349     102002.7      46.7237      46.7237      46.7237 
   30000    91.620794   -8350.1544   -7789.7446   -1089.4759     102002.7      46.7237      46.7237      46.7237 
   31000    91.838146    -8343.085   -7781.3458   -731.19524     102002.7      46.7237      46.7237      46.7237 
   32000      91.4754   -8341.1313   -7781.6108   -665.37964     102002.7      46.7237      46.7237      46.7237 
   33000    89.453019   -8338.6148   -7791.4645   -711.22338     102002.7      46.7237      46.7237      46.7237 
   34000    90.060054   -8333.9557   -7783.0923   -541.99459     102002.7      46.7237      46.7237      46.7237 
   35000    91.026109   -8333.3866   -7776.6143   -691.76242     102002.7      46.7237      46.7237      46.7237 
   36000    88.831216   -8329.3476   -7786.0006   -851.53837     102002.7      46.7237      46.7237      46.7237 
   37000    91.504962   -8350.6725   -7790.9712    -471.7992     102002.7      46.7237      46.7237      46.7237 
   38000     92.84752   -8336.0804   -7768.1672   -495.95463     102002.7      46.7237      46.7237      46.7237 
   39000    90.562558   -8338.7242   -7784.7872   -660.02402     102002.7      46.7237      46.7237      46.7237 
   40000    89.371169   -8352.7159   -7806.0663   -589.09585     102002.7      46.7237      46.7237      46.7237 
   41000    91.193384   -8332.2424    -7774.447    -765.5358     102002.7      46.7237      46.7237      46.7237 
   42000    88.538332   -8366.3451   -7824.7896   -801.65288     102002.7      46.7237      46.7237      46.7237 
   43000    93.033967   -8349.1726    -7780.119   -692.32823     102002.7      46.7237      46.7237      46.7237 
   44000    90.766589   -8320.9788   -7765.7938   -907.13484     102002.7      46.7237      46.7237      46.7237 
   45000    90.407714   -8348.0991   -7795.1093   -560.13267     102002.7      46.7237      46.7237      46.7237 
   46000    91.353616    -8347.018   -7788.2424   -798.31463     102002.7      46.7237      46.7237      46.7237 
   47000    92.795862   -8315.2182    -7747.621   -722.95979     102002.7      46.7237      46.7237      46.7237 
   48000    92.370851   -8355.5603   -7790.5627   -510.00531     102002.7      46.7237      46.7237      46.7237 
   49000    93.394226   -8330.9367   -7759.6795   -859.61833     102002.7      46.7237      46.7237      46.7237 
   50000    90.981802   -8333.4733    -7776.972   -552.38971     102002.7      46.7237      46.7237      46.7237 
   51000    91.519119   -8327.9406   -7768.1528    -1004.999     102002.7      46.7237      46.7237      46.7237 
   52000    92.751399   -8325.4856   -7758.1603   -620.97402     102002.7      46.7237      46.7237      46.7237 
   53000    91.260923   -8348.9718   -7790.7633   -867.89376     102002.7      46.7237      46.7237      46.7237 
   54000    92.794342   -8338.5027   -7770.9147   -705.89166     102002.7      46.7237      46.7237      46.7237 
   55000     90.47901    -8319.152   -7765.7261   -561.39679     102002.7      46.7237      46.7237      46.7237 
   56000    90.747063   -8348.8424   -7793.7769   -750.75072     102002.7      46.7237      46.7237      46.7237 
   57000    90.978802   -8331.0617   -7774.5787   -539.25574     102002.7      46.7237      46.7237      46.7237 
   58000    91.470869   -8324.4574   -7764.9647   -911.64119     102002.7      46.7237      46.7237      46.7237 
   59000    89.682059   -8329.4524   -7780.9011   -645.85422     102002.7      46.7237      46.7237      46.7237 
   60000    93.071049   -8327.3385   -7758.0581   -563.51069     102002.7      46.7237      46.7237      46.7237 
   61000    90.154502   -8333.8502   -7782.4091   -774.40873     102002.7      46.7237      46.7237      46.7237 
   62000     93.20321   -8349.8662   -7779.7774   -540.49303     102002.7      46.7237      46.7237      46.7237 
   63000    89.409118   -8337.1956   -7790.3138   -680.19155     102002.7      46.7237      46.7237      46.7237 
   64000    92.882986   -8337.7892   -7769.6591   -715.74699     102002.7      46.7237      46.7237      46.7237 
   65000    92.482669    -8360.739   -7795.0575   -771.74333     102002.7      46.7237      46.7237      46.7237 
   66000    91.105875   -8332.5558   -7775.2956   -492.62499     102002.7      46.7237      46.7237      46.7237 
   67000    89.719002   -8360.9649   -7812.1877    -582.7559     102002.7      46.7237      46.7237      46.7237 
   68000    91.209294   -8352.8032   -7794.9104   -1072.8642     102002.7      46.7237      46.7237      46.7237 
   69000    93.924564   -8342.8038   -7768.3027   -905.25472     102002.7      46.7237      46.7237      46.7237 
   70000    91.934012   -8353.0371   -7790.7114   -785.92529     102002.7      46.7237      46.7237      46.7237 
   71000    89.753386   -8341.9363   -7792.9487   -678.54994     102002.7      46.7237      46.7237      46.7237 
   72000    89.597546   -8342.5084   -7794.4741   -570.37543     102002.7      46.7237      46.7237      46.7237 
   73000    93.656718   -8338.3104   -7765.4477   -736.16937     102002.7      46.7237      46.7237      46.7237 
   74000    90.858211   -8338.5326   -7782.7873   -483.57691     102002.7      46.7237      46.7237      46.7237 
   75000    91.022167   -8347.1351   -7790.3868   -680.85915     102002.7      46.7237      46.7237      46.7237 
   76000    90.368413   -8323.4746   -7770.7251   -708.77602     102002.7      46.7237      46.7237      46.7237 
   77000    89.636715   -8338.1726   -7789.8986   -567.41062     102002.7      46.7237      46.7237      46.7237 
   78000    89.611895   -8343.8583   -7795.7362   -647.57839     102002.7      46.7237      46.7237      46.7237 
   79000     87.88179   -8339.5408   -7802.0011   -815.87199     102002.7      46.7237      46.7237      46.7237 
   80000    91.794191   -8337.0382   -7775.5678   -593.85332     102002.7      46.7237      46.7237      46.7237 
   81000    92.262119   -8329.8889   -7765.5563   -699.27011     102002.7      46.7237      46.7237      46.7237 
   82000    90.484677   -8354.0277   -7800.5672   -519.70057     102002.7      46.7237      46.7237      46.7237 
   83000    91.728447   -8357.3726   -7796.3043   -752.76812     102002.7      46.7237      46.7237      46.7237 
   84000    90.899279   -8334.4832   -7778.4867    -979.8854     102002.7      46.7237      46.7237      46.7237 
   85000    87.153734   -8347.0038   -7813.9174   -802.26284     102002.7      46.7237      46.7237      46.7237 
   86000    93.474266   -8354.2503   -7782.5035   -817.20816     102002.7      46.7237      46.7237      46.7237 
   87000    93.164029   -8347.2069   -7777.3577   -806.58858     102002.7      46.7237      46.7237      46.7237 
   88000    90.698154   -8338.1218   -7783.3555   -817.62184     102002.7      46.7237      46.7237      46.7237 
   89000    92.241992    -8337.265   -7773.0556   -1013.2892     102002.7      46.7237      46.7237      46.7237 
   90000    91.490656   -8326.3273   -7766.7135   -782.51867     102002.7      46.7237      46.7237      46.7237 
   91000    89.714566   -8343.3939   -7794.6438   -817.23047     102002.7      46.7237      46.7237      46.7237 
   92000    90.392267   -8347.6494    -7794.754   -661.86478     102002.7      46.7237      46.7237      46.7237 
   93000    92.257672   -8355.8741   -7791.5688   -820.40046     102002.7      46.7237      46.7237      46.7237 
   94000    93.767078   -8341.8566   -7768.3188    -995.9042     102002.7      46.7237      46.7237      46.7237 
   95000    91.854126   -8343.9004   -7782.0635   -881.27874     102002.7      46.7237      46.7237      46.7237 
   96000    92.414075   -8339.0554   -7773.7934   -951.26348     102002.7      46.7237      46.7237      46.7237 
   97000    90.629054   -8340.2007    -7785.857   -855.40433     102002.7      46.7237      46.7237      46.7237 
   98000    93.883258   -8311.3108   -7737.0624   -916.83419     102002.7      46.7237      46.7237      46.7237 
   99000    94.258854    -8356.406   -7779.8602    -1146.715     102002.7      46.7237      46.7237      46.7237 
  100000    93.376607   -8334.9079   -7763.7585    -1194.597     102002.7      46.7237      46.7237      46.7237 
  101000    88.788391   -8336.7421    -7793.657   -1024.5287     102002.7      46.7237      46.7237      46.7237 
  102000    91.943601   -8339.5767   -7777.1924   -1058.5949     102002.7      46.7237      46.7237      46.7237 
  103000    90.590748   -8330.1896   -7776.0802   -758.20089     102002.7      46.7237      46.7237      46.7237 
  104000    90.643263   -8344.7481   -7790.3175   -803.66211     102002.7      46.7237      46.7237      46.7237 
  105000    90.952159     -8353.81     -7797.49   -836.23093     102002.7      46.7237      46.7237      46.7237 
  106000    93.964701   -8337.4406    -7762.694   -840.60823     102002.7      46.7237      46.7237      46.7237 
  107000    90.413212   -8341.8997   -7788.8763   -764.73629     102002.7      46.7237      46.7237      46.7237 
  108000     89.51562    -8351.264   -7803.7307   -715.58525     102002.7      46.7237      46.7237      46.7237 
  109000    91.470198   -8346.5428   -7787.0541   -854.58248     102002.7      46.7237      46.7237      46.7237 
  110000    90.942809   -8344.7316   -7788.4688   -657.04212     102002.7      46.7237      46.7237      46.7237 
  111000    91.226656   -8360.4649   -7802.4659   -645.85323     102002.7      46.7237      46.7237      46.7237 
  112000    90.100053   -8325.9839   -7774.8759   -853.23367     102002.7      46.7237      46.7237      46.7237 
  113000    90.994344   -8347.8131   -7791.2351   -764.00737     102002.7      46.7237      46.7237      46.7237 
  114000    90.910438   -8337.1172   -7781.0524   -602.96284     102002.7      46.7237      46.7237      46.7237 
  115000    90.365651   -8334.1833   -7781.4507   -679.97792     102002.7      46.7237      46.7237      46.7237 
  116000    92.476158   -8350.1324   -7784.4906    -705.1845     102002.7      46.7237      46.7237      46.7237 
  117000    92.174979   -8349.0871   -7785.2876   -533.41471     102002.7      46.7237      46.7237      46.7237 
  118000    88.102363   -8333.6696   -7794.7807   -945.21281     102002.7      46.7237      46.7237      46.7237 
  119000    91.560026   -8338.9123   -7778.8742   -678.28927     102002.7      46.7237      46.7237      46.7237 
  120000    89.515358   -8349.2358   -7801.7042   -514.72718     102002.7      46.7237      46.7237      46.7237 
  121000    89.343352   -8336.2738   -7789.7943   -825.48841     102002.7      46.7237      46.7237      46.7237 
  122000    91.093019   -8332.0453   -7774.8637   -652.25425     102002.7      46.7237      46.7237      46.7237 
  123000     91.22191   -8366.8027   -7808.8327   -723.94263     102002.7      46.7237      46.7237      46.7237 
  124000    91.179264   -8357.1654   -7799.4563   -654.15578     102002.7      46.7237      46.7237      46.7237 
  125000    90.888805   -8329.0182   -7773.0857   -886.94568     102002.7      46.7237      46.7237      46.7237 
  126000    91.177428   -8346.3837   -7788.6858   -690.20747     102002.7      46.7237      46.7237      46.7237 
  127000    93.779531   -8344.4669   -7770.8529   -704.16985     102002.7      46.7237      46.7237      46.7237 
  128000    90.270801   -8345.3502   -7793.1978   -890.24186     102002.7      46.7237      46.7237      46.7237 
  129000    90.308568   -8341.4855   -7789.1021   -842.26764     102002.7      46.7237      46.7237      46.7237 
  130000    90.384479    -8332.514   -7779.6663   -781.71839     102002.7      46.7237      46.7237      46.7237 
  131000    93.023844   -8337.6886   -7768.6969   -966.96046     102002.7      46.7237      46.7237      46.7237 
  132000    88.078834   -8343.0188   -7804.2739    -960.4423     102002.7      46.7237      46.7237      46.7237 
  133000    91.550443   -8343.6016   -7783.6221   -799.75371     102002.7      46.7237      46.7237      46.7237 
  134000    93.288524   -8329.1772   -7758.5666   -950.72673     102002.7      46.7237      46.7237      46.7237 
  135000    91.074102   -8342.6122   -7785.5463   -725.02838     102002.7      46.7237      46.7237      46.7237 
  136000    92.588979   -8338.3513   -7772.0195   -773.35653     102002.7      46.7237      46.7237      46.7237 
  137000      91.7108   -8337.6648   -7776.7045   -953.05327     102002.7      46.7237      46.7237      46.7237 
  138000    90.989341   -8316.7344   -7760.1869   -634.68103     102002.7      46.7237      46.7237      46.7237 
  139000    89.401289   -8340.3845   -7793.5505   -612.19299     102002.7      46.7237      46.7237      46.7237 
  140000     93.58406   -8342.9033   -7770.4849   -674.38997     102002.7      46.7237      46.7237      46.7237 
  141000     88.85111   -8325.7523   -7782.2836   -780.96294     102002.7      46.7237      46.7237      46.7237 
  142000    89.466501   -8334.8632   -7787.6304   -743.35179     102002.7      46.7237      46.7237      46.7237 
  143000    90.457015   -8303.1819   -7749.8905   -641.38831     102002.7      46.7237      46.7237      46.7237 
  144000    93.800551     -8344.53   -7770.7875   -841.56277     102002.7      46.7237      46.7237      46.7237 
  145000    91.793317   -8336.6896   -7775.2246    -818.0622     102002.7      46.7237      46.7237      46.7237 
  146000    90.155824   -8357.2202    -7805.771   -766.11992     102002.7      46.7237      46.7237      46.7237 
  147000     91.59233    -8333.598   -7773.3623   -816.20995     102002.7      46.7237      46.7237      46.7237 
  148000    90.173905   -8357.4806   -7805.9209   -879.53112     102002.7      46.7237      46.7237      46.7237 
  149000    91.730627   -8336.9249   -7775.8433    -840.7305     102002.7      46.7237      46.7237      46.7237 
  150000    93.103999   -8341.0808   -7771.5988   -1002.5696     102002.7      46.7237      46.7237      46.7237 
  151000    88.573077    -8342.643   -7800.8749   -779.01905     102002.7      46.7237      46.7237      46.7237 
  152000    91.364862   -8338.0113   -7779.1669   -913.68497     102002.7      46.7237      46.7237      46.7237 
  153000    89.283872   -8319.1701   -7773.0544   -981.88464     102002.7      46.7237      46.7237      46.7237 
  154000    88.310691   -8342.7152   -7802.5521   -779.26113     102002.7      46.7237      46.7237      46.7237 
  155000    90.809872   -8326.6604   -7771.2107   -871.97628     102002.7      46.7237      46.7237      46.7237 
  156000    88.634194   -8327.7806   -7785.6388   -846.74644     102002.7      46.7237      46.7237      46.7237 
  157000    90.118314     -8327.51   -7776.2903   -451.85241     102002.7      46.7237      46.7237      46.7237 
  158000      91.0125    -8335.758   -7779.0689   -648.36417     102002.7      46.7237      46.7237      46.7237 
  159000    90.242155   -8332.4063   -7780.4291   -699.92954     102002.7      46.7237      46.7237      46.7237 
  160000    88.442877   -8357.3956   -7816.4239   -855.48496     102002.7      46.7237      46.7237      46.7237 
  161000    91.066178   -8343.4437   -7786.4263   -778.19685     102002.7      46.7237      46.7237      46.7237 
  162000    90.394777   -8330.7798   -7777.8691   -883.23037     102002.7      46.7237      46.7237      46.7237 
  163000    88.856848   -8326.2182   -7782.7144   -951.93459     102002.7      46.7237      46.7237      46.7237 
  164000    90.257666   -8340.3992   -7788.3272   -986.32311     102002.7      46.7237      46.7237      46.7237 
  165000    92.648718   -8329.9286   -7763.2314   -1011.5921     102002.7      46.7237      46.7237      46.7237 
  166000    89.460892   -8338.5189   -7791.3204   -1029.6093     102002.7      46.7237      46.7237      46.7237 
  167000    90.562892   -8323.8137   -7769.8747   -949.57915     102002.7      46.7237      46.7237      46.7237 
  168000    87.880493   -8319.6858    -7782.154   -902.21695     102002.7      46.7237      46.7237      46.7237 
  169000    88.207932   -8316.5037   -7776.9691   -1214.0179     102002.7      46.7237      46.7237      46.7237 
  170000     90.48219   -8315.7331   -7762.2878   -873.05334     102002.7      46.7237      46.7237      46.7237 
  171000    88.966615   -8342.1189   -7797.9437   -1165.9043     102002.7      46.7237      46.7237      46.7237 
  172000    90.867105   -8337.3205   -7781.5208   -1241.9944     102002.7      46.7237      46.7237      46.7237 
  173000    89.876199   -8334.9119   -7785.1731    -808.2989     102002.7      46.7237      46.7237      46.7237 
  174000    91.530771   -8337.1294   -7777.2702   -1048.6566     102002.7      46.7237      46.7237      46.7237 
  175000    87.332843   -8329.0822   -7794.9002   -820.27831     102002.7      46.7237      46.7237      46.7237 
  176000    91.095869   -8323.0843   -7765.8852   -898.19345     102002.7      46.7237      46.7237      46.7237 
  177000    93.957556   -8347.1724   -7772.4695   -1067.2662     102002.7      46.7237      46.7237      46.7237 
  178000    91.220564   -8312.0499   -7754.0881   -895.80188     102002.7      46.7237      46.7237      46.7237 
  179000    89.282631   -8335.6952   -7789.5871   -665.09243     102002.7      46.7237      46.7237      46.7237 
  180000    89.163202   -8331.3496    -7785.972    -745.5133     102002.7      46.7237      46.7237      46.7237 
  181000    91.791223   -8325.1039   -7763.6517   -869.95916     102002.7      46.7237      46.7237      46.7237 
  182000    89.496719   -8339.1175   -7791.6999   -716.10647     102002.7      46.7237      46.7237      46.7237 
  183000    92.497913   -8322.6536   -7756.8788    -910.5999     102002.7      46.7237      46.7237      46.7237 
  184000    90.970999   -8327.3021   -7770.8669   -734.02897     102002.7      46.7237      46.7237      46.7237 
  185000    91.172838   -8337.9432   -7780.2734   -523.20295     102002.7      46.7237      46.7237      46.7237 
  186000    91.137947   -8355.3406   -7797.8842   -496.00373     102002.7      46.7237      46.7237      46.7237 
  187000    91.297385   -8352.9648   -7794.5331   -865.21542     102002.7      46.7237      46.7237      46.7237 
  188000    90.908176   -8358.1712   -7802.1202   -419.36968     102002.7      46.7237      46.7237      46.7237 
  189000    91.232174   -8340.7743   -7782.7416   -613.14333     102002.7      46.7237      46.7237      46.7237 
  190000    91.864353     -8335.49   -7773.5905   -661.16854     102002.7      46.7237      46.7237      46.7237 
  191000     89.45194   -8316.2522   -7769.1085   -717.82431     102002.7      46.7237      46.7237      46.7237 
  192000    91.134167   -8319.5425   -7762.1093    -540.5848     102002.7      46.7237      46.7237      46.7237 
  193000    89.807004   -8362.4647   -7813.1492   -644.48879     102002.7      46.7237      46.7237      46.7237 
  194000    90.132931   -8334.5057   -7783.1966   -850.98174     102002.7      46.7237      46.7237      46.7237 
  195000     93.57472   -8351.3236   -7778.9623   -829.13417     102002.7      46.7237      46.7237      46.7237 
  196000    88.981886   -8340.1616    -7795.893   -839.04405     102002.7      46.7237      46.7237      46.7237 
  197000    89.751633    -8337.758   -7788.7812   -671.21763     102002.7      46.7237      46.7237      46.7237 
  198000     93.02836   -8336.7453    -7767.726   -929.83196     102002.7      46.7237      46.7237      46.7237 
  199000    89.362872   -8337.2557   -7790.6568   -925.14456     102002.7      46.7237      46.7237      46.7237 
  200000    89.052868   -8338.7636   -7794.0609   -786.53789     102002.7      46.7237      46.7237      46.7237 
  201000    93.214264   -8327.3719   -7757.2154   -694.41934     102002.7      46.7237      46.7237      46.7237 
  202000    91.082321   -8343.7633   -7786.6472   -729.89792     102002.7      46.7237      46.7237      46.7237 
  203000     88.55867   -8341.7602   -7800.0803   -787.11931     102002.7      46.7237      46.7237      46.7237 
  204000    91.492111   -8338.7752   -7779.1526    -701.1682     102002.7      46.7237      46.7237      46.7237 
  205000    94.631977   -8339.7362   -7760.9081   -587.38387     102002.7      46.7237      46.7237      46.7237 
  206000    91.371424   -8328.8018   -7769.9173   -667.57219     102002.7      46.7237      46.7237      46.7237 
  207000    91.585366   -8348.7475   -7788.5544   -654.97351     102002.7      46.7237      46.7237      46.7237 
  208000    91.202816   -8315.8146   -7757.9614   -870.73846     102002.7      46.7237      46.7237      46.7237 
  209000    92.931668   -8334.9639    -7766.536   -823.77472     102002.7      46.7237      46.7237      46.7237 
  210000    91.222006    -8356.496   -7798.5254   -936.29776     102002.7      46.7237      46.7237      46.7237 
  211000    93.664617   -8341.5612   -7768.6501   -640.33849     102002.7      46.7237      46.7237      46.7237 
  212000     89.97665   -8346.2959   -7795.9427   -597.14476     102002.7      46.7237      46.7237      46.7237 
  213000    90.442936   -8341.7804   -7788.5751   -713.37312     102002.7      46.7237      46.7237      46.7237 
  214000    91.084403   -8350.3742   -7793.2454   -562.65794     102002.7      46.7237      46.7237      46.7237 
  215000    88.462977   -8340.7687   -7799.6741   -820.99044     102002.7      46.7237      46.7237      46.7237 
  216000    90.078691   -8325.8045   -7774.8271   -946.36321     102002.7      46.7237      46.7237      46.7237 
  217000     92.37234   -8332.9693   -7767.9626   -738.67552     102002.7      46.7237      46.7237      46.7237 
  218000    91.380707   -8327.2303    -7768.289   -544.16058     102002.7      46.7237      46.7237      46.7237 
  219000    90.993121   -8345.3287   -7788.7581   -774.23875     102002.7      46.7237      46.7237      46.7237 
  220000    90.281495   -8328.3771   -7776.1593   -804.43031     102002.7      46.7237      46.7237      46.7237 
  221000    91.643597    -8356.214   -7795.6647    -601.9572     102002.7      46.7237      46.7237      46.7237 
  222000    92.425714   -8337.2814   -7771.9483   -579.87645     102002.7      46.7237      46.7237      46.7237 
  223000    91.497192   -8348.6834   -7789.0297   -655.58337     102002.7      46.7237      46.7237      46.7237 
  224000    90.807093   -8347.3863   -7791.9536   -983.70942     102002.7      46.7237      46.7237      46.7237 
  225000     91.60064   -8342.2746   -7781.9881   -803.48602     102002.7      46.7237      46.7237      46.7237 
  226000     90.87574   -8355.7825   -7799.9299   -739.86448     102002.7      46.7237      46.7237      46.7237 
  227000    90.857971    -8335.193   -7779.4491   -992.77711     102002.7      46.7237      46.7237      46.7237 
  228000    89.658033   -8336.4035   -7787.9992   -906.41913     102002.7      46.7237      46.7237      46.7237 
  229000    92.465874   -8347.0166   -7781.4378   -900.68492     102002.7      46.7237      46.7237      46.7237 
  230000    91.244072   -8349.2782   -7791.1726   -695.41861     102002.7      46.7237      46.7237      46.7237 
  231000    90.595291   -8349.6533   -7795.5162   -669.91613     102002.7      46.7237      46.7237      46.7237 
  232000    89.603563   -8323.8765   -7775.8054    -691.0848     102002.7      46.7237      46.7237      46.7237 
  233000    91.938123   -8335.1239   -7772.7732    -567.4426     102002.7      46.7237      46.7237      46.7237 
  234000       89.877   -8340.2713   -7790.5276   -825.08716     102002.7      46.7237      46.7237      46.7237 
  235000    88.568286   -8341.2531   -7799.5144   -641.85228     102002.7      46.7237      46.7237      46.7237 
  236000    89.383511   -8324.7238   -7777.9987   -885.52658     102002.7      46.7237      46.7237      46.7237 
  237000    90.543849   -8319.9124   -7766.0899    -904.1231     102002.7      46.7237      46.7237      46.7237 
  238000    90.938478   -8330.7102   -7774.4739   -612.46934     102002.7      46.7237      46.7237      46.7237 
  239000    91.261828   -8350.1462   -7791.9321   -918.49521     102002.7      46.7237      46.7237      46.7237 
  240000    92.853308   -8327.0207   -7759.0721    -963.7802     102002.7      46.7237      46.7237      46.7237 
  241000    92.841206   -8347.0642   -7779.1896   -1010.1101     102002.7      46.7237      46.7237      46.7237 
  242000    88.601142   -8358.3419   -7816.4022   -1076.6635     102002.7      46.7237      46.7237      46.7237 
  243000    90.407095   -8330.0484   -7777.0624   -852.85725     102002.7      46.7237      46.7237      46.7237 
  244000     87.71045   -8356.7054   -7820.2137   -1179.5453     102002.7      46.7237      46.7237      46.7237 
  245000    92.135388   -8332.4148   -7768.8574   -929.47794     102002.7      46.7237      46.7237      46.7237 
  246000    87.492159   -8344.4961   -7809.3396   -848.26818     102002.7      46.7237      46.7237      46.7237 
  247000    89.729461   -8329.4052    -7780.564    -963.9229     102002.7      46.7237      46.7237      46.7237 
  248000    91.875065   -8349.9978   -7788.0328   -607.86653     102002.7      46.7237      46.7237      46.7237 
  249000     91.43544    -8335.151    -7775.875   -685.64101     102002.7      46.7237      46.7237      46.7237 
  250000    92.964337   -8337.5618    -7768.934   -840.52768     102002.7      46.7237      46.7237      46.7237 
  251000    89.270822   -8340.4042   -7794.3683   -585.17511     102002.7      46.7237      46.7237      46.7237 
  252000    93.410267   -8344.2556   -7772.9003   -948.78326     102002.7      46.7237      46.7237      46.7237 
  253000    90.978505   -8350.2573   -7793.7762   -852.77715     102002.7      46.7237      46.7237      46.7237 
  254000    93.013202    -8332.425   -7763.4984   -491.35424     102002.7      46.7237      46.7237      46.7237 
  255000    91.001083   -8344.6236   -7788.0043   -728.66275     102002.7      46.7237      46.7237      46.7237 
  256000     88.78042    -8339.736   -7796.6997   -812.22048     102002.7      46.7237      46.7237      46.7237 
  257000    93.052817   -8350.1774   -7781.0085   -972.82366     102002.7      46.7237      46.7237      46.7237 
  258000    91.994412   -8339.9867   -7777.2916   -967.51642     102002.7      46.7237      46.7237      46.7237 
  259000    90.197351   -8349.3033   -7797.6002   -796.21386     102002.7      46.7237      46.7237      46.7237 
  260000    90.219826   -8329.2742   -7777.4336   -905.89093     102002.7      46.7237      46.7237      46.7237 
  261000    92.092374   -8341.7933    -7778.499   -516.83954     102002.7      46.7237      46.7237      46.7237 
  262000    93.728005   -8323.1376   -7749.8388   -909.13197     102002.7      46.7237      46.7237      46.7237 
  263000    93.256652   -8339.0661   -7768.6503   -819.08919     102002.7      46.7237      46.7237      46.7237 
  264000     89.08479   -8348.1679   -7803.2699   -737.16891     102002.7      46.7237      46.7237      46.7237 
  265000    93.305332   -8337.9099   -7767.1964   -1059.1298     102002.7      46.7237      46.7237      46.7237 
  266000    91.593187   -8327.9421   -7767.7012   -610.57886     102002.7      46.7237      46.7237      46.7237 
  267000    91.516549   -8333.2824   -7773.5103   -677.60014     102002.7      46.7237      46.7237      46.7237 
  268000    90.807681   -8344.5244   -7789.0882   -752.83238     102002.7      46.7237      46.7237      46.7237 
  269000    92.066695   -8329.9287   -7766.7915   -760.20884     102002.7      46.7237      46.7237      46.7237 
  270000    90.349543   -8340.7276   -7788.0936   -574.94679     102002.7      46.7237      46.7237      46.7237 
  271000    89.287841   -8342.0189    -7795.879   -556.22998     102002.7      46.7237      46.7237      46.7237 
  272000    94.140171   -8336.1794   -7760.3596   -719.52894     102002.7      46.7237      46.7237      46.7237 
  273000    92.503934   -8329.1243   -7763.3127   -736.78976     102002.7      46.7237      46.7237      46.7237 
  274000    91.620041   -8344.5553   -7784.1501   -404.31127     102002.7      46.7237      46.7237      46.7237 
  275000    89.616479   -8343.6401     -7795.49   -650.60251     102002.7      46.7237      46.7237      46.7237 
  276000     90.24049   -8336.8033   -7784.8363   -647.61012     102002.7      46.7237      46.7237      46.7237 
  277000     92.67966    -8326.572   -7759.6855   -627.39722     102002.7      46.7237      46.7237      46.7237 
  278000    92.560589   -8333.7321    -7767.574   -785.32468     102002.7      46.7237      46.7237      46.7237 
  279000    93.190862   -8332.5989   -7762.5856   -899.68205     102002.7      46.7237      46.7237      46.7237 
  280000    90.420858   -8324.3953   -7771.3251   -777.98714     102002.7      46.7237      46.7237      46.7237 
  281000    87.770939   -8351.9016   -7815.0399    -827.7719     102002.7      46.7237      46.7237      46.7237 
  282000    91.637405   -8356.2264    -7795.715   -877.67748     102002.7      46.7237      46.7237      46.7237 
  283000    91.010158   -8339.7786   -7783.1039    -726.1358     102002.7      46.7237      46.7237      46.7237 
  284000    87.706707   -8345.1258    -7808.657   -1039.9607     102002.7      46.7237      46.7237      46.7237 
  285000    89.902445   -8338.8491   -7788.9498    -766.2431     102002.7      46.7237      46.7237      46.7237 
  286000     89.42121   -8330.7111   -7783.7553    -916.7854     102002.7      46.7237      46.7237      46.7237 
  287000    91.486627   -8341.8717   -7782.2826   -626.22036     102002.7      46.7237      46.7237      46.7237 
  288000    90.116557   -8327.1858   -7775.9769    -835.5323     102002.7      46.7237      46.7237      46.7237 
  289000    91.681984   -8348.9829   -7788.1988   -883.85034     102002.7      46.7237      46.7237      46.7237 
  290000     91.68571   -8341.3755   -7780.5687   -845.46117     102002.7      46.7237      46.7237      46.7237 
  291000    90.134044   -8342.4977   -7791.1818   -820.76199     102002.7      46.7237      46.7237      46.7237 
  292000    90.523157   -8320.0801   -7766.3841   -972.67662     102002.7      46.7237      46.7237      46.7237 
  293000    91.138454   -8341.0372   -7783.5777   -708.62372     102002.7      46.7237      46.7237      46.7237 
  294000    91.936855   -8342.6437   -7780.3007   -732.81055     102002.7      46.7237      46.7237      46.7237 
  295000     92.28471   -8323.7317    -7759.261   -726.16628     102002.7      46.7237      46.7237      46.7237 
  296000    91.464767   -8344.3718   -7784.9164   -888.99314     102002.7      46.7237      46.7237      46.7237 
  297000    93.610616   -8327.5384   -7754.9577   -860.65047     102002.7      46.7237      46.7237      46.7237 
  298000    92.679096   -8356.3901   -7789.5071   -450.41903     102002.7      46.7237      46.7237      46.7237 
  299000    91.579969   -8349.2579   -7789.0978   -913.54464     102002.7      46.7237      46.7237      46.7237 
  300000     90.18215   -8332.2504   -7780.6402   -743.30928     102002.7      46.7237      46.7237      46.7237 
  301000    89.563095   -8316.7281   -7768.9044   -788.56167     102002.7      46.7237      46.7237      46.7237 
  302000    88.366349   -8328.2373   -7787.7338   -733.80475     102002.7      46.7237      46.7237      46.7237 
  303000    89.826528   -8325.0267   -7775.5918   -924.51725     102002.7      46.7237      46.7237      46.7237 
  304000    90.789472   -8329.6252   -7774.3003   -706.53303     102002.7      46.7237      46.7237      46.7237 
  305000    92.163801   -8350.1548   -7786.4237   -678.57989     102002.7      46.7237      46.7237      46.7237 
  306000    90.527146   -8339.9406   -7786.2203   -896.68281     102002.7      46.7237      46.7237      46.7237 
  307000    92.366391   -8329.4151   -7764.4448   -739.75016     102002.7      46.7237      46.7237      46.7237 
  308000     92.99191   -8331.8802   -7763.0838   -763.10762     102002.7      46.7237      46.7237      46.7237 
  309000    93.224442   -8335.4269   -7765.2082   -586.93581     102002.7      46.7237      46.7237      46.7237 
  310000    87.958109   -8346.4886   -7808.4821   -686.62165     102002.7      46.7237      46.7237      46.7237 
  311000    89.676182   -8329.7161   -7781.2008   -666.97806     102002.7      46.7237      46.7237      46.7237 
  312000    93.294918   -8326.6725   -7756.0227   -671.12548     102002.7      46.7237      46.7237      46.7237 
  313000    88.172527   -8338.4308   -7799.1127   -598.93809     102002.7      46.7237      46.7237      46.7237 
  314000    93.891188    -8332.526   -7758.2291   -733.49544     102002.7      46.7237      46.7237      46.7237 
  315000    93.170338   -8347.2859   -7777.3982   -657.38547     102002.7      46.7237      46.7237      46.7237 
  316000    90.428437   -8338.5434   -7785.4268   -794.68665     102002.7      46.7237      46.7237      46.7237 
  317000    89.973593   -8331.5934   -7781.2589   -1014.6147     102002.7      46.7237      46.7237      46.7237 
  318000     91.66415   -8329.7273   -7769.0523    -677.5321     102002.7      46.7237      46.7237      46.7237 
  319000    88.432831   -8336.9003   -7795.9901    -962.7742     102002.7      46.7237      46.7237      46.7237 
  320000    90.662465   -8339.3228   -7784.7748   -914.86743     102002.7      46.7237      46.7237      46.7237 
  321000     92.58759   -8341.3094   -7774.9861   -1008.9832     102002.7      46.7237      46.7237      46.7237 
  322000    89.969713    -8329.776   -7779.4653   -895.42491     102002.7      46.7237      46.7237      46.7237 
  323000    89.589979   -8315.4553   -7767.4672   -775.74206     102002.7      46.7237      46.7237      46.7237 
  324000    89.476854   -8336.1115   -7788.8154   -858.14571     102002.7      46.7237      46.7237      46.7237 
  325000    93.518552   -8327.7097   -7755.6921   -703.58663     102002.7      46.7237      46.7237      46.7237 
  326000     89.91704   -8330.8379   -7780.8493    -848.9476     102002.7      46.7237      46.7237      46.7237 
  327000     89.47323    -8336.312    -7789.038   -636.85605     102002.7      46.7237      46.7237      46.7237 
  328000     88.86175   -8314.8409   -7771.3071   -793.36183     102002.7      46.7237      46.7237      46.7237 
  329000    90.958773   -8341.3171   -7784.9566   -743.32814     102002.7      46.7237      46.7237      46.7237 
  330000    92.230193   -8327.8789   -7763.7417   -913.99505     102002.7      46.7237      46.7237      46.7237 
  331000     90.65475   -8355.1867   -7800.6858   -890.71538     102002.7      46.7237      46.7237      46.7237 
  332000    90.666898   -8321.3078   -7766.7326   -811.88736     102002.7      46.7237      46.7237      46.7237 
  333000    89.509551   -8331.1536   -7783.6574    -604.4449     102002.7      46.7237      46.7237      46.7237 
  334000    92.304087   -8350.6838   -7786.0946   -749.58056     102002.7      46.7237      46.7237      46.7237 
  335000    93.723517    -8326.792   -7753.5206   -858.38913     102002.7      46.7237      46.7237      46.7237 
  336000    91.762904   -8333.6713   -7772.3923   -596.39729     102002.7      46.7237      46.7237      46.7237 
  337000    87.562383   -8322.9945   -7787.4085   -735.05555     102002.7      46.7237      46.7237      46.7237 
  338000    89.419791   -8340.2719   -7793.3248   -647.65308     102002.7      46.7237      46.7237      46.7237 
  339000    89.962522   -8336.2982   -7786.0314   -820.37568     102002.7      46.7237      46.7237      46.7237 
  340000    90.901211   -8357.3976   -7801.3892   -687.62331     102002.7      46.7237      46.7237      46.7237 
  341000    92.906171   -8321.4708   -7753.1988   -532.09881     102002.7      46.7237      46.7237      46.7237 
  342000    94.626465   -8338.6423   -7759.8479   -661.77255     102002.7      46.7237      46.7237      46.7237 
  343000    93.281324   -8342.1396   -7771.5729   -958.76711     102002.7      46.7237      46.7237      46.7237 
  344000    91.198984   -8348.1455   -7790.3158   -1091.6945     102002.7      46.7237      46.7237      46.7237 
  345000     91.70149   -8369.4406   -7808.5372   -593.67943     102002.7      46.7237      46.7237      46.7237 
  346000    91.291512    -8343.547   -7785.1513   -814.55328     102002.7      46.7237      46.7237      46.7237 
  347000    94.937133   -8343.3243   -7762.6298   -879.03029     102002.7      46.7237      46.7237      46.7237 
  348000    89.623749   -8334.3544   -7786.1598    -1005.539     102002.7      46.7237      46.7237      46.7237 
  349000    91.434525   -8348.3404   -7789.0699   -693.01939     102002.7      46.7237      46.7237      46.7237 
  350000     93.87921   -8335.1425   -7760.9189   -737.02033     102002.7      46.7237      46.7237      46.7237 
  351000      89.7807   -8333.7855   -7784.6309   -938.44669     102002.7      46.7237      46.7237      46.7237 
  352000    88.983093   -8330.5799   -7786.3039   -677.05781     102002.7      46.7237      46.7237      46.7237 
  353000      92.1523   -8345.9218    -7782.261   -734.34226     102002.7      46.7237      46.7237      46.7237 
  354000     87.99985   -8325.6307   -7787.3689   -1086.0038     102002.7      46.7237      46.7237      46.7237 
  355000    92.748215   -8332.0389   -7764.7331   -830.68274     102002.7      46.7237      46.7237      46.7237 
  356000    94.334282   -8329.1563   -7752.1492   -708.43026     102002.7      46.7237      46.7237      46.7237 
  357000    89.652017   -8329.0712   -7780.7037   -927.10429     102002.7      46.7237      46.7237      46.7237 
  358000    89.612808   -8346.3031   -7798.1755   -673.83545     102002.7      46.7237      46.7237      46.7237 
  359000    93.734321    -8350.603   -7777.2656   -785.09909     102002.7      46.7237      46.7237      46.7237 
  360000    87.039235   -8321.2766   -7788.8905   -620.56793     102002.7      46.7237      46.7237      46.7237 
  361000    88.698515    -8318.592   -7776.0567   -719.43013     102002.7      46.7237      46.7237      46.7237 
  362000    89.711005   -8353.0607   -7804.3324   -877.57584     102002.7      46.7237      46.7237      46.7237 
  363000    91.271594   -8345.9527   -7787.6789   -740.59451     102002.7      46.7237      46.7237      46.7237 
  364000    91.219321   -8348.1483   -7790.1941   -820.05887     102002.7      46.7237      46.7237      46.7237 
  365000    89.023316   -8321.8437   -7777.3217    -533.6957     102002.7      46.7237      46.7237      46.7237 
  366000    91.303081   -8335.4327   -7776.9663    -629.6647     102002.7      46.7237      46.7237      46.7237 
  367000    89.101716   -8328.9683   -7783.9668    -712.7474     102002.7      46.7237      46.7237      46.7237 
  368000    90.901616   -8338.8411   -7782.8303   -794.83628     102002.7      46.7237      46.7237      46.7237 
  369000    88.651095   -8356.5922    -7814.347   -765.58648     102002.7      46.7237      46.7237      46.7237 
  370000    91.374576   -8323.4444   -7764.5406   -824.26865     102002.7      46.7237      46.7237      46.7237 
  371000    89.596389   -8334.2614   -7786.2341    -968.5122     102002.7      46.7237      46.7237      46.7237 
  372000    91.583401   -8348.8819   -7788.7008   -993.89484     102002.7      46.7237      46.7237      46.7237 
  373000    92.991564   -8332.3274   -7763.5331   -615.41613     102002.7      46.7237      46.7237      46.7237 
  374000    92.420748   -8332.8375   -7767.5347   -932.75511     102002.7      46.7237      46.7237      46.7237 
  375000    89.871232     -8338.61   -7788.9016   -826.64141     102002.7      46.7237      46.7237      46.7237 
  376000    89.015917   -8352.8437   -7808.3669   -702.82329     102002.7      46.7237      46.7237      46.7237 
  377000    92.646248    -8345.713   -7779.0309   -747.31413     102002.7      46.7237      46.7237      46.7237 
  378000    93.637434   -8339.9208   -7767.1759    -601.4154     102002.7      46.7237      46.7237      46.7237 
  379000    88.982354   -8331.1219   -7786.8504   -649.27594     102002.7      46.7237      46.7237      46.7237 
  380000    90.241897   -8345.0393   -7793.0637   -604.73269     102002.7      46.7237      46.7237      46.7237 
  381000    87.753452   -8323.8629   -7787.1082    -707.1311     102002.7      46.7237      46.7237      46.7237 
  382000    92.225945     -8314.87   -7750.7587   -837.18727     102002.7      46.7237      46.7237      46.7237 
  383000    91.192548   -8331.2816   -7773.4912   -589.29521     102002.7      46.7237      46.7237      46.7237 
  384000     88.55282    -8341.245   -7799.6008   -700.23881     102002.7      46.7237      46.7237      46.7237 
  385000    92.310363   -8351.6537   -7787.0261   -799.60006     102002.7      46.7237      46.7237      46.7237 
  386000    92.639224   -8315.0375   -7748.3984   -748.87581     102002.7      46.7237      46.7237      46.7237 
  387000    89.670344   -8325.8875   -7777.4078   -652.96252     102002.7      46.7237      46.7237      46.7237 
  388000    93.665995    -8318.267   -7745.3475   -823.33034     102002.7      46.7237      46.7237      46.7237 
  389000     90.75722   -8324.3476   -7769.2199   -544.16861     102002.7      46.7237      46.7237      46.7237 
  390000    90.333405   -8346.1715   -7793.6362   -907.75054     102002.7      46.7237      46.7237      46.7237 
  391000    91.002406   -8333.9475   -7777.3202   -800.06381     102002.7      46.7237      46.7237      46.7237 
  392000      88.6505   -8358.2023   -7815.9607   -781.81694     102002.7      46.7237      46.7237      46.7237 
  393000    93.137091   -8331.5556   -7761.8712   -801.18169     102002.7      46.7237      46.7237      46.7237 
  394000    92.407155   -8332.9127    -7767.693   -734.75795     102002.7      46.7237      46.7237      46.7237 
  395000    89.928917   -8326.6244   -7776.5632   -859.14904     102002.7      46.7237      46.7237      46.7237 
  396000    91.518494   -8362.2351    -7802.451   -659.42054     102002.7      46.7237      46.7237      46.7237 
  397000     90.13127   -8336.6395   -7785.3406   -552.90515     102002.7      46.7237      46.7237      46.7237 
  398000     88.96934   -8330.2701   -7786.0783   -906.21842     102002.7      46.7237      46.7237      46.7237 
  399000    88.575762   -8322.1735    -7780.389   -718.77631     102002.7      46.7237      46.7237      46.7237 
  400000    90.419879   -8325.0711   -7772.0068   -735.69831     102002.7      46.7237      46.7237      46.7237 
  401000    90.101996   -8322.5812   -7771.4613   -717.06237     102002.7      46.7237      46.7237      46.7237 
  402000    91.793434   -8343.9722   -7782.5064   -738.06725     102002.7      46.7237      46.7237      46.7237 
  403000    90.737821    -8351.075   -7796.0661   -975.26319     102002.7      46.7237      46.7237      46.7237 
  404000    90.616177   -8343.0366   -7788.7717    -1018.427     102002.7      46.7237      46.7237      46.7237 
  405000    91.641848   -8344.3334   -7783.7949   -895.89588     102002.7      46.7237      46.7237      46.7237 
  406000     87.79502   -8336.8623   -7799.8533   -1007.7924     102002.7      46.7237      46.7237      46.7237 
  407000    90.663488   -8353.2261   -7798.6718   -669.03828     102002.7      46.7237      46.7237      46.7237 
  408000    91.136661   -8346.7127   -7789.2642   -977.54691     102002.7      46.7237      46.7237      46.7237 
  409000    91.047989   -8323.3454   -7766.4393   -741.00485     102002.7      46.7237      46.7237      46.7237 
  410000    90.007772   -8336.8076   -7786.2641   -792.99483     102002.7      46.7237      46.7237      46.7237 
  411000    90.792372    -8316.732   -7761.3894   -921.95858     102002.7      46.7237      46.7237      46.7237 
  412000    88.712626   -8332.3165   -7789.6949   -632.08989     102002.7      46.7237      46.7237      46.7237 
  413000    91.261628   -8338.0905   -7779.8776   -994.75249     102002.7      46.7237      46.7237      46.7237 
  414000    91.816054   -8337.3567   -7775.7526   -770.45259     102002.7      46.7237      46.7237      46.7237 
  415000    90.430673   -8327.9621   -7774.8318   -823.58127     102002.7      46.7237      46.7237      46.7237 
  416000     89.97329   -8348.8163   -7798.4837   -1006.4271     102002.7      46.7237      46.7237      46.7237 
  417000    92.038306   -8330.6654   -7767.7018   -606.99596     102002.7      46.7237      46.7237      46.7237 
  418000    89.891288   -8341.5418   -7791.7107   -846.78479     102002.7      46.7237      46.7237      46.7237 
  419000    92.523762   -8334.0932   -7768.1603   -930.70833     102002.7      46.7237      46.7237      46.7237 
  420000    91.653574   -8346.8156   -7786.2053   -728.83113     102002.7      46.7237      46.7237      46.7237 
  421000    90.023119   -8344.9132   -7794.2758   -856.12434     102002.7      46.7237      46.7237      46.7237 
  422000    92.842923   -8341.5998   -7773.7147   -705.64096     102002.7      46.7237      46.7237      46.7237 
  423000    89.996177   -8342.9095   -7792.4369   -892.45942     102002.7      46.7237      46.7237      46.7237 
  424000    92.662471   -8359.1621   -7792.3807   -1000.4188     102002.7      46.7237      46.7237      46.7237 
  425000    89.640722   -8338.0617   -7789.7633   -581.80077     102002.7      46.7237      46.7237      46.7237 
  426000    92.452161   -8312.5732   -7747.0783   -1065.9649     102002.7      46.7237      46.7237      46.7237 
  427000    89.482907   -8337.0067   -7789.6735   -768.73218     102002.7      46.7237      46.7237      46.7237 
  428000     89.58109   -8335.7944   -7787.8607   -758.33877     102002.7      46.7237      46.7237      46.7237 
  429000    92.120615    -8332.195    -7768.728    -993.1433     102002.7      46.7237      46.7237      46.7237 
  430000     88.70028   -8325.0399   -7782.4938   -636.41187     102002.7      46.7237      46.7237      46.7237 
  431000    91.695185   -8343.2107   -7782.3459   -971.11747     102002.7      46.7237      46.7237      46.7237 
  432000     88.97608   -8360.6353   -7816.4022   -669.32691     102002.7      46.7237      46.7237      46.7237 
  433000    87.577433    -8322.751   -7787.0729   -754.15153     102002.7      46.7237      46.7237      46.7237 
  434000    91.966685   -8323.3645    -7760.839   -905.88922     102002.7      46.7237      46.7237      46.7237 
  435000    92.698951   -8345.7662   -7778.7617   -974.86343     102002.7      46.7237      46.7237      46.7237 
  436000    90.076397   -8335.8979   -7784.9346    -937.8907     102002.7      46.7237      46.7237      46.7237 
  437000    92.196378   -8319.8056   -7755.8752    -687.8037     102002.7      46.7237      46.7237      46.7237 
  438000    90.959746   -8322.7309   -7766.3645   -871.70972     102002.7      46.7237      46.7237      46.7237 
  439000    93.463289   -8316.1315   -7744.4519   -971.46631     102002.7      46.7237      46.7237      46.7237 
  440000    89.467451   -8335.2709   -7788.0323   -709.27119     102002.7      46.7237      46.7237      46.7237 
  441000    91.803288   -8336.3583   -7774.8323   -1187.5617     102002.7      46.7237      46.7237      46.7237 
  442000    91.185865   -8344.1709   -7786.4214    -549.5125     102002.7      46.7237      46.7237      46.7237 
  443000    95.016626   -8325.5927   -7744.4119   -847.49493     102002.7      46.7237      46.7237      46.7237 
  444000    89.286973   -8320.8302   -7774.6955   -866.94396     102002.7      46.7237      46.7237      46.7237 
  445000    90.011108   -8324.6473   -7774.0834   -707.57614     102002.7      46.7237      46.7237      46.7237 
  446000    89.944245   -8315.7786   -7765.6236   -819.71016     102002.7      46.7237      46.7237      46.7237 
  447000    87.707045    -8353.696   -7817.2252   -317.79726     102002.7      46.7237      46.7237      46.7237 
  448000    92.458464   -8336.9035     -7771.37   -930.69856     102002.7      46.7237      46.7237      46.7237 
  449000    91.341978    -8346.679   -7787.9746   -628.82816     102002.7      46.7237      46.7237      46.7237 
  450000    91.978061   -8373.2204   -7810.6253   -600.93848     102002.7      46.7237      46.7237      46.7237 
  451000    92.125607   -8333.5161   -7770.0186   -1216.9312     102002.7      46.7237      46.7237      46.7237 
  452000    89.291903   -8342.8563   -7796.6915    -708.0971     102002.7      46.7237      46.7237      46.7237 
  453000    86.922467   -8343.7707   -7812.0988   -1136.0081     102002.7      46.7237      46.7237      46.7237 
  454000    93.033464   -8341.2596    -7772.209   -827.65951     102002.7      46.7237      46.7237      46.7237 
  455000    91.567254    -8330.057   -7769.9747   -807.60396     102002.7      46.7237      46.7237      46.7237 
  456000    90.121964   -8314.0388   -7762.7968   -786.38227     102002.7      46.7237      46.7237      46.7237 
  457000    91.892308    -8350.868   -7788.7975   -652.85576     102002.7      46.7237      46.7237      46.7237 
  458000    92.240204   -8336.3421   -7772.1437   -922.72544     102002.7      46.7237      46.7237      46.7237 
  459000    93.669701   -8337.9508   -7765.0086   -753.91754     102002.7      46.7237      46.7237      46.7237 
  460000    92.738166   -8318.9685   -7751.7242   -676.47279     102002.7      46.7237      46.7237      46.7237 
  461000    90.997605   -8342.4809   -7785.8829   -813.96487     102002.7      46.7237      46.7237      46.7237 
  462000    91.366698   -8328.5543   -7769.6987   -523.85731     102002.7      46.7237      46.7237      46.7237 
  463000    91.383149   -8339.0839   -7780.1277   -575.51271     102002.7      46.7237      46.7237      46.7237 
  464000    90.266453   -8347.1641   -7795.0383   -720.36397     102002.7      46.7237      46.7237      46.7237 
  465000    89.666628    -8342.906   -7794.4491   -698.35114     102002.7      46.7237      46.7237      46.7237 
  466000    91.605339   -8334.6926   -7774.3773   -572.25959     102002.7      46.7237      46.7237      46.7237 
  467000    89.488471   -8331.5622    -7784.195   -466.66168     102002.7      46.7237      46.7237      46.7237 
  468000    87.551789   -8315.4241   -7779.9029   -786.40178     102002.7      46.7237      46.7237      46.7237 
  469000    90.205509   -8357.0503   -7805.2973   -967.53124     102002.7      46.7237      46.7237      46.7237 
  470000    91.461529   -8341.2575   -7781.8219   -663.09386     102002.7      46.7237      46.7237      46.7237 
  471000    91.885682   -8348.8209   -7786.7909    -708.6438     102002.7      46.7237      46.7237      46.7237 
  472000    93.726979   -8337.5631   -7764.2706   -858.14379     102002.7      46.7237      46.7237      46.7237 
  473000     90.06694   -8342.8582   -7791.9528   -737.54589     102002.7      46.7237      46.7237      46.7237 
  474000    92.471837   -8326.9944   -7761.3791   -844.47921     102002.7      46.7237      46.7237      46.7237 
  475000    89.306709   -8334.9683   -7788.7128   -738.85326     102002.7      46.7237      46.7237      46.7237 
  476000     89.62217   -8330.4234   -7782.2385   -714.53116     102002.7      46.7237      46.7237      46.7237 
  477000     89.26358   -8324.0422   -7778.0506   -806.27812     102002.7      46.7237      46.7237      46.7237 
  478000    93.290911   -8353.3522   -7782.7269   -722.83007     102002.7      46.7237      46.7237      46.7237 
  479000    92.506631   -8340.4118   -7774.5837   -690.96726     102002.7      46.7237      46.7237      46.7237 
  480000    90.339481   -8351.3684   -7798.7959   -810.65636     102002.7      46.7237      46.7237      46.7237 
  481000    88.330885   -8328.9214   -7788.6348   -761.10574     102002.7      46.7237      46.7237      46.7237 
  482000    91.910657   -8342.1125   -7779.9298   -649.83172     102002.7      46.7237      46.7237      46.7237 
  483000      91.4789   -8331.5846   -7772.0427   -737.31771     102002.7      46.7237      46.7237      46.7237 
  484000    92.132849   -8325.7978    -7762.256   -881.49058     102002.7      46.7237      46.7237      46.7237 
  485000    92.332751   -8337.0404   -7772.2758   -1043.6872     102002.7      46.7237      46.7237      46.7237 
  486000     88.70134   -8337.0144   -7794.4618   -1102.7923     102002.7      46.7237      46.7237      46.7237 
  487000     93.65817   -8348.7285   -7775.8569   -1068.8309     102002.7      46.7237      46.7237      46.7237 
  488000    91.085491    -8330.996   -7773.8604   -1091.3039     102002.7      46.7237      46.7237      46.7237 
  489000    87.727846   -8322.4025   -7785.8045   -1050.1323     102002.7      46.7237      46.7237      46.7237 
  490000    93.379718   -8329.9175   -7758.7491   -1212.5177     102002.7      46.7237      46.7237      46.7237 
  491000    90.231355   -8359.1345   -7807.2234   -1019.0812     102002.7      46.7237      46.7237      46.7237 
  492000    92.718547   -8336.2356   -7769.1113   -955.90487     102002.7      46.7237      46.7237      46.7237 
  493000    89.858732   -8344.6198   -7794.9879   -767.56952     102002.7      46.7237      46.7237      46.7237 
  494000    92.181031   -8328.4691   -7764.6326   -624.50113     102002.7      46.7237      46.7237      46.7237 
  495000    91.432246   -8353.5195    -7794.263   -659.35796     102002.7      46.7237      46.7237      46.7237 
  496000    88.742135   -8342.5398   -7799.7377   -993.14983     102002.7      46.7237      46.7237      46.7237 
  497000    91.405495   -8333.5841   -7774.4913    -803.0003     102002.7      46.7237      46.7237      46.7237 
  498000    91.015516   -8344.1637   -7787.4562    -778.3638     102002.7      46.7237      46.7237      46.7237 
  499000    93.025091   -8326.0219   -7757.0225   -730.38325     102002.7      46.7237      46.7237      46.7237 
  500000    88.876559   -8316.8564    -7773.232   -778.08784     102002.7      46.7237      46.7237      46.7237 
  500501    90.870057   -8331.1644   -7775.3466   -683.56215     102002.7      46.7237      46.7237      46.7237 
Loop time of 1369.83 on 16 procs for 500000 steps with 2053 atoms

Performance: 31.537 ns/day, 0.761 hours/ns, 365.008 timesteps/s
99.8% CPU use with 16 MPI tasks x no OpenMP threads

MPI task timing breakdown:
Section |  min time  |  avg time  |  max time  |%varavg| %total
---------------------------------------------------------------
Pair    | 576.42     | 775.31     | 974.98     | 454.2 | 56.60
Bond    | 159.09     | 174.37     | 187.98     |  63.7 | 12.73
Neigh   | 6.2439     | 6.2849     | 6.3256     |   1.0 |  0.46
Comm    | 193.53     | 400.15     | 590.78     | 615.7 | 29.21
Output  | 0.020317   | 0.02077    | 0.023333   |   0.5 |  0.00
Modify  | 7.1832     | 8.2851     | 9.0849     |  22.2 |  0.60
Other   |            | 5.416      |            |       |  0.40

Nlocal:    128.312 ave 160 max 102 min
Histogram: 2 0 3 2 2 2 3 0 1 1
Nghost:    2565.94 ave 2594 max 2525 min
Histogram: 1 0 2 1 3 0 3 2 1 3
Neighs:    11449.4 ave 16207 max 7597 min
Histogram: 2 0 3 3 2 3 0 0 1 2

Total # of neighbors = 183190
Ave neighs/atom = 89.2304
Ave special neighs/atom = 5.6113
Neighbor list builds = 3874
Dangerous builds = 0
Neighbor list info ...
  update every 1 steps, delay 10 steps, check yes
  max neighbors/atom: 2000, page size: 100000
  master list distance cutoff = 16
  ghost atom cutoff = 16
  binsize = 8, bins = 6 6 6
  3 neighbor lists, perpetual/occasional/extra = 3 0 0
  (1) pair buck6d/coul/gauss/dsf, perpetual, skip from (3)
      attributes: half, newton on
      pair build: skip
      stencil: none
      bin: none
  (2) pair lj/cut, perpetual, skip from (3)
      attributes: half, newton on
      pair build: skip
      stencil: none
      bin: none
  (3) neighbor class addition, perpetual
      attributes: half, newton on
      pair build: half/bin/newton
      stencil: half/bin/3d/newton
      bin: standard
Setting up Verlet run ...
  Unit style    : real
  Current step  : 500501
  Time step     : 1
WARNING: Inconsistent image flags (../domain.cpp:786)
Per MPI rank memory allocation (min/avg/max) = 22.71 | 23.26 | 23.36 Mbytes
Step Time TotEng KinEng PotEng E_mol E_pair Temp Pxx Pyy Pzz Pxy Pxz Pyz Cella Cellb Cellc CellAlpha CellBeta CellGamma Volume Press 
  500501       500000   -7775.3466    555.81781   -8331.1644    4197.4347   -12528.599    90.870057   -439.84523   -832.81311    -778.0281   -53.718972   -70.414835    19.655562      46.7237      46.7237      46.7237           90           90           90     102002.7   -683.56215 
  501000       500499   -7767.4714    564.42982   -8331.9012    4207.7878   -12539.689    92.278025   -524.47448   -829.71398   -715.22074   -158.54545    20.038893   -89.359974      46.7237      46.7237      46.7237           90           90           90     102002.7   -689.80306 
  502000       501499   -7782.9327    551.06714   -8333.9999    4193.1718   -12527.172    90.093375   -487.22483   -989.10685   -464.62838    2.9664852    84.050694   -65.725257      46.7237      46.7237      46.7237           90           90           90     102002.7   -646.98669 
  503000       502499   -7778.5298    562.76819    -8341.298    4186.2698   -12527.568    92.006367   -755.04939    -984.8319   -323.62552    240.13543   -74.910543   -23.109503      46.7237      46.7237      46.7237           90           90           90     102002.7    -687.8356 
  504000       503499    -7780.887     553.7276   -8334.6146    4198.7167   -12533.331    90.528331   -602.27237   -393.21691   -547.39554   -117.81211   -68.353155     212.9423      46.7237      46.7237      46.7237           90           90           90     102002.7   -514.29494 
  505000       504499   -7779.0412    553.45409   -8332.4953    4193.7544    -12526.25    90.483614   -436.71559   -924.21218   -336.76021    231.48843   -177.28266    105.03142      46.7237      46.7237      46.7237           90           90           90     102002.7   -565.89599 
  506000       505499   -7768.3733    558.58891   -8326.9622    4214.1222   -12541.084    91.323101   -432.41779   -667.40424   -234.35774   -151.59729    162.06805    129.69676      46.7237      46.7237      46.7237           90           90           90     102002.7   -444.72659 
  507000       506499   -7772.2102     558.3719   -8330.5821    4200.4333   -12531.015    91.287622   -554.48972   -602.29994   -883.27772   -59.334095    35.281606   -195.15344      46.7237      46.7237      46.7237           90           90           90     102002.7   -680.02246 
  508000       507499   -7753.1749    572.81539   -8325.9903    4197.0539   -12523.044    93.648974   -741.50356   -706.81553   -589.73311     249.5969   -16.569519   -30.051381      46.7237      46.7237      46.7237           90           90           90     102002.7   -679.35073 
  509000       508499   -7779.0031    566.77329   -8345.7764    4204.7422   -12550.519    92.661156   -628.50784    -1007.094   -743.62733   -170.09735   -25.319489    24.707745      46.7237      46.7237      46.7237           90           90           90     102002.7   -793.07639 
  510000       509499   -7780.4704    560.62437   -8341.0947    4184.0076   -12525.102    91.655876   -1193.4946   -941.93591     -966.448   -70.338976   -150.81722   -41.313816      46.7237      46.7237      46.7237           90           90           90     102002.7   -1033.9595 
  511000       510499   -7797.4311    552.05338   -8349.4845    4195.6393   -12545.124    90.254615    -559.1247   -966.44128   -440.37315   -54.356207    7.9712995   -76.301809      46.7237      46.7237      46.7237           90           90           90     102002.7   -655.31304 
  512000       511499   -7780.5339    560.60869   -8341.1426     4199.887    -12541.03    91.653313   -706.56698    -756.8733   -570.11926   -225.59718    10.135355   -262.23958      46.7237      46.7237      46.7237           90           90           90     102002.7   -677.85318 
  513000       512499   -7764.6833    556.76207   -8321.4454    4214.6818   -12536.127    91.024433    -952.8474   -649.87444   -701.46597   -55.602466    172.52678    8.7081913      46.7237      46.7237      46.7237           90           90           90     102002.7    -768.0626 
  514000       513499   -7776.4449    558.90438   -8335.3493    4209.9228   -12545.272    91.374677   -823.17493   -400.71034   -841.04171    129.23152    196.98639    237.14655      46.7237      46.7237      46.7237           90           90           90     102002.7     -688.309 
  515000       514499   -7776.3589    549.01171   -8325.3706    4218.0869   -12543.458    89.757335   -832.94019   -981.18875   -420.70655    269.92443     28.39016   -39.534996      46.7237      46.7237      46.7237           90           90           90     102002.7   -744.94516 
  516000       515499   -7776.8779    569.65145   -8346.5294    4184.8867   -12531.416    93.131704   -496.43573    -981.9915   -551.18847   -87.389657    50.157547   -1.1055299      46.7237      46.7237      46.7237           90           90           90     102002.7   -676.53857 
  517000       516499   -7769.5372    561.53265   -8331.0698    4184.3737   -12515.444     91.80437   -706.01308   -967.04743   -774.86627   -9.5127352     173.1651    52.450494      46.7237      46.7237      46.7237           90           90           90     102002.7   -815.97559 
  518000       517499   -7765.5122    573.37653   -8338.8887    4201.2271   -12540.116    93.740714   -822.35179    -695.3653   -608.92094   -57.286541    55.744302   -190.87177      46.7237      46.7237      46.7237           90           90           90     102002.7   -708.87935 
  519000       518499   -7796.7989    543.91131   -8340.7103    4186.6929   -12527.403    88.923476   -982.24777   -832.30421   -860.60308   -28.759607   -64.767746    13.141302      46.7237      46.7237      46.7237           90           90           90     102002.7   -891.71835 
  520000       519499   -7792.6653    549.14109   -8341.8064    4175.1351   -12516.941    89.778487   -894.88526   -878.47479   -639.71854   -23.871478   -49.350227    27.960925      46.7237      46.7237      46.7237           90           90           90     102002.7   -804.35953 
  521000       520499   -7774.5269    548.05947   -8322.5863    4213.4536    -12536.04    89.601654   -1019.4978   -898.13332   -552.41172    168.91566    32.726371    65.760765      46.7237      46.7237      46.7237           90           90           90     102002.7    -823.3476 
  522000       521499   -7786.4009    556.61172   -8343.0126    4183.3503   -12526.363    90.999852   -338.94384   -953.62518   -1324.8619    221.54048   -213.91224   -42.818501      46.7237      46.7237      46.7237           90           90           90     102002.7   -872.47698 
  523000       522499   -7791.7558    557.56153   -8349.3173    4182.0301   -12531.347    91.155136   -824.68604   -1147.0708   -557.33948    130.90725     115.1039    201.31929      46.7237      46.7237      46.7237           90           90           90     102002.7   -843.03209 
  524000       523499   -7759.4551    560.26748   -8319.7226    4215.3409   -12535.064    91.597528    -533.3389   -794.45159   -861.61395    48.073094    23.926526   -180.87535      46.7237      46.7237      46.7237           90           90           90     102002.7   -729.80148 
  525000       524499   -7772.4848    565.74961   -8338.2344    4167.6936   -12505.928    92.493797   -266.81111   -624.68743   -461.04064   -82.184439   -22.862498   -339.02291      46.7237      46.7237      46.7237           90           90           90     102002.7    -450.8464 
  526000       525499   -7797.7837    545.06541   -8342.8491    4200.8554   -12543.704    89.112159   -722.89506   -605.26667   -736.39465    192.46047   -113.22031    253.86556      46.7237      46.7237      46.7237           90           90           90     102002.7   -688.18546 
  527000       526499   -7766.1959    573.12084   -8339.3168    4183.8563   -12523.173    93.698911   -1032.3676    -879.2908   -587.17352    163.63884   -133.19916    40.701953      46.7237      46.7237      46.7237           90           90           90     102002.7   -832.94398 
  528000       527499    -7766.761    559.79745   -8326.5584    4201.8131   -12528.372    91.520684     -811.411    -590.7757   -873.64468    83.237093   -17.760752   -262.45855      46.7237      46.7237      46.7237           90           90           90     102002.7   -758.61046 
  529000       528499   -7789.7607    551.25679   -8341.0175    4193.7541   -12534.772     90.12438   -938.31668   -1100.9509     -680.198    -129.4541   -30.446968   -73.068852      46.7237      46.7237      46.7237           90           90           90     102002.7   -906.48852 
  530000       529499   -7766.4734    564.40881   -8330.8822    4179.6935   -12510.576    92.274591   -481.99317   -421.60653   -928.03931    39.750051     193.6024   -162.56895      46.7237      46.7237      46.7237           90           90           90     102002.7   -610.54634 
  531000       530499   -7764.3074    572.70113   -8337.0085    4192.2791   -12529.288    93.630293   -447.84902   -639.59355   -638.93762    11.735063   -20.494362   -85.550587      46.7237      46.7237      46.7237           90           90           90     102002.7   -575.46006 
  532000       531499   -7770.7234    561.80605   -8332.5294    4173.2995   -12505.829    91.849068   -993.84958   -586.09464   -830.69409   -90.317427    33.038792   -24.569454      46.7237      46.7237      46.7237           90           90           90     102002.7    -803.5461 
  533000       532499   -7778.5228    555.37398   -8333.8967     4207.833    -12541.73    90.797496   -995.03139   -578.96782   -1039.7028    81.088915    28.928692   -109.16776      46.7237      46.7237      46.7237           90           90           90     102002.7     -871.234 
  534000       533499   -7786.4794    546.16723   -8332.6466    4190.9534     -12523.6    89.292294   -556.03434   -758.53483   -585.77644    19.320023    67.456605    30.479022      46.7237      46.7237      46.7237           90           90           90     102002.7   -633.44854 
  535000       534499    -7778.218    558.33645   -8336.5545    4188.2114   -12524.766    91.281827   -606.25971   -694.55907   -588.26159   -32.610968    218.95099   -33.059224      46.7237      46.7237      46.7237           90           90           90     102002.7   -629.69346 
  536000       535499    -7765.665    561.00297    -8326.668    4189.5753   -12516.243    91.717774   -488.78841   -1133.9529    -625.7549   -43.487457   -82.569559    58.657053      46.7237      46.7237      46.7237           90           90           90     102002.7   -749.49874 
  537000       536499   -7747.7751    579.91027   -8327.6854    4196.9556   -12524.641    94.808907   -210.93547   -889.65828   -792.02646   -61.557864    149.56034    164.81334      46.7237      46.7237      46.7237           90           90           90     102002.7    -630.8734 
  538000       537499   -7772.6135     554.1779   -8326.7914    4195.1986    -12521.99    90.601951   -776.92386   -1095.9821   -982.17312    122.26069   -96.311301    11.284727      46.7237      46.7237      46.7237           90           90           90     102002.7   -951.69304 
  539000       538499   -7800.9438     543.4602    -8344.404    4196.8536   -12541.258    88.849724   -644.82279   -812.03325   -694.08344    -125.0374   -22.062025    4.7333242      46.7237      46.7237      46.7237           90           90           90     102002.7   -716.97983 
  540000       539499   -7768.1468    563.08156   -8331.2284    4210.2091   -12541.437      92.0576   -695.37471   -1015.7575   -1190.4174   -6.8517053   -69.877452   -189.56688      46.7237      46.7237      46.7237           90           90           90     102002.7   -967.18323 
  541000       540499   -7784.9332    539.80104   -8324.7343    4206.6136   -12531.348    88.251493   -777.73864   -1256.3783   -1025.8631    16.826555    157.32067    59.350626      46.7237      46.7237      46.7237           90           90           90     102002.7   -1019.9933 
  542000       541499   -7793.7018     547.3945   -8341.0963    4198.9211   -12540.017    89.492938   -590.27622   -856.84273   -1069.1057    8.3353345     28.23504   -52.083598      46.7237      46.7237      46.7237           90           90           90     102002.7   -838.74157 
  543000       542499   -7764.9513    552.12933   -8317.0806    4214.1781   -12531.259    90.267031   -1208.1923   -1142.3133   -887.69541   -367.25947   -65.446638    34.675205      46.7237      46.7237      46.7237           90           90           90     102002.7   -1079.4003 
  544000       543499   -7767.5176      559.739   -8327.2566    4205.1564   -12532.413    91.511129   -433.22213   -664.98168   -1078.6129    16.526355   -347.63711    95.222284      46.7237      46.7237      46.7237           90           90           90     102002.7   -725.60557 
  545000       544499   -7781.1558    560.23142   -8341.3873    4190.0296   -12531.417    91.591633   -848.31454   -544.03596   -838.87739    33.364258    313.99775   -11.232316      46.7237      46.7237      46.7237           90           90           90     102002.7   -743.74263 
  546000       545499   -7772.8914      553.079   -8325.9704    4213.6571   -12539.628    90.422293   -1131.4858   -1112.2064     -754.218   -7.3756228   -137.79848     119.0815      46.7237      46.7237      46.7237           90           90           90     102002.7   -999.30338 
  547000       546499   -7772.5085    565.11031   -8337.6188     4176.858   -12514.477    92.389277   -623.20124   -643.24465   -822.89265   -64.095143   -168.75236   -56.786046      46.7237      46.7237      46.7237           90           90           90     102002.7   -696.44618 
  548000       547499   -7743.7245    586.89758    -8330.622    4194.2073   -12524.829    95.951256   -798.17182   -701.22693   -737.68026   -154.19822   -170.87475    4.9656163      46.7237      46.7237      46.7237           90           90           90     102002.7     -745.693 
  549000       548499   -7759.8211    559.10032   -8318.9214    4215.7157   -12534.637    91.406712   -787.03251   -899.87919    -1076.624    167.41339    122.77937    68.276863      46.7237      46.7237      46.7237           90           90           90     102002.7   -921.17858 
  550000       549499    -7772.494    570.62272   -8343.1167    4179.0633    -12522.18    93.290497   -517.20231   -795.88132   -577.06633    112.58953    41.237754    -33.26831      46.7237      46.7237      46.7237           90           90           90     102002.7   -630.04999 
  551000       550499   -7785.9072    537.30142   -8323.2087    4207.6864   -12530.895    87.842833   -1070.6077   -497.03583   -549.43905    -104.3009    173.54771   -76.928766      46.7237      46.7237      46.7237           90           90           90     102002.7   -705.69419 
  552000       551499   -7761.2124    558.16304   -8319.3755    4196.6412   -12516.017    91.253475    -694.6237   -676.45737   -693.14596   -326.19489    259.53744    -31.10845      46.7237      46.7237      46.7237           90           90           90     102002.7   -688.07567 
  553000       552499   -7800.8738    549.37423    -8350.248     4174.625   -12524.873    89.816602   -815.32023   -614.08102    -814.8407    21.507759    -129.3415     86.25569      46.7237      46.7237      46.7237           90           90           90     102002.7   -748.08065 
  554000       553499   -7771.9152     551.2019   -8323.1171    4201.8237   -12524.941    90.115407   -588.08109   -1246.7609   -340.41568    12.449159   -22.736885   -3.2068693      46.7237      46.7237      46.7237           90           90           90     102002.7   -725.08591 
  555000       554499    -7767.167    574.20948   -8341.3764    4190.6691   -12532.046    93.876892   -1093.6931   -775.58776   -756.01285    117.54357   -30.468874   -82.805502      46.7237      46.7237      46.7237           90           90           90     102002.7   -875.09789 
[...]
  936000       935499   -7770.3739    571.20229   -8341.5762    4198.9545   -12540.531    93.385248     -598.528   -853.16512    -774.9402    115.66835   -135.72186    139.00197      46.7237      46.7237      46.7237           90           90           90     102002.7   -742.21111 
  937000       936499   -7791.1716    553.12669   -8344.2983    4188.2216    -12532.52    90.430088   -778.61203   -553.27115   -1399.0913    -229.6162   -184.12635    20.201101      46.7237      46.7237      46.7237           90           90           90     102002.7   -910.32482 
  938000       937499    -7800.827      538.773      -8339.6    4208.2767   -12547.877     88.08342   -631.22092   -670.65465   -1171.5363   -130.71309    2.5790792    4.0754577      46.7237      46.7237      46.7237           90           90           90     102002.7   -824.47062 
  939000       938499   -7778.2067     554.0106   -8332.2173    4190.7022    -12522.92    90.574599   -1027.2355   -1085.1511   -987.80767   -137.02976     183.8069    -169.1357      46.7237      46.7237      46.7237           90           90           90     102002.7   -1033.3981 
  940000       939499   -7760.0886    571.19025   -8331.2789    4200.7798   -12532.059     93.38328   -886.88686   -408.47963    -1024.971   -167.23994    -76.85585     167.2351      46.7237      46.7237      46.7237           90           90           90     102002.7   -773.44582 
  941000       940499   -7794.9564     559.2711   -8354.2275    4188.9173   -12543.145    91.434632   -828.01762   -820.63524   -1293.9929    180.28079   -170.34728    18.464525      46.7237      46.7237      46.7237           90           90           90     102002.7   -980.88193 
  942000       941499    -7766.087    552.12095    -8318.208    4212.5737   -12530.782    90.265662   -309.94666   -775.41602   -918.74336    -4.976235    18.219999   -33.732397      46.7237      46.7237      46.7237           90           90           90     102002.7   -668.03535 
  943000       942499   -7754.5457    560.73854   -8315.2842    4229.4208   -12544.705    91.674542   -972.49911   -579.44574   -843.92586    3.3616771    100.39929    109.92323      46.7237      46.7237      46.7237           90           90           90     102002.7   -798.62357 
  944000       943499   -7769.1238    565.88412   -8335.0079    4202.1915   -12537.199    92.515787   -753.98933   -738.06638   -876.41595   -142.75956   -148.98233   -115.05921      46.7237      46.7237      46.7237           90           90           90     102002.7   -789.49055 
  945000       944499   -7798.9085    543.15393   -8342.0624    4189.1721   -12531.235    88.799653   -619.45556   -497.98429   -947.59401    40.052232    100.87822   -184.51629      46.7237      46.7237      46.7237           90           90           90     102002.7   -688.34462 
  946000       945499   -7769.8068    552.56474   -8322.3715    4217.3878   -12539.759    90.338216   -991.55418    -1211.662   -654.84134   -74.487047   -153.93775    74.859171      46.7237      46.7237      46.7237           90           90           90     102002.7   -952.68583 
  947000       946499   -7796.0897    557.82592   -8353.9156      4184.21   -12538.126     91.19836   -316.34996   -469.61188   -585.70709    15.158115   -35.421934    86.388796      46.7237      46.7237      46.7237           90           90           90     102002.7   -457.22297 
  948000       947499   -7765.6687    574.49266   -8340.1613    4206.2229   -12546.384    93.923189   -964.97294   -1154.0636   -746.43237     231.3453    116.49298    157.14386      46.7237      46.7237      46.7237           90           90           90     102002.7   -955.15629 
  949000       948499   -7765.2188    584.15114   -8349.3699    4185.9589   -12535.329    95.502243   -549.68894   -1244.9686    -1110.654    74.584525    39.241265    144.85105      46.7237      46.7237      46.7237           90           90           90     102002.7    -968.4372 
  950000       949499   -7797.8825    543.57164   -8341.4541    4206.5052   -12547.959    88.867945   -756.78982    -336.0658   -81.447615   -67.741306   -170.78948   -151.69647      46.7237      46.7237      46.7237           90           90           90     102002.7   -391.43441 
  951000       950499   -7763.2754    557.40248   -8320.6779    4208.7045   -12529.382    91.129132     -1138.29   -906.92475   -761.43275   -135.51881    332.40094    12.582433      46.7237      46.7237      46.7237           90           90           90     102002.7   -935.54917 
  952000       951499   -7809.2058    550.99356   -8360.1993    4175.7335   -12535.933    90.081346   -361.65107   -808.72423   -574.70343   -9.1137414    46.402743   -110.35161      46.7237      46.7237      46.7237           90           90           90     102002.7   -581.69291 
  953000       952499   -7760.0031    566.93944   -8326.9426     4216.133   -12543.076     92.68832   -497.46141   -897.18153   -639.71691   -223.85568    98.487541   -172.96977      46.7237      46.7237      46.7237           90           90           90     102002.7   -678.11995 
  954000       953499   -7796.6781    548.16041   -8344.8385    4210.4685   -12555.307    89.618157   -942.19619   -1358.5911   -1146.3298   -215.13441     178.4779   -5.9834111      46.7237      46.7237      46.7237           90           90           90     102002.7    -1149.039 
  955000       954499   -7759.5692     564.1099   -8323.6791    4197.1147   -12520.794    92.225722   -676.40759   -548.11281   -819.17166   -186.23608    220.72468     11.59755      46.7237      46.7237      46.7237           90           90           90     102002.7   -681.23069 
  956000       955499    -7772.537    559.45819   -8331.9952    4215.4544    -12547.45    91.465219   -1143.5454   -1212.4571   -412.34211    139.76063    131.96795   -3.7667964      46.7237      46.7237      46.7237           90           90           90     102002.7   -922.78154 
  957000       956499   -7787.1973    567.62035   -8354.8176    4194.9115   -12549.729    92.799642   -758.58405   -379.65708   -1186.1128    220.60996    1.7055125   -72.062807      46.7237      46.7237      46.7237           90           90           90     102002.7   -774.78464 
  958000       957499   -7782.4306    544.01058   -8326.4412    4208.7897   -12535.231    88.939705   -853.78157   -408.26096   -1062.8941    163.90693     -15.3033    334.76389      46.7237      46.7237      46.7237           90           90           90     102002.7   -774.97889 
  959000       958499   -7806.4889     545.3721    -8351.861    4186.3815   -12538.242    89.162298   -505.90612   -974.76516   -1055.1459    103.07305    100.44239   -271.54002      46.7237      46.7237      46.7237           90           90           90     102002.7    -845.2724 
  960000       959499    -7777.859    558.50703   -8336.3661    4195.9099   -12532.276    91.309715   -416.88943   -546.28198   -258.83072   -110.26345   -125.46566   -86.357465      46.7237      46.7237      46.7237           90           90           90     102002.7   -407.33404 
  961000       960499   -7764.1711    567.92533   -8332.0964    4187.6678   -12519.764    92.849503   -495.98364   -407.62485   -835.06387    30.497403    104.41343   -13.207991      46.7237      46.7237      46.7237           90           90           90     102002.7   -579.55745 
  962000       961499   -7761.1417     562.6462   -8323.7879    4219.9015   -12543.689    91.986424   -1039.6827   -468.87962   -498.74735   -147.22309   -111.72121    182.22266      46.7237      46.7237      46.7237           90           90           90     102002.7   -669.10324 
  963000       962499   -7779.4561    544.75871   -8324.2148    4230.2022   -12554.417    89.062017   -762.90542   -1193.2914   -809.01448    100.65573   -60.004573    96.815378      46.7237      46.7237      46.7237           90           90           90     102002.7    -921.7371 
  964000       963499   -7792.6399    557.33952   -8349.9795    4195.7645   -12545.744    91.118839   -1334.8678   -903.08857    -1124.758    42.688705   -31.920038   -65.194583      46.7237      46.7237      46.7237           90           90           90     102002.7   -1120.9048 
  965000       964499    -7784.737    557.95783   -8342.6949    4190.3746   -12533.069    91.219927   -792.15342   -890.92384   -424.87608   -29.216999   -105.19465    12.142433      46.7237      46.7237      46.7237           90           90           90     102002.7   -702.65111 
  966000       965499   -7786.2669    560.29634   -8346.5633    4200.4699   -12547.033    91.602246   -551.22697   -1308.8884   -935.24414    214.86346   -115.01267    176.44152      46.7237      46.7237      46.7237           90           90           90     102002.7    -931.7865 
  967000       966499   -7791.1849    552.99134   -8344.1763    4204.9991   -12549.175     90.40796   -1172.2072    -563.0716   -923.78998   -145.81428   -99.753052  -0.64124721      46.7237      46.7237      46.7237           90           90           90     102002.7   -886.35624 
  968000       967499   -7781.7446     560.6915   -8342.4361    4202.6645   -12545.101    91.666852   -1174.6763   -525.80979   -632.54406    106.38005   -1.8089357   -49.347128      46.7237      46.7237      46.7237           90           90           90     102002.7   -777.67671 
  969000       968499   -7782.9468    537.75031   -8320.6971    4212.8101   -12533.507    87.916221    -760.8616   -987.43282   -808.74929     185.6806    91.275901    364.08477      46.7237      46.7237      46.7237           90           90           90     102002.7   -852.34791 
  970000       969499   -7803.4167    540.68514   -8344.1018    4199.5084    -12543.61    88.396033    -466.0582   -1021.6581   -1230.3901   -18.526657    82.964944    130.50611      46.7237      46.7237      46.7237           90           90           90     102002.7   -906.03545 
  971000       970499   -7794.5384     562.3224   -8356.8608    4176.0192    -12532.88    91.933486   -1083.9335   -684.94266   -519.63574   -99.755971   -25.513789   -92.068499      46.7237      46.7237      46.7237           90           90           90     102002.7    -762.8373 
  972000       971499   -7768.8906    570.72756   -8339.6182    4184.4975   -12524.116    93.307636   -706.06918   -1154.7286   -999.70416   -19.116958    -41.71211    79.911458      46.7237      46.7237      46.7237           90           90           90     102002.7   -953.50066 
  973000       972499   -7796.7968    547.54828   -8344.3451    4183.2148    -12527.56     89.51808   -503.14896   -451.99218   -522.49169   -47.969065   -207.04374   -5.7603843      46.7237      46.7237      46.7237           90           90           90     102002.7   -492.54428 
  974000       973499   -7782.5888    549.08141   -8331.6702    4205.5952   -12537.265    89.768731   -1058.0337   -903.68223   -1058.8914   -50.851672    35.147241    183.24125      46.7237      46.7237      46.7237           90           90           90     102002.7   -1006.8691 
  975000       974499   -7768.8071    569.84549   -8338.6525    4194.8778    -12533.53    93.163427   -952.68746   -766.04719   -875.61603   -32.834593   -232.05916   -29.174745      46.7237      46.7237      46.7237           90           90           90     102002.7   -864.78356 
  976000       975499     -7754.83    564.49435   -8319.3244    4211.9265   -12531.251    92.288576   -980.04455   -704.60574   -852.14754    131.06835    215.34533    230.92282      46.7237      46.7237      46.7237           90           90           90     102002.7   -845.59928 
  977000       976499   -7776.4178    569.28895   -8345.7067     4187.714   -12533.421    93.072439   -1146.5217   -1121.3261    -648.2182   -167.40111   -52.899406   -12.117183      46.7237      46.7237      46.7237           90           90           90     102002.7   -972.02198 
  978000       977499   -7780.8434    546.80078   -8327.6442    4195.4953   -12523.139    89.395872   -872.90945   -669.41073    -1098.781   -86.381354   -47.716503     92.03108      46.7237      46.7237      46.7237           90           90           90     102002.7   -880.36707 
  979000       978499   -7784.6275    572.88029   -8357.5078    4190.9513   -12548.459    93.659583   -892.19734   -561.42174   -687.75777   -112.22643   -116.77401    14.537588      46.7237      46.7237      46.7237           90           90           90     102002.7   -713.79228 
  980000       979499   -7787.5326    551.23362   -8338.7663    4186.4435    -12525.21    90.120593   -420.55774    -888.8668    -334.5174   -101.07004   -41.082833   -17.534236      46.7237      46.7237      46.7237           90           90           90     102002.7   -547.98065 
  981000       980499   -7781.7601    568.12994     -8349.89     4179.445   -12529.335    92.882953   -342.72476   -957.22515   -543.14284   -122.10874    227.29961   -82.659845      46.7237      46.7237      46.7237           90           90           90     102002.7   -614.36425 
  982000       981499   -7787.8489    546.08165   -8333.9306    4200.5423   -12534.473    89.278303   -812.46894   -975.60522   -866.72664   -55.041689   -109.20756    -128.0596      46.7237      46.7237      46.7237           90           90           90     102002.7    -884.9336 
  983000       982499   -7779.9785    549.87127   -8329.8498    4209.1039   -12538.954    89.897864   -807.33875   -454.96179   -735.77323    39.127919    130.08832    93.501214      46.7237      46.7237      46.7237           90           90           90     102002.7   -666.02459 
  984000       983499   -7769.0181    560.85872   -8329.8768    4214.7825   -12544.659     91.69419   -763.05738   -959.27411   -465.09686   -45.921689   -14.234336    140.46642      46.7237      46.7237      46.7237           90           90           90     102002.7   -729.14278 
  985000       984499   -7772.1743     562.9248   -8335.0991     4193.708   -12528.807    92.031972   -456.51137   -688.30244   -611.80151   -73.576581   -224.10239    152.66392      46.7237      46.7237      46.7237           90           90           90     102002.7   -585.53844 
  986000       985499   -7815.4879    534.60719   -8350.0951    4207.1978   -12557.293    87.402356   -305.90947   -517.79484   -744.48364   -161.14604    104.15579     49.35805      46.7237      46.7237      46.7237           90           90           90     102002.7   -522.72931 
  987000       986499   -7778.8642    555.97285   -8334.8371    4204.6442   -12539.481    90.895404   -422.95405    -746.8396   -1128.3551   -37.469875   -170.99718    144.02925      46.7237      46.7237      46.7237           90           90           90     102002.7   -766.04959 
  988000       987499     -7767.33    554.25358   -8321.5835     4208.681   -12530.265    90.614323   -855.15843   -995.31532   -379.03425    150.58012    177.08135    160.82249      46.7237      46.7237      46.7237           90           90           90     102002.7   -743.16933 
  989000       988499   -7759.0629    555.08221   -8314.1451    4215.4662   -12529.611    90.749795   -817.72388   -673.74736   -676.62262   -110.38713   -120.36196   -55.045597      46.7237      46.7237      46.7237           90           90           90     102002.7   -722.69795 
  990000       989499   -7791.7423    550.93435   -8342.6766    4196.4149   -12539.092    90.071666   -924.90181   -510.11379   -542.38897   -143.03787    10.130589   -35.193305      46.7237      46.7237      46.7237           90           90           90     102002.7   -659.13486 
  991000       990499    -7771.977    555.87753   -8327.8545    4221.9619   -12549.816    90.879821   -912.59454   -777.87844    -575.1646   -51.705977     113.0266    28.264658      46.7237      46.7237      46.7237           90           90           90     102002.7   -755.21253 
  992000       991499   -7803.8008    550.15313    -8353.954    4183.8164    -12537.77    89.943945   -756.48515   -970.75544   -400.03833    -134.2034   -92.577149   -1.6524848      46.7237      46.7237      46.7237           90           90           90     102002.7   -709.09297 
  993000       992499   -7789.6043    556.04971    -8345.654    4195.7837   -12541.438     90.90797   -527.56869   -407.32528   -375.45452   -16.292025    143.03303   -237.64505      46.7237      46.7237      46.7237           90           90           90     102002.7   -436.78283 
  994000       993499   -7754.8696    560.05801   -8314.9276    4218.9254   -12533.853    91.563282   -842.69584   -510.45271   -697.53467   -291.14703   -238.58953    230.97102      46.7237      46.7237      46.7237           90           90           90     102002.7   -683.56107 
  995000       994499   -7790.0955      549.517   -8339.6125    4202.1583   -12541.771    89.839944   -530.60027    -1252.821   -407.55055   -183.76997   -142.35093    63.215267      46.7237      46.7237      46.7237           90           90           90     102002.7   -730.32394 
  996000       995499   -7745.2412    568.08321   -8313.3244    4225.4457    -12538.77    92.875313    -385.2586   -411.21928   -1016.5401    167.21809    11.456158   -47.925501      46.7237      46.7237      46.7237           90           90           90     102002.7   -604.33934 
  997000       996499   -7765.6734     558.4344   -8324.1078    4220.3132   -12544.421    91.297841   -656.17678   -758.91863   -1227.0984   -205.00425   -274.53719     154.5697      46.7237      46.7237      46.7237           90           90           90     102002.7   -880.73127 
  998000       997499   -7790.1062     559.5972   -8349.7034    4184.0016   -12533.705    91.487945   -776.31996   -514.94711   -815.37246    104.23307   -50.642336    22.489306      46.7237      46.7237      46.7237           90           90           90     102002.7   -702.21318 
  999000       998499   -7776.0913    557.48204   -8333.5734    4191.1531   -12524.726     91.14214   -807.35305   -689.30751   -564.46655   -69.450347   -22.370384    90.873711      46.7237      46.7237      46.7237           90           90           90     102002.7   -687.04237 
 1000000       999499   -7767.1661    558.93078   -8326.0969    4207.9729    -12534.07    91.378993   -478.04228   -725.71781   -888.22344    59.771355   -40.682725   -36.040253      46.7237      46.7237      46.7237           90           90           90     102002.7   -697.32784 
 1000501      1000000   -7774.7449    551.81504     -8326.56     4207.196   -12533.756    90.215649   -517.84148    -715.2622   -1091.4428   -22.129573   -42.039136    104.84412      46.7237      46.7237      46.7237           90           90           90     102002.7   -774.84882 
Loop time of 1540.66 on 16 procs for 500000 steps with 2053 atoms

Performance: 28.040 ns/day, 0.856 hours/ns, 324.535 timesteps/s
99.9% CPU use with 16 MPI tasks x no OpenMP threads

MPI task timing breakdown:
Section |  min time  |  avg time  |  max time  |%varavg| %total
---------------------------------------------------------------
Pair    | 690.64     | 905.26     | 1125.7     | 421.6 | 58.76
Bond    | 160.84     | 183.53     | 207.23     | 111.2 | 11.91
Neigh   | 6.2238     | 6.2598     | 6.2948     |   0.9 |  0.41
Comm    | 197.22     | 417.72     | 620.52     | 579.1 | 27.11
Output  | 0.10194    | 0.1067     | 0.10713    |   0.4 |  0.01
Modify  | 21.38      | 22.391     | 23.265     |  13.4 |  1.45
Other   |            | 5.398      |            |       |  0.35

Nlocal:    128.312 ave 158 max 113 min
Histogram: 4 3 2 1 1 1 1 2 0 1
Nghost:    2573.62 ave 2596 max 2543 min
Histogram: 1 0 2 2 1 0 4 2 3 1
Neighs:    11461.9 ave 18073 max 7277 min
Histogram: 4 2 1 1 3 1 1 1 1 1

Total # of neighbors = 183391
Ave neighs/atom = 89.3283
Ave special neighs/atom = 5.6113
Neighbor list builds = 3892
Dangerous builds = 0
Total wall time: 0:48:33
