LAMMPS (30 Mar 2018)
Reading data file ...
  orthogonal box = (0 0 0) to (46.7237 46.7237 46.7237)
  2 by 2 by 4 MPI processor grid
  reading atoms ...
  3335 atoms
  scanning bonds ...
  5 = max bonds/atom
  scanning angles ...
  10 = max angles/atom
  scanning dihedrals ...
  32 = max dihedrals/atom
  scanning impropers ...
  3 = max impropers/atom
  reading bonds ...
  2064 bonds
  reading angles ...
  3696 angles
  reading dihedrals ...
  6240 dihedrals
  reading impropers ...
  1008 impropers
Finding 1-2 1-3 1-4 neighbors ...
  special bond factors lj:   0          0          0         
  special bond factors coul: 0          0          0         
  5 = max # of 1-2 neighbors
  8 = max # of 1-3 neighbors
  20 = max # of 1-4 neighbors
  19 = max # of special neighbors
Finding 1-2 1-3 1-4 neighbors ...
  special bond factors lj:   0          0          1         
  special bond factors coul: 1          1          1         
  5 = max # of 1-2 neighbors
  8 = max # of 1-3 neighbors
  19 = max # of special neighbors
WARNING: Using 'neigh_modify every 1 delay 0 check yes' setting during minimization (../min.cpp:168)
Neighbor list info ...
  update every 1 steps, delay 0 steps, check yes
  max neighbors/atom: 2000, page size: 100000
  master list distance cutoff = 16
  ghost atom cutoff = 16
  binsize = 8, bins = 6 6 6
  3 neighbor lists, perpetual/occasional/extra = 3 0 0
  (1) pair buck6d/coul/gauss/dsf, perpetual, skip from (3)
      attributes: half, newton on
      pair build: skip
      stencil: none
      bin: none
  (2) pair lj/cut, perpetual, skip from (3)
      attributes: half, newton on
      pair build: skip
      stencil: none
      bin: none
  (3) neighbor class addition, perpetual
      attributes: half, newton on
      pair build: half/bin/newton
      stencil: half/bin/3d/newton
      bin: standard
Setting up cg style minimization ...
  Unit style    : real
  Current step  : 0
WARNING: Inconsistent image flags (../domain.cpp:786)
Per MPI rank memory allocation (min/avg/max) = 23.03 | 23.48 | 23.93 Mbytes
Step Temp E_pair E_mol TotEng Press 
       0            0   -16023.654    6482.8914   -9540.7622    6816.0288 
     500            0   -16415.793    3814.8605   -12600.933   -1147.4229 
Loop time of 4.58336 on 16 procs for 500 steps with 3335 atoms

99.9% CPU use with 16 MPI tasks x no OpenMP threads

Minimization stats:
  Stopping criterion = max force evaluations
  Energy initial, next-to-last, final = 
        -9540.76218554     -12600.8641994     -12600.9327435
  Force two-norm initial, final = 2574.75 13.4903
  Force max component initial, final = 152.103 3.18703
  Final line search alpha, max atom move = 0.00531316 0.0169332
  Iterations, force evaluations = 500 1000

MPI task timing breakdown:
Section |  min time  |  avg time  |  max time  |%varavg| %total
---------------------------------------------------------------
Pair    | 2.5502     | 3.1371     | 3.6806     |  18.9 | 68.45
Bond    | 0.30767    | 0.3604     | 0.42689    |   6.0 |  7.86
Neigh   | 0.036888   | 0.037119   | 0.037331   |   0.1 |  0.81
Comm    | 0.42183    | 1.0011     | 1.6229     |  34.9 | 21.84
Output  | 0          | 0          | 0          |   0.0 |  0.00
Modify  | 0          | 0          | 0          |   0.0 |  0.00
Other   |            | 0.04763    |            |       |  1.04

Nlocal:    208.438 ave 243 max 167 min
Histogram: 1 0 0 2 3 2 6 1 0 1
Nghost:    4164.62 ave 4204 max 4134 min
Histogram: 1 1 1 5 2 2 3 0 0 1
Neighs:    11509.2 ave 18385 max 5322 min
Histogram: 1 0 1 5 3 1 3 1 0 1

Total # of neighbors = 184148
Ave neighs/atom = 55.2168
Ave special neighs/atom = 3.45427
Neighbor list builds = 10
Dangerous builds = 0
Neighbor list info ...
  update every 1 steps, delay 10 steps, check yes
  max neighbors/atom: 2000, page size: 100000
  master list distance cutoff = 16
  ghost atom cutoff = 16
  binsize = 8, bins = 6 6 6
  3 neighbor lists, perpetual/occasional/extra = 3 0 0
  (1) pair buck6d/coul/gauss/dsf, perpetual, skip from (3)
      attributes: half, newton on
      pair build: skip
      stencil: none
      bin: none
  (2) pair lj/cut, perpetual, skip from (3)
      attributes: half, newton on
      pair build: skip
      stencil: none
      bin: none
  (3) neighbor class addition, perpetual
      attributes: half, newton on
      pair build: half/bin/newton
      stencil: half/bin/3d/newton
      bin: standard
Setting up Verlet run ...
  Unit style    : real
  Current step  : 500
  Time step     : 1
WARNING: Inconsistent image flags (../domain.cpp:786)
Per MPI rank memory allocation (min/avg/max) = 22.67 | 22.78 | 23.14 Mbytes
Step Temp PotEng TotEng Press Volume Lx Ly Lz 
     500           91   -12600.933   -11696.573   -742.13609     102002.7      46.7237      46.7237      46.7237 
    1000    75.797466   -11844.127   -11090.851    485.51802     102002.7      46.7237      46.7237      46.7237 
    2000    92.949713   -11706.414   -10782.678    697.18168     102002.7      46.7237      46.7237      46.7237 
    3000    90.679553   -11749.917   -10848.741    732.02423     102002.7      46.7237      46.7237      46.7237 
    4000    90.482718   -11735.276   -10836.057    1045.0559     102002.7      46.7237      46.7237      46.7237 
    5000    93.827396   -11730.954   -10798.495    833.23202     102002.7      46.7237      46.7237      46.7237 
    6000     92.67384   -11736.692   -10815.697    646.67912     102002.7      46.7237      46.7237      46.7237 
    7000     89.24014   -11734.922   -10848.051    581.56684     102002.7      46.7237      46.7237      46.7237 
    8000    90.628013   -11729.187   -10828.524    760.59171     102002.7      46.7237      46.7237      46.7237 
    9000    89.135088   -11737.154   -10851.328    318.14786     102002.7      46.7237      46.7237      46.7237 
   10000    90.792211   -11750.463   -10848.168    306.78435     102002.7      46.7237      46.7237      46.7237 
   11000    89.600286   -11750.961   -10860.512    505.43375     102002.7      46.7237      46.7237      46.7237 
   12000    90.337931   -11729.723   -10831.942    543.09242     102002.7      46.7237      46.7237      46.7237 
   13000    89.576391   -11747.051   -10856.839    918.49881     102002.7      46.7237      46.7237      46.7237 
   14000    91.587275   -11743.148   -10832.951    546.79144     102002.7      46.7237      46.7237      46.7237 
   15000    91.955441   -11739.468   -10825.613    749.41569     102002.7      46.7237      46.7237      46.7237 
   16000    89.605613   -11728.289   -10837.787    680.83312     102002.7      46.7237      46.7237      46.7237 
   17000    90.612792   -11755.731   -10855.219    889.13597     102002.7      46.7237      46.7237      46.7237 
   18000    89.453002   -11768.313   -10879.327    812.83898     102002.7      46.7237      46.7237      46.7237 
   19000    89.217531   -11751.645       -10865    526.36587     102002.7      46.7237      46.7237      46.7237 
   20000    91.929171   -11744.681   -10831.087    802.08107     102002.7      46.7237      46.7237      46.7237 
   21000    93.116387   -11773.972   -10848.579    652.86519     102002.7      46.7237      46.7237      46.7237 
   22000    93.089031   -11735.147   -10810.027    623.59975     102002.7      46.7237      46.7237      46.7237 
   23000     90.94365   -11754.236   -10850.437    727.37439     102002.7      46.7237      46.7237      46.7237 
   24000    88.098219   -11729.352    -10853.83    721.05536     102002.7      46.7237      46.7237      46.7237 
   25000    90.603451   -11733.703   -10833.284    569.76897     102002.7      46.7237      46.7237      46.7237 
   26000    91.555721   -11773.513    -10863.63     882.1419     102002.7      46.7237      46.7237      46.7237 
   27000    92.185634   -11779.645   -10863.502    743.17971     102002.7      46.7237      46.7237      46.7237 
   28000    90.181392    -11772.01   -10875.785    563.31723     102002.7      46.7237      46.7237      46.7237 
   29000    90.277909   -11748.476   -10851.293    674.89949     102002.7      46.7237      46.7237      46.7237 
   30000    91.502202   -11771.076   -10861.726    690.44148     102002.7      46.7237      46.7237      46.7237 
   31000    91.212578   -11754.497   -10848.024     758.7682     102002.7      46.7237      46.7237      46.7237 
   32000      90.6272    -11769.57   -10868.915    860.01268     102002.7      46.7237      46.7237      46.7237 
   33000    91.855022   -11745.251   -10832.393    861.34612     102002.7      46.7237      46.7237      46.7237 
   34000    90.580943   -11753.851   -10853.655    999.19842     102002.7      46.7237      46.7237      46.7237 
   35000    91.074867   -11758.128   -10853.024    724.17398     102002.7      46.7237      46.7237      46.7237 
   36000     90.44742   -11761.869   -10863.001    415.48977     102002.7      46.7237      46.7237      46.7237 
   37000    90.634006   -11761.825   -10861.102    418.69671     102002.7      46.7237      46.7237      46.7237 
   38000    91.239416    -11795.46   -10888.721    515.47256     102002.7      46.7237      46.7237      46.7237 
   39000    89.229746   -11776.091   -10889.324    540.59333     102002.7      46.7237      46.7237      46.7237 
   40000    91.853238   -11772.955   -10860.115    620.55044     102002.7      46.7237      46.7237      46.7237 
   41000    91.653489   -11761.136   -10850.282    746.90178     102002.7      46.7237      46.7237      46.7237 
   42000    89.152081   -11759.007   -10873.012    434.17777     102002.7      46.7237      46.7237      46.7237 
   43000    90.675702    -11737.72   -10836.583    713.73839     102002.7      46.7237      46.7237      46.7237 
   44000    91.176772    -11766.96   -10860.843    670.98156     102002.7      46.7237      46.7237      46.7237 
   45000    93.978612   -11753.675   -10819.713    802.66151     102002.7      46.7237      46.7237      46.7237 
   46000    91.746909   -11760.655   -10848.873    694.74971     102002.7      46.7237      46.7237      46.7237 
   47000    89.522802    -11774.46   -10884.781    824.83199     102002.7      46.7237      46.7237      46.7237 
   48000    92.354616   -11786.028   -10868.206    404.02752     102002.7      46.7237      46.7237      46.7237 
   49000    91.694158   -11740.537   -10829.279    402.89524     102002.7      46.7237      46.7237      46.7237 
   50000    91.135135   -11774.922   -10869.219    822.69376     102002.7      46.7237      46.7237      46.7237 
   51000     89.51429   -11774.857   -10885.262    796.38193     102002.7      46.7237      46.7237      46.7237 
   52000    92.156326   -11743.313   -10827.461     1110.106     102002.7      46.7237      46.7237      46.7237 
   53000     90.34723   -11760.001   -10862.128    719.42475     102002.7      46.7237      46.7237      46.7237 
   54000    92.341338   -11768.808   -10851.118    666.07553     102002.7      46.7237      46.7237      46.7237 
   55000    89.810906   -11775.962   -10883.419    771.96062     102002.7      46.7237      46.7237      46.7237 
   56000    92.302582   -11761.932   -10844.627    768.86715     102002.7      46.7237      46.7237      46.7237 
   57000    93.349068   -11750.446   -10822.741    776.39052     102002.7      46.7237      46.7237      46.7237 
   58000    89.405713   -11778.565   -10890.049    475.89312     102002.7      46.7237      46.7237      46.7237 
   59000    91.148532   -11779.282   -10873.446    451.77301     102002.7      46.7237      46.7237      46.7237 
   60000    91.238017   -11767.136    -10860.41    730.03581     102002.7      46.7237      46.7237      46.7237 
   61000    90.698452   -11770.035   -10868.672    581.16264     102002.7      46.7237      46.7237      46.7237 
   62000    91.388165   -11776.199   -10867.981    725.29981     102002.7      46.7237      46.7237      46.7237 
   63000    88.015406   -11788.119   -10913.421    660.70112     102002.7      46.7237      46.7237      46.7237 
   64000    90.694429    -11763.91   -10862.586    595.93971     102002.7      46.7237      46.7237      46.7237 
   65000    91.715905   -11784.237   -10872.762    661.56239     102002.7      46.7237      46.7237      46.7237 
   66000    92.990311   -11777.709   -10853.569    655.14628     102002.7      46.7237      46.7237      46.7237 
   67000    90.558129   -11778.423   -10878.455    495.47233     102002.7      46.7237      46.7237      46.7237 
   68000    91.937159   -11788.509   -10874.835    924.40253     102002.7      46.7237      46.7237      46.7237 
   69000    93.600708   -11787.845   -10857.639    628.01904     102002.7      46.7237      46.7237      46.7237 
   70000    89.457785    -11798.35   -10909.317    538.90457     102002.7      46.7237      46.7237      46.7237 
   71000    89.671295   -11768.261   -10877.105    800.57099     102002.7      46.7237      46.7237      46.7237 
   72000    88.803712   -11781.079   -10898.545    684.23173     102002.7      46.7237      46.7237      46.7237 
   73000    91.283628   -11777.686   -10870.507    547.34321     102002.7      46.7237      46.7237      46.7237 
   74000     92.24053   -11781.595   -10864.907    666.59993     102002.7      46.7237      46.7237      46.7237 
   75000    90.912017   -11790.775   -10887.289    482.88019     102002.7      46.7237      46.7237      46.7237 
   76000    92.115083   -11768.683   -10853.242    690.06024     102002.7      46.7237      46.7237      46.7237 
   77000    90.818197   -11766.411   -10863.858    750.28225     102002.7      46.7237      46.7237      46.7237 
   78000    89.742857   -11775.777   -10883.911    708.15167     102002.7      46.7237      46.7237      46.7237 
   79000    89.927306   -11780.519   -10886.819    685.52926     102002.7      46.7237      46.7237      46.7237 
   80000    91.046744   -11777.839   -10873.015    587.61987     102002.7      46.7237      46.7237      46.7237 
   81000    90.468971   -11808.598   -10909.515    611.38583     102002.7      46.7237      46.7237      46.7237 
   82000    90.118771   -11785.963   -10890.361    768.79927     102002.7      46.7237      46.7237      46.7237 
   83000    89.789385   -11774.339    -10882.01    926.12909     102002.7      46.7237      46.7237      46.7237 
   84000    91.611327   -11781.525   -10871.089     677.3805     102002.7      46.7237      46.7237      46.7237 
   85000    90.788278   -11772.177   -10869.921    720.42089     102002.7      46.7237      46.7237      46.7237 
   86000    91.168491   -11774.105   -10868.071    864.39652     102002.7      46.7237      46.7237      46.7237 
   87000    90.608894   -11789.745   -10889.272    619.59582     102002.7      46.7237      46.7237      46.7237 
   88000    91.119403   -11785.096   -10879.549     560.2339     102002.7      46.7237      46.7237      46.7237 
   89000    91.999803    -11773.92   -10859.625      892.164     102002.7      46.7237      46.7237      46.7237 
   90000    88.759157   -11776.745   -10894.654    469.59024     102002.7      46.7237      46.7237      46.7237 
   91000    91.620921   -11792.334   -10881.804    335.09642     102002.7      46.7237      46.7237      46.7237 
   92000    91.080861    -11815.72   -10910.557    660.53838     102002.7      46.7237      46.7237      46.7237 
   93000    90.389693   -11777.871   -10879.577    528.83056     102002.7      46.7237      46.7237      46.7237 
   94000    90.822609   -11793.656   -10891.059     919.5899     102002.7      46.7237      46.7237      46.7237 
   95000    91.690204   -11782.965   -10871.745    772.28159     102002.7      46.7237      46.7237      46.7237 
   96000    92.821036   -11777.567    -10855.11    702.62168     102002.7      46.7237      46.7237      46.7237 
   97000    90.149249   -11800.185    -10904.28    502.40237     102002.7      46.7237      46.7237      46.7237 
   98000    89.739224   -11799.407   -10907.577    731.88163     102002.7      46.7237      46.7237      46.7237 
   99000     93.09542   -11796.916   -10871.732    827.23273     102002.7      46.7237      46.7237      46.7237 
  100000    90.777246   -11782.074   -10879.928    789.66431     102002.7      46.7237      46.7237      46.7237 
  101000    90.315058   -11768.886   -10871.333    806.54589     102002.7      46.7237      46.7237      46.7237 
  102000    89.633404   -11821.436   -10930.657     664.9669     102002.7      46.7237      46.7237      46.7237 
  103000    88.515193   -11776.356   -10896.691    802.33171     102002.7      46.7237      46.7237      46.7237 
  104000    91.333694   -11774.005   -10866.329     694.4128     102002.7      46.7237      46.7237      46.7237 
  105000    90.771367   -11778.584   -10876.496    630.42816     102002.7      46.7237      46.7237      46.7237 
  106000    91.014383   -11789.563    -10885.06    657.84336     102002.7      46.7237      46.7237      46.7237 
  107000    90.565203   -11785.382   -10885.344    681.17132     102002.7      46.7237      46.7237      46.7237 
  108000    89.571856   -11784.189   -10894.022    755.95024     102002.7      46.7237      46.7237      46.7237 
  109000    90.879379   -11789.405   -10886.244    678.07636     102002.7      46.7237      46.7237      46.7237 
  110000    89.862696   -11777.821   -10884.764    710.33767     102002.7      46.7237      46.7237      46.7237 
  111000     90.05183   -11768.417    -10873.48    725.90148     102002.7      46.7237      46.7237      46.7237 
  112000    92.426132   -11767.545   -10849.012    642.41781     102002.7      46.7237      46.7237      46.7237 
  113000    92.572956   -11795.591   -10875.599    659.37838     102002.7      46.7237      46.7237      46.7237 
  114000    91.822039   -11814.645   -10902.116    633.62451     102002.7      46.7237      46.7237      46.7237 
  115000    90.962583   -11784.534   -10880.546    692.09724     102002.7      46.7237      46.7237      46.7237 
  116000     91.36804   -11788.319   -10880.302     856.7471     102002.7      46.7237      46.7237      46.7237 
  117000    90.583543   -11807.166   -10906.945     640.5022     102002.7      46.7237      46.7237      46.7237 
  118000     90.84581   -11808.465   -10905.637    766.98823     102002.7      46.7237      46.7237      46.7237 
  119000    93.278203   -11774.584   -10847.583    524.92513     102002.7      46.7237      46.7237      46.7237 
  120000    91.492517   -11791.689   -10882.434    819.73942     102002.7      46.7237      46.7237      46.7237 
  121000     90.02192   -11787.946   -10893.307    649.09527     102002.7      46.7237      46.7237      46.7237 
  122000    93.258852   -11765.362   -10838.554    860.45213     102002.7      46.7237      46.7237      46.7237 
  123000    91.437845   -11793.034   -10884.323    589.20189     102002.7      46.7237      46.7237      46.7237 
  124000    90.674913   -11792.421   -10891.292    688.94554     102002.7      46.7237      46.7237      46.7237 
  125000     88.51167   -11790.173   -10910.542    691.99925     102002.7      46.7237      46.7237      46.7237 
  126000    91.250636   -11770.619   -10863.768    456.91113     102002.7      46.7237      46.7237      46.7237 
  127000    89.188511   -11797.357       -10911    651.45312     102002.7      46.7237      46.7237      46.7237 
  128000    90.128347   -11780.441   -10884.744    710.32702     102002.7      46.7237      46.7237      46.7237 
  129000    91.052985   -11797.382   -10892.495     594.0897     102002.7      46.7237      46.7237      46.7237 
  130000       91.013    -11803.32   -10898.831    587.50279     102002.7      46.7237      46.7237      46.7237 
  131000    90.752888   -11767.445   -10865.541    832.90926     102002.7      46.7237      46.7237      46.7237 
  132000    89.705689   -11785.374   -10893.877    829.98395     102002.7      46.7237      46.7237      46.7237 
  133000    91.817289   -11809.066   -10896.584    639.46579     102002.7      46.7237      46.7237      46.7237 
  134000    90.902718   -11799.215   -10895.822    607.84114     102002.7      46.7237      46.7237      46.7237 
  135000    91.898737   -11781.797   -10868.506    660.87796     102002.7      46.7237      46.7237      46.7237 
  136000    90.483483   -11789.635   -10890.409    693.78926     102002.7      46.7237      46.7237      46.7237 
  137000    91.109957   -11790.457   -10885.004    479.38033     102002.7      46.7237      46.7237      46.7237 
  138000    90.718383   -11822.216   -10920.655    422.39306     102002.7      46.7237      46.7237      46.7237 
  139000     93.80607   -11775.681   -10843.435    551.58989     102002.7      46.7237      46.7237      46.7237 
  140000    90.004644   -11796.659   -10902.191    714.32202     102002.7      46.7237      46.7237      46.7237 
  141000    90.876034   -11768.417   -10865.289    686.29704     102002.7      46.7237      46.7237      46.7237 
  142000    92.136624   -11787.885   -10872.229    863.06421     102002.7      46.7237      46.7237      46.7237 
  143000    90.430813   -11784.026   -10885.323    900.46342     102002.7      46.7237      46.7237      46.7237 
  144000    90.253979   -11756.182   -10859.236    544.70332     102002.7      46.7237      46.7237      46.7237 
  145000    90.089099   -11788.564   -10893.257    543.94925     102002.7      46.7237      46.7237      46.7237 
  146000    90.866613   -11790.391   -10887.356    376.13654     102002.7      46.7237      46.7237      46.7237 
  147000    89.723049   -11787.465   -10895.796    601.62136     102002.7      46.7237      46.7237      46.7237 
  148000    91.878834   -11768.753   -10855.659    559.95697     102002.7      46.7237      46.7237      46.7237 
  149000    89.858804   -11803.155   -10910.136    632.90612     102002.7      46.7237      46.7237      46.7237 
  150000     92.39343   -11794.811   -10876.603    741.99075     102002.7      46.7237      46.7237      46.7237 
  151000    89.845368   -11794.003   -10901.118    568.33843     102002.7      46.7237      46.7237      46.7237 
  152000    92.175397   -11786.602   -10870.561    757.48005     102002.7      46.7237      46.7237      46.7237 
  153000    90.102754   -11790.198   -10894.755    475.57308     102002.7      46.7237      46.7237      46.7237 
  154000    91.750242    -11781.75   -10869.934    474.85732     102002.7      46.7237      46.7237      46.7237 
  155000    90.534022   -11778.588   -10878.859     709.6935     102002.7      46.7237      46.7237      46.7237 
  156000    90.141784   -11788.482   -10892.651    605.77746     102002.7      46.7237      46.7237      46.7237 
  157000    90.875157    -11769.76   -10866.641    604.69896     102002.7      46.7237      46.7237      46.7237 
  158000    91.264933   -11814.644   -10907.651    324.67328     102002.7      46.7237      46.7237      46.7237 
  159000    92.326316   -11792.082   -10874.541    518.90427     102002.7      46.7237      46.7237      46.7237 
  160000    92.159169   -11771.874   -10855.994    692.98732     102002.7      46.7237      46.7237      46.7237 
  161000    92.851502   -11789.693   -10866.932     983.8283     102002.7      46.7237      46.7237      46.7237 
  162000    91.344634   -11790.135    -10882.35    621.29513     102002.7      46.7237      46.7237      46.7237 
  163000    89.017388   -11804.145   -10919.488    488.65161     102002.7      46.7237      46.7237      46.7237 
  164000    90.845159   -11800.111    -10897.29    604.47368     102002.7      46.7237      46.7237      46.7237 
  165000    93.489807   -11787.122   -10858.019    634.63436     102002.7      46.7237      46.7237      46.7237 
  166000    91.451138   -11804.045   -10895.202    720.15627     102002.7      46.7237      46.7237      46.7237 
  167000    93.890609   -11787.105   -10854.018    813.90789     102002.7      46.7237      46.7237      46.7237 
  168000     91.39397   -11805.891   -10897.616    444.65679     102002.7      46.7237      46.7237      46.7237 
  169000    92.799122   -11788.077   -10865.838    625.85762     102002.7      46.7237      46.7237      46.7237 
  170000    90.489995   -11781.006   -10881.715      576.459     102002.7      46.7237      46.7237      46.7237 
  171000    93.635418    -11797.92   -10867.369    673.84226     102002.7      46.7237      46.7237      46.7237 
  172000    91.337928   -11798.896   -10891.178    458.28452     102002.7      46.7237      46.7237      46.7237 
  173000    89.053503   -11784.781   -10899.765    569.94865     102002.7      46.7237      46.7237      46.7237 
  174000    88.842217   -11785.225   -10902.309    739.35955     102002.7      46.7237      46.7237      46.7237 
  175000    91.644407   -11801.846   -10891.082    852.53088     102002.7      46.7237      46.7237      46.7237 
  176000     91.15461   -11791.853   -10885.956    746.94374     102002.7      46.7237      46.7237      46.7237 
  177000    91.282739   -11792.949   -10885.779    685.57898     102002.7      46.7237      46.7237      46.7237 
  178000    91.830571   -11793.659   -10881.045    618.27807     102002.7      46.7237      46.7237      46.7237 
  179000    88.793895   -11797.274   -10914.838     477.9442     102002.7      46.7237      46.7237      46.7237 
  180000    91.013848   -11777.203   -10872.705    590.13661     102002.7      46.7237      46.7237      46.7237 
  181000    89.453946   -11796.772   -10907.777    415.85703     102002.7      46.7237      46.7237      46.7237 
  182000    92.152259   -11788.468   -10872.657     493.9337     102002.7      46.7237      46.7237      46.7237 
  183000    90.320968   -11808.248   -10910.637    620.50413     102002.7      46.7237      46.7237      46.7237 
  184000    91.914746   -11765.565   -10852.114    480.33292     102002.7      46.7237      46.7237      46.7237 
  185000    89.117341   -11789.227   -10903.577     441.6563     102002.7      46.7237      46.7237      46.7237 
  186000    93.641574   -11798.154   -10867.542    703.79655     102002.7      46.7237      46.7237      46.7237 
  187000    91.433807    -11786.22   -10877.549    775.53661     102002.7      46.7237      46.7237      46.7237 
  188000    89.440499   -11786.533   -10897.671    937.38906     102002.7      46.7237      46.7237      46.7237 
  189000    92.036677   -11797.905   -10883.243    885.91975     102002.7      46.7237      46.7237      46.7237 
  190000    90.597499   -11802.549   -10902.189    362.05801     102002.7      46.7237      46.7237      46.7237 
  191000    89.690155     -11772.3   -10880.957    496.47406     102002.7      46.7237      46.7237      46.7237 
  192000    89.766568   -11785.316   -10893.214    472.63314     102002.7      46.7237      46.7237      46.7237 
  193000    88.316074   -11787.408   -10909.721    573.27547     102002.7      46.7237      46.7237      46.7237 
  194000    91.098515   -11778.584   -10873.245    1169.4384     102002.7      46.7237      46.7237      46.7237 
  195000    92.123748    -11810.31   -10894.782    817.00059     102002.7      46.7237      46.7237      46.7237 
  196000    91.696304   -11767.054   -10855.774    725.43933     102002.7      46.7237      46.7237      46.7237 
  197000    91.009985    -11793.57   -10889.111    771.77077     102002.7      46.7237      46.7237      46.7237 
  198000    92.516323    -11791.86   -10872.431     868.7996     102002.7      46.7237      46.7237      46.7237 
  199000    91.559404   -11800.991   -10891.072    408.62089     102002.7      46.7237      46.7237      46.7237 
  200000    90.076779   -11803.816   -10908.631    539.73303     102002.7      46.7237      46.7237      46.7237 
  201000     91.21892   -11789.242   -10882.706    671.37039     102002.7      46.7237      46.7237      46.7237 
  202000    91.802006   -11805.706   -10893.376    631.26845     102002.7      46.7237      46.7237      46.7237 
  203000    90.891806   -11782.783   -10879.498      484.854     102002.7      46.7237      46.7237      46.7237 
  204000    91.716972   -11762.143   -10850.658    419.72854     102002.7      46.7237      46.7237      46.7237 
  205000    89.276942   -11800.257    -10913.02    518.85511     102002.7      46.7237      46.7237      46.7237 
  206000    90.724595   -11818.814   -10917.191    595.88083     102002.7      46.7237      46.7237      46.7237 
  207000    90.414168   -11805.349   -10906.811    604.54747     102002.7      46.7237      46.7237      46.7237 
  208000    90.651434    -11798.57   -10897.674    543.13804     102002.7      46.7237      46.7237      46.7237 
  209000    90.622319   -11799.231   -10898.624    413.38374     102002.7      46.7237      46.7237      46.7237 
  210000    90.287151   -11774.951   -10877.676    613.96954     102002.7      46.7237      46.7237      46.7237 
  211000     91.03501   -11818.343   -10913.635    449.78242     102002.7      46.7237      46.7237      46.7237 
  212000     89.42283    -11795.05   -10906.364    678.32279     102002.7      46.7237      46.7237      46.7237 
  213000    88.507088   -11756.602   -10877.017    696.48229     102002.7      46.7237      46.7237      46.7237 
  214000    90.161286   -11800.602   -10904.577    557.87124     102002.7      46.7237      46.7237      46.7237 
  215000    91.204858   -11773.331   -10866.935    868.64083     102002.7      46.7237      46.7237      46.7237 
  216000    91.002089   -11784.394   -10880.013    772.32899     102002.7      46.7237      46.7237      46.7237 
  217000    92.370717    -11786.68   -10868.698    783.39169     102002.7      46.7237      46.7237      46.7237 
  218000    92.814334   -11764.405   -10842.014    803.11497     102002.7      46.7237      46.7237      46.7237 
  219000    90.005812   -11801.149   -10906.669    584.45535     102002.7      46.7237      46.7237      46.7237 
  220000    91.813778   -11797.871   -10885.424     531.3139     102002.7      46.7237      46.7237      46.7237 
  221000    93.126507   -11789.459   -10863.966    566.86235     102002.7      46.7237      46.7237      46.7237 
  222000    89.617106   -11793.867    -10903.25    1098.9068     102002.7      46.7237      46.7237      46.7237 
  223000    91.677726   -11790.497   -10879.402    559.55338     102002.7      46.7237      46.7237      46.7237 
  224000    93.264765   -11771.687    -10844.82    779.63143     102002.7      46.7237      46.7237      46.7237 
  225000    91.460858    -11793.38    -10884.44    476.95801     102002.7      46.7237      46.7237      46.7237 
  226000    92.967298   -11764.338   -10840.427    613.52605     102002.7      46.7237      46.7237      46.7237 
  227000    90.198661   -11795.908   -10899.512    486.38387     102002.7      46.7237      46.7237      46.7237 
  228000     95.31009   -11805.466   -10858.272    758.57447     102002.7      46.7237      46.7237      46.7237 
  229000    89.330557   -11789.374   -10901.605    552.00247     102002.7      46.7237      46.7237      46.7237 
  230000    90.080548   -11810.872    -10915.65    714.77189     102002.7      46.7237      46.7237      46.7237 
  231000    92.326973   -11804.711   -10887.164    868.98745     102002.7      46.7237      46.7237      46.7237 
  232000    90.566605   -11778.252   -10878.199    851.43938     102002.7      46.7237      46.7237      46.7237 
  233000    92.414291   -11779.454   -10861.039    753.81977     102002.7      46.7237      46.7237      46.7237 
  234000    92.655693   -11794.198   -10873.384    680.43743     102002.7      46.7237      46.7237      46.7237 
  235000    93.325136   -11783.347    -10855.88    704.16492     102002.7      46.7237      46.7237      46.7237 
  236000    92.220256   -11791.526   -10875.039    463.76728     102002.7      46.7237      46.7237      46.7237 
  237000    90.220215   -11772.401    -10875.79    697.91736     102002.7      46.7237      46.7237      46.7237 
  238000    92.220767   -11787.635   -10871.143    496.37632     102002.7      46.7237      46.7237      46.7237 
  239000    90.355052   -11784.223   -10886.273    664.06374     102002.7      46.7237      46.7237      46.7237 
  240000    88.924193   -11777.196   -10893.466    776.44134     102002.7      46.7237      46.7237      46.7237 
  241000    92.754754    -11806.79   -10884.992    549.17167     102002.7      46.7237      46.7237      46.7237 
  242000    92.042834   -11774.881   -10860.158    478.81663     102002.7      46.7237      46.7237      46.7237 
  243000    89.665856   -11800.881    -10909.78    846.97373     102002.7      46.7237      46.7237      46.7237 
  244000    91.150194   -11792.248   -10886.396     320.0832     102002.7      46.7237      46.7237      46.7237 
  245000    91.554087   -11784.956    -10875.09    657.52261     102002.7      46.7237      46.7237      46.7237 
  246000    89.940683   -11790.816   -10896.984     872.6822     102002.7      46.7237      46.7237      46.7237 
  247000    93.108585   -11798.302   -10872.987    698.20728     102002.7      46.7237      46.7237      46.7237 
  248000    90.741752   -11787.889   -10886.096    693.42733     102002.7      46.7237      46.7237      46.7237 
  249000    91.053018   -11794.553   -10889.666    524.80273     102002.7      46.7237      46.7237      46.7237 
  250000    90.271188   -11803.462   -10906.345    690.76943     102002.7      46.7237      46.7237      46.7237 
  251000    91.230253   -11774.941   -10868.293    848.40611     102002.7      46.7237      46.7237      46.7237 
  252000    91.805929   -11785.854   -10873.485    529.72644     102002.7      46.7237      46.7237      46.7237 
  253000    92.144857   -11817.161   -10901.423     594.9607     102002.7      46.7237      46.7237      46.7237 
  254000    93.654743   -11788.106   -10857.363    985.97601     102002.7      46.7237      46.7237      46.7237 
  255000    90.335858   -11789.575   -10891.815    592.20556     102002.7      46.7237      46.7237      46.7237 
  256000    91.127275   -11786.106   -10880.481    643.08497     102002.7      46.7237      46.7237      46.7237 
  257000    89.168834   -11796.055   -10909.894    785.07417     102002.7      46.7237      46.7237      46.7237 
  258000    88.925574   -11809.574   -10925.829    750.06943     102002.7      46.7237      46.7237      46.7237 
  259000    89.889099   -11792.498   -10899.178    717.06903     102002.7      46.7237      46.7237      46.7237 
  260000    90.850891   -11781.243   -10878.365    762.20059     102002.7      46.7237      46.7237      46.7237 
  261000    89.776128   -11777.995   -10885.798     740.1794     102002.7      46.7237      46.7237      46.7237 
  262000    91.195401   -11786.845   -10880.544    651.13679     102002.7      46.7237      46.7237      46.7237 
  263000     89.69333   -11820.302   -10928.928    498.29454     102002.7      46.7237      46.7237      46.7237 
  264000    90.437679   -11798.229   -10899.458    824.05167     102002.7      46.7237      46.7237      46.7237 
  265000    92.215902   -11780.728   -10864.285    967.24526     102002.7      46.7237      46.7237      46.7237 
  266000    88.954931   -11798.061   -10914.025    628.03665     102002.7      46.7237      46.7237      46.7237 
  267000    92.157504   -11776.378   -10860.515    445.98419     102002.7      46.7237      46.7237      46.7237 
  268000    90.438951   -11792.703   -10893.918    692.99373     102002.7      46.7237      46.7237      46.7237 
  269000    93.616376    -11791.77   -10861.409    587.73393     102002.7      46.7237      46.7237      46.7237 
  270000    94.521646   -11801.347   -10861.989    499.53606     102002.7      46.7237      46.7237      46.7237 
  271000    90.519507    -11781.57   -10881.986    514.94242     102002.7      46.7237      46.7237      46.7237 
  272000    92.455522   -11770.995    -10852.17    625.24106     102002.7      46.7237      46.7237      46.7237 
  273000    91.227225   -11776.658    -10870.04    847.81919     102002.7      46.7237      46.7237      46.7237 
  274000     90.57367   -11776.723     -10876.6    460.94951     102002.7      46.7237      46.7237      46.7237 
  275000    92.187986   -11781.357    -10865.19    634.60361     102002.7      46.7237      46.7237      46.7237 
  276000    90.735043   -11784.484   -10882.757     804.6052     102002.7      46.7237      46.7237      46.7237 
  277000      89.6469   -11787.225   -10896.312    571.70541     102002.7      46.7237      46.7237      46.7237 
  278000    95.257369    -11770.54    -10823.87    674.42666     102002.7      46.7237      46.7237      46.7237 
  279000    90.935227   -11792.895   -10889.179    735.22831     102002.7      46.7237      46.7237      46.7237 
  280000    91.447049    -11803.56   -10894.757    606.38891     102002.7      46.7237      46.7237      46.7237 
  281000    90.324586   -11784.681   -10887.033    714.48871     102002.7      46.7237      46.7237      46.7237 
  282000    90.335099   -11783.825   -10886.073    893.79544     102002.7      46.7237      46.7237      46.7237 
  283000    93.067588   -11774.459   -10849.551    704.37883     102002.7      46.7237      46.7237      46.7237 
  284000    89.521145   -11786.473    -10896.81    724.20956     102002.7      46.7237      46.7237      46.7237 
  285000    90.056156   -11778.956   -10883.976    863.99335     102002.7      46.7237      46.7237      46.7237 
  286000    90.677155   -11809.615   -10908.463    702.54395     102002.7      46.7237      46.7237      46.7237 
  287000     89.81883   -11788.871    -10896.25    588.01212     102002.7      46.7237      46.7237      46.7237 
  288000    90.381904   -11787.687    -10889.47    701.54418     102002.7      46.7237      46.7237      46.7237 
  289000    92.658254   -11766.711   -10845.871    681.34376     102002.7      46.7237      46.7237      46.7237 
  290000    90.294895   -11814.002   -10916.649    553.49158     102002.7      46.7237      46.7237      46.7237 
  291000    91.318949    -11787.31   -10879.781    735.18424     102002.7      46.7237      46.7237      46.7237 
  292000    91.406515   -11786.341   -10877.942     870.9061     102002.7      46.7237      46.7237      46.7237 
  293000    90.995088   -11790.145   -10885.834    747.69815     102002.7      46.7237      46.7237      46.7237 
  294000    91.830522    -11808.53   -10895.917    745.61885     102002.7      46.7237      46.7237      46.7237 
  295000    91.568582    -11788.47    -10878.46    750.02265     102002.7      46.7237      46.7237      46.7237 
  296000    91.668209   -11801.675   -10890.674     926.0594     102002.7      46.7237      46.7237      46.7237 
  297000    90.620839   -11808.812    -10908.22    905.41483     102002.7      46.7237      46.7237      46.7237 
  298000    92.584594   -11793.293   -10873.185    872.46266     102002.7      46.7237      46.7237      46.7237 
  299000      89.2043   -11809.863   -10923.348    577.20744     102002.7      46.7237      46.7237      46.7237 
  300000    90.012071   -11788.172    -10893.63     560.8081     102002.7      46.7237      46.7237      46.7237 
  301000    93.023296   -11791.669   -10867.202    503.93683     102002.7      46.7237      46.7237      46.7237 
  302000    91.729664   -11797.071    -10885.46    737.52396     102002.7      46.7237      46.7237      46.7237 
  303000    91.547455   -11764.756   -10854.955    813.81832     102002.7      46.7237      46.7237      46.7237 
  304000    90.144842   -11779.412   -10883.551    538.28495     102002.7      46.7237      46.7237      46.7237 
  305000    91.771547   -11812.867   -10900.839    822.23386     102002.7      46.7237      46.7237      46.7237 
  306000    89.381589    -11781.37   -10893.094    880.48553     102002.7      46.7237      46.7237      46.7237 
  307000    92.236902   -11792.865   -10876.213    729.05684     102002.7      46.7237      46.7237      46.7237 
  308000     89.73462   -11828.444   -10936.659    664.76474     102002.7      46.7237      46.7237      46.7237 
  309000     91.01345   -11758.466   -10853.972    863.82934     102002.7      46.7237      46.7237      46.7237 
  310000      91.0693   -11815.193   -10910.144    711.43497     102002.7      46.7237      46.7237      46.7237 
  311000    92.040497   -11781.238   -10866.538      658.537     102002.7      46.7237      46.7237      46.7237 
  312000     88.46578   -11785.158   -10905.983     528.4501     102002.7      46.7237      46.7237      46.7237 
  313000    89.864726   -11802.295   -10909.218    615.35639     102002.7      46.7237      46.7237      46.7237 
  314000     92.15983   -11798.256   -10882.369    806.35086     102002.7      46.7237      46.7237      46.7237 
  315000    90.627253   -11802.694   -10902.039    495.65125     102002.7      46.7237      46.7237      46.7237 
  316000     90.89887   -11789.773   -10886.419    683.26619     102002.7      46.7237      46.7237      46.7237 
  317000     90.18922   -11801.078   -10904.776    505.44928     102002.7      46.7237      46.7237      46.7237 
  318000    90.760474   -11802.104   -10900.125     826.3703     102002.7      46.7237      46.7237      46.7237 
  319000    91.834799   -11772.228   -10859.572    843.54313     102002.7      46.7237      46.7237      46.7237 
  320000    90.559803   -11790.678   -10890.692     588.9934     102002.7      46.7237      46.7237      46.7237 
  321000    92.480927   -11810.156   -10891.078    469.34452     102002.7      46.7237      46.7237      46.7237 
  322000    89.469215    -11801.37   -10912.223    531.79748     102002.7      46.7237      46.7237      46.7237 
  323000    91.106675   -11812.437   -10907.017    554.09162     102002.7      46.7237      46.7237      46.7237 
  324000     91.86807   -11814.867   -10901.881    816.69399     102002.7      46.7237      46.7237      46.7237 
  325000    91.763646   -11801.122   -10889.173    701.30016     102002.7      46.7237      46.7237      46.7237 
  326000    90.593286   -11809.055   -10908.737    437.39954     102002.7      46.7237      46.7237      46.7237 
  327000    89.910215   -11825.155   -10931.626      311.434     102002.7      46.7237      46.7237      46.7237 
  328000    90.213514   -11813.027   -10916.483    550.69643     102002.7      46.7237      46.7237      46.7237 
  329000    90.270712   -11806.921   -10909.809    716.90167     102002.7      46.7237      46.7237      46.7237 
  330000    90.455089   -11793.052   -10894.108    573.29776     102002.7      46.7237      46.7237      46.7237 
  331000    88.924102   -11810.423   -10926.693    725.93628     102002.7      46.7237      46.7237      46.7237 
  332000    90.321622   -11802.244   -10904.626    551.54941     102002.7      46.7237      46.7237      46.7237 
  333000    87.968751   -11809.796   -10935.561    663.57727     102002.7      46.7237      46.7237      46.7237 
  334000     91.54015   -11814.292   -10904.564    718.20701     102002.7      46.7237      46.7237      46.7237 
  335000    89.019827   -11808.982   -10924.301    453.60806     102002.7      46.7237      46.7237      46.7237 
  336000    91.238587   -11791.369   -10884.638    771.00931     102002.7      46.7237      46.7237      46.7237 
  337000    89.488932   -11817.982   -10928.639    867.78824     102002.7      46.7237      46.7237      46.7237 
  338000    89.168711   -11794.564   -10908.404    550.60681     102002.7      46.7237      46.7237      46.7237 
  339000    90.913445   -11820.803   -10917.303    728.52473     102002.7      46.7237      46.7237      46.7237 
  340000    92.195414    -11797.24       -10881    274.30794     102002.7      46.7237      46.7237      46.7237 
  341000    91.594223   -11798.061   -10887.796    462.06193     102002.7      46.7237      46.7237      46.7237 
  342000    89.904791   -11800.241   -10906.765    661.78047     102002.7      46.7237      46.7237      46.7237 
  343000    91.002914   -11801.746   -10897.357    646.11662     102002.7      46.7237      46.7237      46.7237 
  344000    92.217099    -11786.32   -10869.865    881.89338     102002.7      46.7237      46.7237      46.7237 
  345000    90.580408   -11801.086   -10900.896    898.81471     102002.7      46.7237      46.7237      46.7237 
  346000    90.745008   -11801.714   -10899.888    449.48488     102002.7      46.7237      46.7237      46.7237 
  347000    90.199257   -11797.503   -10901.101     563.1842     102002.7      46.7237      46.7237      46.7237 
  348000    90.579748   -11783.646   -10883.462    735.08916     102002.7      46.7237      46.7237      46.7237 
  349000    89.343018   -11802.698   -10914.805    672.30783     102002.7      46.7237      46.7237      46.7237 
  350000    92.225411   -11780.934   -10864.396    819.16179     102002.7      46.7237      46.7237      46.7237 
  351000    89.830778   -11789.543   -10896.803    873.50513     102002.7      46.7237      46.7237      46.7237 
  352000    91.479297   -11792.841   -10883.718    624.19099     102002.7      46.7237      46.7237      46.7237 
  353000    90.919878    -11802.06   -10898.497     777.9354     102002.7      46.7237      46.7237      46.7237 
  354000    91.124657   -11811.901   -10906.302    835.24132     102002.7      46.7237      46.7237      46.7237 
  355000     92.48501   -11785.846   -10866.728     891.4047     102002.7      46.7237      46.7237      46.7237 
  356000    91.405801   -11810.084   -10901.692    703.79728     102002.7      46.7237      46.7237      46.7237 
  357000    90.267458   -11789.789   -10892.709    655.86672     102002.7      46.7237      46.7237      46.7237 
  358000    90.830068   -11821.668   -10918.997    751.34686     102002.7      46.7237      46.7237      46.7237 
  359000    89.785435   -11790.523   -10898.234     925.4999     102002.7      46.7237      46.7237      46.7237 
  360000    91.161435   -11796.696   -10890.731    825.69657     102002.7      46.7237      46.7237      46.7237 
  361000    91.737761   -11810.575   -10898.884    775.15257     102002.7      46.7237      46.7237      46.7237 
  362000    91.700239   -11793.038   -10881.719    833.69431     102002.7      46.7237      46.7237      46.7237 
  363000    91.207333   -11816.493   -10910.073    667.85886     102002.7      46.7237      46.7237      46.7237 
  364000    91.826644   -11757.334   -10844.759    627.99692     102002.7      46.7237      46.7237      46.7237 
  365000    89.649941   -11802.032   -10911.089    630.85376     102002.7      46.7237      46.7237      46.7237 
  366000    92.789893   -11808.102   -10885.954    591.19781     102002.7      46.7237      46.7237      46.7237 
  367000    90.586915   -11786.878   -10886.623    1077.7229     102002.7      46.7237      46.7237      46.7237 
  368000    89.426067   -11799.347   -10910.629    919.42387     102002.7      46.7237      46.7237      46.7237 
  369000    91.033849   -11804.153   -10899.456    823.50185     102002.7      46.7237      46.7237      46.7237 
  370000    92.005247   -11802.005   -10887.655     698.0192     102002.7      46.7237      46.7237      46.7237 
  371000    91.406724    -11786.81   -10878.408    414.66156     102002.7      46.7237      46.7237      46.7237 
  372000    91.852414   -11785.489   -10872.658    795.03345     102002.7      46.7237      46.7237      46.7237 
  373000    91.418135    -11829.08   -10920.565    751.75711     102002.7      46.7237      46.7237      46.7237 
  374000    91.981681   -11812.856    -10898.74    840.96728     102002.7      46.7237      46.7237      46.7237 
  375000    92.687837   -11815.857   -10894.724    639.36797     102002.7      46.7237      46.7237      46.7237 
  376000    91.973543   -11825.198   -10911.163    597.15546     102002.7      46.7237      46.7237      46.7237 
  377000    91.419581    -11788.43     -10879.9    636.07681     102002.7      46.7237      46.7237      46.7237 
  378000    90.659037   -11819.381   -10918.409    677.07595     102002.7      46.7237      46.7237      46.7237 
  379000     92.01424   -11818.872   -10904.433    732.51952     102002.7      46.7237      46.7237      46.7237 
  380000    92.105603   -11798.562   -10883.215    899.76794     102002.7      46.7237      46.7237      46.7237 
  381000    91.499085    -11813.85    -10904.53    502.51619     102002.7      46.7237      46.7237      46.7237 
  382000    89.799022   -11811.823   -10919.398    464.74141     102002.7      46.7237      46.7237      46.7237 
  383000    91.395645   -11789.424   -10881.132    581.33401     102002.7      46.7237      46.7237      46.7237 
  384000    91.365668   -11801.948   -10893.954    732.76324     102002.7      46.7237      46.7237      46.7237 
  385000    90.619972   -11800.024   -10899.441    633.18797     102002.7      46.7237      46.7237      46.7237 
  386000    91.755445   -11798.055   -10886.188    953.49719     102002.7      46.7237      46.7237      46.7237 
  387000    89.946239   -11793.798   -10899.911    590.00161     102002.7      46.7237      46.7237      46.7237 
  388000    89.993297   -11817.593   -10923.238    601.66081     102002.7      46.7237      46.7237      46.7237 
  389000    90.411844   -11787.799   -10889.284    892.87768     102002.7      46.7237      46.7237      46.7237 
  390000    90.276742   -11812.646   -10915.474    579.38262     102002.7      46.7237      46.7237      46.7237 
  391000    91.159176   -11816.687   -10910.745    758.07822     102002.7      46.7237      46.7237      46.7237 
  392000    88.856537   -11811.601   -10928.543    718.60867     102002.7      46.7237      46.7237      46.7237 
  393000    90.724366   -11789.489   -10887.869    521.10754     102002.7      46.7237      46.7237      46.7237 
  394000    89.913152   -11825.411   -10931.852    712.79347     102002.7      46.7237      46.7237      46.7237 
  395000    90.315819   -11803.853   -10906.292    791.50911     102002.7      46.7237      46.7237      46.7237 
  396000    88.694526    -11801.08   -10919.632    694.63669     102002.7      46.7237      46.7237      46.7237 
  397000     92.69866   -11820.457   -10899.215    576.22125     102002.7      46.7237      46.7237      46.7237 
  398000    91.044174   -11794.933   -10890.134    844.18263     102002.7      46.7237      46.7237      46.7237 
  399000    92.091176   -11779.106   -10863.902     536.7835     102002.7      46.7237      46.7237      46.7237 
  400000    91.658149   -11809.895   -10898.995    454.23056     102002.7      46.7237      46.7237      46.7237 
  401000    88.028403   -11782.271   -10907.442    793.40818     102002.7      46.7237      46.7237      46.7237 
  402000    92.136174   -11798.178   -10882.526    588.07265     102002.7      46.7237      46.7237      46.7237 
  403000    91.172125   -11825.605   -10919.534    854.98649     102002.7      46.7237      46.7237      46.7237 
  404000    89.092527   -11803.434    -10918.03    685.07659     102002.7      46.7237      46.7237      46.7237 
  405000    92.373285   -11805.734   -10887.727    984.16522     102002.7      46.7237      46.7237      46.7237 
  406000    92.623066   -11781.186   -10860.696    792.51002     102002.7      46.7237      46.7237      46.7237 
  407000    91.977911   -11795.864   -10881.786    620.73453     102002.7      46.7237      46.7237      46.7237 
  408000    88.241775   -11794.835   -10917.886    975.62394     102002.7      46.7237      46.7237      46.7237 
  409000    91.561834    -11799.27   -10889.327    729.77228     102002.7      46.7237      46.7237      46.7237 
  410000    89.351593   -11817.871   -10929.893    837.06995     102002.7      46.7237      46.7237      46.7237 
  411000    92.146665   -11796.746    -10880.99    754.67889     102002.7      46.7237      46.7237      46.7237 
  412000    89.344143   -11787.171   -10899.267    317.29023     102002.7      46.7237      46.7237      46.7237 
  413000    91.045202   -11820.183   -10915.374    278.14448     102002.7      46.7237      46.7237      46.7237 
  414000    91.987564   -11806.962   -10892.788    734.14581     102002.7      46.7237      46.7237      46.7237 
  415000    92.127268   -11797.565   -10882.003    744.41366     102002.7      46.7237      46.7237      46.7237 
  416000    91.566465   -11816.993   -10907.004    783.98402     102002.7      46.7237      46.7237      46.7237 
  417000    91.098706   -11801.383   -10896.042       823.99     102002.7      46.7237      46.7237      46.7237 
  418000    87.817577   -11800.578   -10927.845    546.95339     102002.7      46.7237      46.7237      46.7237 
  419000    90.788877   -11796.079   -10893.818     741.0656     102002.7      46.7237      46.7237      46.7237 
  420000    89.350341   -11818.677   -10930.712    750.78858     102002.7      46.7237      46.7237      46.7237 
  421000      90.6187   -11802.262   -10901.691     596.6215     102002.7      46.7237      46.7237      46.7237 
  422000     91.18968   -11799.155    -10892.91    524.01453     102002.7      46.7237      46.7237      46.7237 
  423000    91.436308   -11802.917   -10894.222    547.91187     102002.7      46.7237      46.7237      46.7237 
  424000    90.871838   -11803.547   -10900.461    555.99231     102002.7      46.7237      46.7237      46.7237 
  425000    90.343148    -11769.57   -10871.738    755.62254     102002.7      46.7237      46.7237      46.7237 
  426000    91.984533   -11813.562   -10899.418    363.62212     102002.7      46.7237      46.7237      46.7237 
  427000     90.33366   -11816.709   -10918.971    652.57818     102002.7      46.7237      46.7237      46.7237 
  428000    89.166173   -11790.258   -10904.123    637.24976     102002.7      46.7237      46.7237      46.7237 
  429000    92.258477   -11787.844   -10870.977    739.44553     102002.7      46.7237      46.7237      46.7237 
  430000    89.800195   -11797.301   -10904.865    394.12837     102002.7      46.7237      46.7237      46.7237 
  431000    90.804128   -11818.183    -10915.77    310.72902     102002.7      46.7237      46.7237      46.7237 
  432000    90.505985   -11816.167   -10916.716     734.5646     102002.7      46.7237      46.7237      46.7237 
  433000     91.71919   -11802.258    -10890.75    647.55134     102002.7      46.7237      46.7237      46.7237 
  434000    89.648401   -11805.127   -10914.199    710.45755     102002.7      46.7237      46.7237      46.7237 
  435000    89.340262   -11804.146   -10916.281    834.35914     102002.7      46.7237      46.7237      46.7237 
  436000    88.847151   -11792.031   -10909.066    845.80548     102002.7      46.7237      46.7237      46.7237 
  437000    89.777315   -11803.759   -10911.551    912.50983     102002.7      46.7237      46.7237      46.7237 
  438000    90.974067   -11796.439   -10892.337    734.44215     102002.7      46.7237      46.7237      46.7237 
  439000     92.48493   -11790.726   -10871.609    493.79499     102002.7      46.7237      46.7237      46.7237 
  440000    91.102789   -11813.608   -10908.227    545.09131     102002.7      46.7237      46.7237      46.7237 
  441000    88.876745   -11823.798   -10940.539    511.67883     102002.7      46.7237      46.7237      46.7237 
  442000    90.748419   -11844.304   -10942.445    704.78369     102002.7      46.7237      46.7237      46.7237 
  443000    91.754007   -11807.726   -10895.873    885.19311     102002.7      46.7237      46.7237      46.7237 
  444000    90.721302   -11767.477   -10865.887    747.67792     102002.7      46.7237      46.7237      46.7237 
  445000    92.036384   -11819.021   -10904.361    968.88757     102002.7      46.7237      46.7237      46.7237 
  446000    91.679383   -11801.536   -10890.425    1008.4955     102002.7      46.7237      46.7237      46.7237 
  447000    89.025648   -11777.898    -10893.16    866.25325     102002.7      46.7237      46.7237      46.7237 
  448000    90.863669   -11823.751   -10920.746    677.25435     102002.7      46.7237      46.7237      46.7237 
  449000    91.121853    -11796.81   -10891.239    266.59545     102002.7      46.7237      46.7237      46.7237 
  450000    89.921331   -11812.563   -10918.923    584.73548     102002.7      46.7237      46.7237      46.7237 
  451000    90.982748   -11813.892   -10909.704    448.65736     102002.7      46.7237      46.7237      46.7237 
  452000    91.342019   -11783.773   -10876.014    622.99025     102002.7      46.7237      46.7237      46.7237 
  453000    89.654649   -11797.181   -10906.191    981.55351     102002.7      46.7237      46.7237      46.7237 
  454000    90.409598   -11779.115   -10880.623    640.20688     102002.7      46.7237      46.7237      46.7237 
  455000    89.473721   -11813.869   -10924.677    934.91905     102002.7      46.7237      46.7237      46.7237 
  456000    91.351829   -11781.393   -10873.537    1054.7713     102002.7      46.7237      46.7237      46.7237 
  457000     92.48012   -11816.699    -10897.63    349.95376     102002.7      46.7237      46.7237      46.7237 
  458000    91.541334   -11784.624   -10874.885      436.825     102002.7      46.7237      46.7237      46.7237 
  459000    90.365531    -11796.56   -10898.506    376.11678     102002.7      46.7237      46.7237      46.7237 
  460000    90.301135   -11814.258   -10916.843    739.71192     102002.7      46.7237      46.7237      46.7237 
  461000    92.516117    -11814.91   -10895.483    468.31665     102002.7      46.7237      46.7237      46.7237 
  462000    91.043548   -11804.654   -10899.861    823.98559     102002.7      46.7237      46.7237      46.7237 
  463000     90.42948    -11796.87    -10898.18    702.22361     102002.7      46.7237      46.7237      46.7237 
  464000     91.17142   -11802.808   -10896.745     781.6862     102002.7      46.7237      46.7237      46.7237 
  465000    89.263873   -11787.001   -10899.895    862.35632     102002.7      46.7237      46.7237      46.7237 
  466000    91.142053   -11816.723   -10910.952    722.03082     102002.7      46.7237      46.7237      46.7237 
  467000    93.250975   -11797.773   -10871.043    800.20675     102002.7      46.7237      46.7237      46.7237 
  468000    89.823486   -11804.804   -10912.136    506.37712     102002.7      46.7237      46.7237      46.7237 
  469000    92.423009    -11792.16   -10873.658    763.98829     102002.7      46.7237      46.7237      46.7237 
  470000    90.623481   -11804.883   -10904.265    543.20445     102002.7      46.7237      46.7237      46.7237 
  471000    89.706132   -11792.465   -10900.964    222.83826     102002.7      46.7237      46.7237      46.7237 
  472000    91.426433   -11800.057   -10891.459    662.92839     102002.7      46.7237      46.7237      46.7237 
  473000    90.570482   -11823.129   -10923.038     688.9609     102002.7      46.7237      46.7237      46.7237 
  474000    91.126859    -11805.34    -10899.72     661.8107     102002.7      46.7237      46.7237      46.7237 
  475000    93.066472   -11804.326   -10879.429    423.01627     102002.7      46.7237      46.7237      46.7237 
  476000    91.139594   -11808.475   -10902.728    651.69083     102002.7      46.7237      46.7237      46.7237 
  477000    89.709056   -11826.195   -10934.664    867.88044     102002.7      46.7237      46.7237      46.7237 
  478000    89.901114    -11787.81   -10894.371    770.20613     102002.7      46.7237      46.7237      46.7237 
  479000     91.73496   -11818.485   -10906.821     722.9838     102002.7      46.7237      46.7237      46.7237 
  480000     91.22283   -11821.036   -10914.462    508.94184     102002.7      46.7237      46.7237      46.7237 
  481000    91.793387   -11803.009   -10890.764    501.76081     102002.7      46.7237      46.7237      46.7237 
  482000    91.696529   -11802.505   -10891.223    759.69885     102002.7      46.7237      46.7237      46.7237 
  483000    92.597074   -11806.972   -10886.741    919.57895     102002.7      46.7237      46.7237      46.7237 
  484000    91.613484   -11791.906    -10881.45    712.67924     102002.7      46.7237      46.7237      46.7237 
  485000    91.143739   -11790.695   -10884.906    575.10191     102002.7      46.7237      46.7237      46.7237 
  486000    93.299858    -11814.29   -10887.074    548.21147     102002.7      46.7237      46.7237      46.7237 
  487000     92.33386   -11807.951   -10890.335    634.70893     102002.7      46.7237      46.7237      46.7237 
  488000    91.672908   -11798.361   -10887.314    647.36634     102002.7      46.7237      46.7237      46.7237 
  489000      89.9788   -11800.846   -10906.635    667.65097     102002.7      46.7237      46.7237      46.7237 
  490000    92.172416   -11797.995   -10881.983    766.17986     102002.7      46.7237      46.7237      46.7237 
  491000    91.985403   -11818.923    -10904.77    888.80113     102002.7      46.7237      46.7237      46.7237 
  492000    90.882898   -11792.007   -10888.811    839.03446     102002.7      46.7237      46.7237      46.7237 
  493000    90.555467    -11800.29   -10900.347    841.23281     102002.7      46.7237      46.7237      46.7237 
  494000    91.382442   -11822.412   -10914.252    706.53796     102002.7      46.7237      46.7237      46.7237 
  495000    91.506846   -11807.342   -10897.945    657.27429     102002.7      46.7237      46.7237      46.7237 
  496000    91.719963   -11780.922   -10869.407      747.759     102002.7      46.7237      46.7237      46.7237 
  497000    88.642767   -11801.057   -10920.123    596.40937     102002.7      46.7237      46.7237      46.7237 
  498000    91.771943   -11793.567   -10881.536    656.26143     102002.7      46.7237      46.7237      46.7237 
  499000    91.797514   -11802.957   -10890.671    559.35943     102002.7      46.7237      46.7237      46.7237 
  500000    90.295264   -11809.242   -10911.886    674.20093     102002.7      46.7237      46.7237      46.7237 
  500500    91.268943   -11828.434   -10921.402    489.67774     102002.7      46.7237      46.7237      46.7237 
Loop time of 1983.75 on 16 procs for 500000 steps with 3335 atoms

Performance: 21.777 ns/day, 1.102 hours/ns, 252.048 timesteps/s
99.8% CPU use with 16 MPI tasks x no OpenMP threads

MPI task timing breakdown:
Section |  min time  |  avg time  |  max time  |%varavg| %total
---------------------------------------------------------------
Pair    | 905.76     | 1222.6     | 1593.4     | 515.4 | 61.63
Bond    | 119.42     | 174.86     | 218.96     | 201.2 |  8.81
Neigh   | 15.109     | 15.193     | 15.271     |   1.9 |  0.77
Comm    | 137.64     | 552.09     | 888.53     | 838.4 | 27.83
Output  | 0.030159   | 0.031208   | 0.035622   |   0.7 |  0.00
Modify  | 10.235     | 11.841     | 13.138     |  29.7 |  0.60
Other   |            | 7.097      |            |       |  0.36

Nlocal:    208.438 ave 245 max 176 min
Histogram: 2 2 1 1 2 2 1 3 1 1
Nghost:    4191.75 ave 4241 max 4157 min
Histogram: 3 2 0 4 0 3 2 1 0 1
Neighs:    11476.4 ave 16089 max 6157 min
Histogram: 2 0 1 1 5 0 3 1 0 3

Total # of neighbors = 183622
Ave neighs/atom = 55.0591
Ave special neighs/atom = 3.45427
Neighbor list builds = 4033
Dangerous builds = 0
Neighbor list info ...
  update every 1 steps, delay 10 steps, check yes
  max neighbors/atom: 2000, page size: 100000
  master list distance cutoff = 16
  ghost atom cutoff = 16
  binsize = 8, bins = 6 6 6
  3 neighbor lists, perpetual/occasional/extra = 3 0 0
  (1) pair buck6d/coul/gauss/dsf, perpetual, skip from (3)
      attributes: half, newton on
      pair build: skip
      stencil: none
      bin: none
  (2) pair lj/cut, perpetual, skip from (3)
      attributes: half, newton on
      pair build: skip
      stencil: none
      bin: none
  (3) neighbor class addition, perpetual
      attributes: half, newton on
      pair build: half/bin/newton
      stencil: half/bin/3d/newton
      bin: standard
Setting up Verlet run ...
  Unit style    : real
  Current step  : 500500
  Time step     : 1
WARNING: Inconsistent image flags (../domain.cpp:786)
Per MPI rank memory allocation (min/avg/max) = 22.67 | 23.24 | 23.45 Mbytes
Step Time TotEng KinEng PotEng E_mol E_pair Temp Pxx Pyy Pzz Pxy Pxz Pyz Cella Cellb Cellc CellAlpha CellBeta CellGamma Volume Press 
  500500       500000   -10921.402    907.03264   -11828.434    4153.8575   -15982.292    91.268943     493.6667    606.57009    368.79644    144.55059    208.50046   -26.649667      46.7237      46.7237      46.7237           90           90           90     102002.7    489.67774 
  501000       500500   -10897.536     913.8083   -11811.344     4157.325   -15968.669    91.950734    257.63552     801.9837    643.17497    -52.20966    8.1521348    202.11075      46.7237      46.7237      46.7237           90           90           90     102002.7    567.59806 
  502000       501500   -10921.338    898.44544   -11819.783    4146.9757   -15966.759    90.404867    527.68869    974.62868    835.38301     172.3075   -157.28364    253.19918      46.7237      46.7237      46.7237           90           90           90     102002.7    779.23346 
  503000       502500   -10864.097    928.52729   -11792.625    4177.9258    -15970.55    93.431813    415.23313    1148.3741    954.06856   -183.82283   -168.41473    57.800868      46.7237      46.7237      46.7237           90           90           90     102002.7    839.22526 
  504000       503500   -10916.346    898.06301   -11814.409    4153.5055   -15967.915    90.366385    123.77502    645.34381    663.24178    225.31736    97.133349    65.972091      46.7237      46.7237      46.7237           90           90           90     102002.7    477.45353 
  505000       504500   -10919.348    887.96978   -11807.318    4156.3325    -15963.65    89.350768    541.92546    756.99843    1021.4588    79.060592   -11.637856    32.515456      46.7237      46.7237      46.7237           90           90           90     102002.7    773.46088 
  506000       505500   -10902.116    900.67073   -11802.786    4159.0525   -15961.839    90.628783    347.39128    831.33991    755.83841    -52.78747   -303.44136   -95.507837      46.7237      46.7237      46.7237           90           90           90     102002.7    644.85653 
  507000       506500   -10903.192    921.38238   -11824.575    4144.5881   -15969.163    92.712866    252.02346    1074.8952    815.78064   -4.8440659    153.81042    120.61987      46.7237      46.7237      46.7237           90           90           90     102002.7    714.23311 
  508000       507500   -10879.125    916.96495    -11796.09    4175.8317   -15971.922    92.268368    326.82634    972.17948     1016.908    78.516698    33.601588    43.660542      46.7237      46.7237      46.7237           90           90           90     102002.7    771.97127 
  509000       508500   -10912.957    922.10192   -11835.059    4142.0327   -15977.092    92.785268    314.46237    580.48137     585.5848    61.238923    44.054948    -18.76178      46.7237      46.7237      46.7237           90           90           90     102002.7    493.50951 
  510000       509500   -10918.374     895.2902   -11813.664    4155.9869   -15969.651    90.087376    389.38165    748.20572    845.80685    92.471069   -2.9436966   -95.066596      46.7237      46.7237      46.7237           90           90           90     102002.7    661.13141 
  511000       510500   -10905.553    890.86717    -11796.42    4173.7953   -15970.215    89.642313    485.25091    846.19456    485.93264    109.78784    -25.62533   -155.98766      46.7237      46.7237      46.7237           90           90           90     102002.7     605.7927 
  512000       511500   -10872.216    918.50402    -11790.72    4168.5435   -15959.264    92.423234    311.66422    1112.6162    842.54811   -101.44007    148.11071   -27.971927      46.7237      46.7237      46.7237           90           90           90     102002.7    755.60951 
  513000       512500   -10897.247    896.56202   -11793.809    4171.7765   -15965.585     90.21535    555.63643     927.8807    956.74657    235.53607    26.885672   -28.226144      46.7237      46.7237      46.7237           90           90           90     102002.7    813.42123 
  514000       513500   -10889.565    915.30497    -11804.87    4169.6446   -15974.515    92.101334    445.05412    356.92906    750.55502    67.442787    47.095511    106.60235      46.7237      46.7237      46.7237           90           90           90     102002.7    517.51273 
  515000       514500   -10930.211    894.39326   -11824.604    4157.1297   -15981.734    89.997122    307.02558    377.35361    731.11442    96.349864   -308.06249    49.162799      46.7237      46.7237      46.7237           90           90           90     102002.7     471.8312 
  516000       515500   -10902.536    897.33846   -11799.874    4158.3467   -15958.221    90.293478    535.03248     791.1938    759.22611    46.395928    -37.48624    166.13799      46.7237      46.7237      46.7237           90           90           90     102002.7     695.1508 
  517000       516500   -10828.368    940.54804   -11768.916    4192.7112   -15961.627    94.641385    265.23087    1213.0883    734.67083    74.539114     217.6395   -64.878004      46.7237      46.7237      46.7237           90           90           90     102002.7    737.66333 
  518000       517500    -10883.28    904.46674   -11787.746    4159.6125   -15947.359    91.010752    274.85885      1013.14    949.47342   -3.7285908    247.49783   -220.82114      46.7237      46.7237      46.7237           90           90           90     102002.7    745.82409 
  519000       518500   -10895.422    897.06319   -11792.486    4156.7034   -15949.189     90.26578    361.93254    781.39226    900.85112     27.90316   -61.298309    36.135644      46.7237      46.7237      46.7237           90           90           90     102002.7    681.39197 
  520000       519500   -10858.383    934.64164   -11793.024    4181.2313   -15974.256    94.047061    395.08198    375.74305    633.37783   -152.67024   -7.2033168    112.77847      46.7237      46.7237      46.7237           90           90           90     102002.7    468.06762 
  521000       520500   -10896.887    894.63834   -11791.526    4164.7012   -15956.227    90.021783    285.20308    872.50986    928.88872    6.2461672    278.95745    90.824901      46.7237      46.7237      46.7237           90           90           90     102002.7    695.53389 
  522000       521500   -10883.767    901.66884   -11785.436    4188.2416   -15973.678    90.729217    466.77204    725.71148    941.98911   -123.98172    182.32906   -83.445961      46.7237      46.7237      46.7237           90           90           90     102002.7    711.49088 
  523000       522500   -10914.712    895.10617   -11809.819    4183.6209   -15993.439    90.068857    466.27889    832.91838    744.10085    129.36041    119.78684   -42.040239      46.7237      46.7237      46.7237           90           90           90     102002.7    681.09937 
  524000       523500    -10900.06    893.78643   -11793.846    4169.1118   -15962.958     89.93606    208.87342    1068.2968    654.87446    140.32885     6.899438   -145.84129      46.7237      46.7237      46.7237           90           90           90     102002.7    644.01489 
  525000       524500   -10944.391    894.93338   -11839.325    4153.7374   -15993.062    90.051471    400.12371    730.17698    855.48601    -19.48805    128.37069   -46.126347      46.7237      46.7237      46.7237           90           90           90     102002.7     661.9289 
  526000       525500   -10890.609    915.73569   -11806.345    4168.6675   -15975.012    92.144675    494.12405    947.57949    667.83296    7.8110107    15.958761    6.7015485      46.7237      46.7237      46.7237           90           90           90     102002.7    703.17883 
  527000       526500   -10893.318    911.23492   -11804.553    4175.9679   -15980.521    91.691791    84.200206    840.71516    305.24058    107.81431    148.26909    68.943461      46.7237      46.7237      46.7237           90           90           90     102002.7    410.05198 
  528000       527500   -10909.029    898.69235   -11807.721    4171.1388    -15978.86    90.429712    411.00887    1249.2649    757.60599     154.0134    107.26154   -29.237666      46.7237      46.7237      46.7237           90           90           90     102002.7    805.95993 
  529000       528500   -10870.016    916.18767   -11786.204    4169.7547   -15955.958    92.190155     467.0728    873.62694    817.69378     179.0429    255.92883   -57.923758      46.7237      46.7237      46.7237           90           90           90     102002.7    719.46451 
  530000       529500   -10911.602    895.32809   -11806.931    4158.8561   -15965.787    90.091188    620.93874    1439.7422     1048.747    43.552196    155.87153    79.551302      46.7237      46.7237      46.7237           90           90           90     102002.7     1036.476 
  531000       530500   -10912.478    907.75004   -11820.229    4164.5337   -15984.762     91.34113    168.23589    650.43431     694.8481   -82.323884   -112.54389   -220.38276      46.7237      46.7237      46.7237           90           90           90     102002.7     504.5061 
  532000       531500   -10902.723    908.84043   -11811.563    4154.5076   -15966.071    91.450849    544.42926    767.47268    817.63153    17.438817   -80.928152   -103.22278      46.7237      46.7237      46.7237           90           90           90     102002.7    709.84449 
  533000       532500   -10886.594    895.27601    -11781.87    4181.4632   -15963.333    90.085947    406.68944    932.77138    1223.1753    130.74527   -72.875388   -48.112403      46.7237      46.7237      46.7237           90           90           90     102002.7    854.21205 
  534000       533500   -10908.956    899.65594   -11808.612     4163.509   -15972.121    90.526672     393.6101    437.50763    564.66946    86.904165    163.55163    246.56023      46.7237      46.7237      46.7237           90           90           90     102002.7     465.2624 
  535000       534500   -10890.982    913.61095   -11804.593     4158.252   -15962.845    91.930876    530.44236    926.45986    604.27987   -246.27539     11.66292    94.261104      46.7237      46.7237      46.7237           90           90           90     102002.7     687.0607 
  536000       535500   -10926.245    895.37197   -11821.617    4154.1534    -15975.77    90.095604    409.75585    1306.3339    846.10333   -35.077259    7.3789847    192.56274      46.7237      46.7237      46.7237           90           90           90     102002.7    854.06436 
  537000       536500   -10894.466    902.32141   -11796.787    4153.1193   -15949.906    90.794881    1080.2754    841.60756     629.3844   -12.929986    72.615779   -28.850097      46.7237      46.7237      46.7237           90           90           90     102002.7    850.42246 
  538000       537500   -10921.431    897.54325   -11818.974    4165.0948   -15984.069    90.314085    1045.0807    823.66296    284.58608    242.37672   -41.835527    39.542965      46.7237      46.7237      46.7237           90           90           90     102002.7    717.77658 
  539000       538500   -10913.676    905.28896   -11818.965    4164.4158   -15983.381    91.093487     434.7189    705.54767    698.65449    104.98883    65.070884   -75.576401      46.7237      46.7237      46.7237           90           90           90     102002.7    612.97368 
  540000       539500   -10903.966    911.43901   -11815.405    4179.4536   -15994.858    91.712328    760.37599    578.06767    432.70406   -168.11153    35.499921   -138.76848      46.7237      46.7237      46.7237           90           90           90     102002.7    590.38257 
  541000       540500   -10900.126    902.32292   -11802.449    4174.1028   -15976.552    90.795033    440.83583    627.60653    548.01329   -17.126127   -61.065451    49.701513      46.7237      46.7237      46.7237           90           90           90     102002.7    538.81855 
  542000       541500   -10898.843    896.54906   -11795.392    4168.9851   -15964.377    90.214046    582.01771    418.97521    1034.8211   -36.575328   -38.675838    27.979234      46.7237      46.7237      46.7237           90           90           90     102002.7    678.60466 
  543000       542500   -10885.239    929.09475   -11814.334    4152.7653   -15967.099    93.488913    856.44165    573.56039    569.93237    157.17871   -81.055306   -1.1175823      46.7237      46.7237      46.7237           90           90           90     102002.7     666.6448 
  544000       543500   -10888.904    916.80473   -11805.709    4179.7945   -15985.503    92.252246    563.28966    624.36427    582.92255    14.020973   -113.48725    83.619961      46.7237      46.7237      46.7237           90           90           90     102002.7    590.19216 
  545000       544500   -10871.545    923.02305   -11794.568    4184.9357   -15979.504    92.877956    748.92698    251.18308    917.52172    92.508238    77.249275    210.06717      46.7237      46.7237      46.7237           90           90           90     102002.7    639.21059 
  546000       545500   -10907.169    907.44141    -11814.61    4162.4551   -15977.065    91.310075     416.8413    715.81022    843.28796    211.32176    155.97946    20.629944      46.7237      46.7237      46.7237           90           90           90     102002.7    658.64649 
  547000       546500   -10919.986    892.48958   -11812.475    4160.5968   -15973.072    89.805566    488.04401     1037.351    612.96173   -47.152144   -70.445066   -183.40485      46.7237      46.7237      46.7237           90           90           90     102002.7    712.78559 
  548000       547500   -10888.248    910.03107   -11798.279    4170.0888   -15968.368    91.570655    411.41844    243.07725    796.07037   -174.74492   -12.189261   -319.12299      46.7237      46.7237      46.7237           90           90           90     102002.7    483.52202 
  549000       548500   -10903.761    903.07488   -11806.836    4173.8039    -15980.64    90.870699    408.81865    748.72925    817.57058    224.22629    -282.0937    -143.2596      46.7237      46.7237      46.7237           90           90           90     102002.7    658.37283 
  550000       549500   -10891.143    919.40078   -11810.543    4169.2598   -15979.803     92.51347    902.52954    372.86298    501.43036    -109.9551   -255.84653   -113.13462      46.7237      46.7237      46.7237           90           90           90     102002.7    592.27429 
  551000       550500   -10908.438    900.41976   -11808.858     4168.939   -15977.797     90.60353    415.12445    519.39804    660.93958    198.81019   -76.357814    34.612361      46.7237      46.7237      46.7237           90           90           90     102002.7    531.82069 
  552000       551500   -10900.269    917.51584   -11817.784    4162.2142   -15979.999      92.3238    319.99945    745.22829    927.89789   -234.74495    2.9148693    195.05896      46.7237      46.7237      46.7237           90           90           90     102002.7    664.37521 
  553000       552500   -10875.474    913.55623    -11789.03    4166.8848   -15955.915     91.92537    463.51794    699.73315    495.89528    1.5348975   -24.623674   -258.36295      46.7237      46.7237      46.7237           90           90           90     102002.7    553.04879 
  554000       553500   -10915.137    889.38099   -11804.518    4178.8031   -15983.321    89.492769    370.72329    669.98948    186.26665    7.8894523   -51.512076    212.45468      46.7237      46.7237      46.7237           90           90           90     102002.7    408.99314 
  555000       554500    -10900.07    896.30333   -11796.374    4187.6841   -15984.058    90.189321   -6.2909124    625.00731   -109.73155   -93.928939   -97.415241    -5.300524      46.7237      46.7237      46.7237           90           90           90     102002.7    169.66162 
[...]
  936000       935500   -10924.198    896.56266   -11820.761    4152.6238   -15973.384    90.215415    762.63583    796.62317     674.4301   -153.42457    323.77451    -1.896019      46.7237      46.7237      46.7237           90           90           90     102002.7    744.56303 
  937000       936500   -10919.932    902.53026   -11822.462    4170.2698   -15992.732    90.815896    282.45611    600.88164     995.3136    175.79179   -10.596508    -65.92514      46.7237      46.7237      46.7237           90           90           90     102002.7    626.21712 
  938000       937500   -10891.666     925.9783   -11817.644    4175.6546   -15993.298    93.175324    476.62902    689.04621    968.33221    99.340893    234.17117    176.55006      46.7237      46.7237      46.7237           90           90           90     102002.7    711.33581 
  939000       938500   -10911.757    898.66635   -11810.423    4167.3739   -15977.797    90.427096    624.49528    856.53887    757.76406    7.6432074   -4.6351805   -192.26611      46.7237      46.7237      46.7237           90           90           90     102002.7    746.26607 
  940000       939500   -10880.833    896.70316   -11777.536    4180.3266   -15957.862    90.229552    293.47634    747.33285    941.99693    200.27971    300.44232   -43.883854      46.7237      46.7237      46.7237           90           90           90     102002.7    660.93537 
  941000       940500   -10925.492    881.47009   -11806.962    4161.5122   -15968.474    88.696746    505.80788    812.14716     853.3149     3.403419    114.43938    59.352028      46.7237      46.7237      46.7237           90           90           90     102002.7    723.75664 
  942000       941500   -10915.703    907.23992   -11822.943    4167.2978   -15990.241    91.289799    833.89468    478.90777     633.1487    63.306588   -90.296356    -101.1063      46.7237      46.7237      46.7237           90           90           90     102002.7    648.65039 
  943000       942500   -10894.508     917.8206   -11812.329     4160.274   -15972.603    92.354467    79.581674    861.94651    1041.1011    38.053271   -55.036289    96.205467      46.7237      46.7237      46.7237           90           90           90     102002.7    660.87643 
  944000       943500   -10920.159    905.25191   -11825.411    4167.4319   -15992.843    91.089759    101.10583    856.88955    907.02511    71.153914   -77.391159    109.55689      46.7237      46.7237      46.7237           90           90           90     102002.7     621.6735 
  945000       944500   -10890.625    907.38884   -11798.014    4177.6517   -15975.666    91.304785    548.85315     1098.818    701.73168     223.3637    156.09931    88.730844      46.7237      46.7237      46.7237           90           90           90     102002.7    783.13426 
  946000       945500   -10945.619    867.39574   -11813.014    4158.8183   -15971.833    87.280533    288.80705    636.62933    704.61769    39.442241   -21.157888    75.365829      46.7237      46.7237      46.7237           90           90           90     102002.7    543.35136 
  947000       946500   -10931.455    894.01759   -11825.473    4152.1097   -15977.583    89.959321    155.48306    774.49578    648.67572   -149.91922   -178.94749   -146.86165      46.7237      46.7237      46.7237           90           90           90     102002.7    526.21819 
  948000       947500   -10918.764    904.21791   -11822.982    4158.3035   -15981.285    90.985714    354.36715    672.11177    527.11011    34.106549   -156.03857     139.6312      46.7237      46.7237      46.7237           90           90           90     102002.7    517.86301 
  949000       948500   -10893.652    915.18521   -11808.837    4158.0887   -15966.926    92.089284    660.48882    522.33952    737.88592   -96.835462   -57.052829    107.48666      46.7237      46.7237      46.7237           90           90           90     102002.7    640.23809 
  950000       949500   -10903.741     905.5443   -11809.286    4175.7629   -15985.048     91.11918    341.34189      1007.31    569.43904   -30.305782   -161.23524   -32.121208      46.7237      46.7237      46.7237           90           90           90     102002.7    639.36366 
  951000       950500   -10912.761    893.64263   -11806.404    4188.7021   -15995.106    89.921591    608.01376    431.32932    810.82336   -2.1771852   -60.039605   -23.635865      46.7237      46.7237      46.7237           90           90           90     102002.7    616.72215 
  952000       951500   -10881.691    936.18933   -11817.881    4160.8876   -15978.768    94.202795    103.76374    859.64174    987.46698    13.342594    40.448753   -26.648087      46.7237      46.7237      46.7237           90           90           90     102002.7    650.29082 
  953000       952500   -10905.509    911.49394   -11817.003    4169.8465   -15986.849    91.717855    273.34477    860.03916    102.61794    61.566983    63.904638    41.499398      46.7237      46.7237      46.7237           90           90           90     102002.7    412.00062 
  954000       953500   -10901.839    887.69292   -11789.532    4169.0356   -15958.568    89.322909    418.20751    601.10759    982.83287   -215.24116    111.44972    152.13483      46.7237      46.7237      46.7237           90           90           90     102002.7    667.38266 
  955000       954500    -10891.46    912.01997    -11803.48    4168.6771   -15972.157    91.770786    705.78272    1019.1245     602.8257   -123.22185    194.76128    83.860313      46.7237      46.7237      46.7237           90           90           90     102002.7    775.91098 
  956000       955500   -10876.122    921.55003   -11797.672    4170.4255   -15968.098    92.729735    611.15885     1058.932     757.1444    278.81567   -146.42664   -50.250013      46.7237      46.7237      46.7237           90           90           90     102002.7    809.07841 
  957000       956500   -10897.089    905.78211   -11802.871    4159.3838   -15962.255     91.14311    334.33584    791.04078     1199.326    212.56882    132.72369   -6.1426519      46.7237      46.7237      46.7237           90           90           90     102002.7    774.90089 
  958000       957500   -10877.113    900.01757    -11777.13    4183.2973   -15960.428    90.563061    498.35338    913.92817   -13.561432   -31.589676   -20.560918    140.39052      46.7237      46.7237      46.7237           90           90           90     102002.7    466.24004 
  959000       958500   -10883.348    915.82335   -11799.171    4184.8665   -15984.038    92.153495     241.4103    676.26831    844.17718   -140.50259   -15.082873    3.3206907      46.7237      46.7237      46.7237           90           90           90     102002.7    587.28526 
  960000       959500   -10885.869    906.43344   -11792.303    4180.9401   -15973.243    91.208648     208.0011    770.81642    663.92595   -210.41237    30.785174    114.07896      46.7237      46.7237      46.7237           90           90           90     102002.7    547.58115 
  961000       960500   -10876.534    903.88093   -11780.415    4178.5046   -15958.919    90.951805    276.23038    806.57699    235.61712    45.163091     195.2846    109.78015      46.7237      46.7237      46.7237           90           90           90     102002.7    439.47483 
  962000       961500   -10913.167    906.71275    -11819.88    4143.6493   -15963.529    91.236753    323.35182    335.76857     728.7453    99.980446    195.97559   -161.12635      46.7237      46.7237      46.7237           90           90           90     102002.7     462.6219 
  963000       962500    -10889.55    909.74993     -11799.3    4175.4476   -15974.747    91.542366    215.38599    1029.7477    529.84551   -109.26241     167.0811   -29.252709      46.7237      46.7237      46.7237           90           90           90     102002.7    591.65974 
  964000       963500    -10906.31    902.89263   -11809.203    4162.8162   -15972.019     90.85236     414.6813    550.38772    615.48957     99.99274    -18.90288    306.70179      46.7237      46.7237      46.7237           90           90           90     102002.7    526.85286 
  965000       964500   -10891.134    916.84903   -11807.983    4155.5027   -15963.485    92.256704    371.90326    520.19474     1115.065    -22.46058    86.198078   -158.70122      46.7237      46.7237      46.7237           90           90           90     102002.7    669.05432 
  966000       965500   -10904.038    890.05406   -11794.092    4171.8004   -15965.892    89.560496    494.43789    969.63207    806.15825    48.579253    175.93682    218.08942      46.7237      46.7237      46.7237           90           90           90     102002.7    756.74274 
  967000       966500   -10880.805    912.72649   -11793.531    4172.0594   -15965.591    91.841878    585.85805     817.3636     1170.693    10.145474    42.903015    150.30402      46.7237      46.7237      46.7237           90           90           90     102002.7    857.97156 
  968000       967500   -10898.406    897.06959   -11795.475    4182.6933   -15978.169    90.266424     496.0009    749.59212    563.09478    81.945336    -50.07788    6.2148861      46.7237      46.7237      46.7237           90           90           90     102002.7    602.89593 
  969000       968500   -10950.832    881.68791   -11832.519    4162.1942   -15994.714    88.718663    814.71241    1078.4124   -5.5542886    262.88285   -225.99399    94.597685      46.7237      46.7237      46.7237           90           90           90     102002.7    629.19016 
  970000       969500   -10892.898    907.57029   -11800.468    4161.8313     -15962.3    91.323043    656.28701    484.28659    251.73012   -58.697491    126.09495    164.37743      46.7237      46.7237      46.7237           90           90           90     102002.7    464.10124 
  971000       970500   -10928.998    886.64743   -11815.645    4152.4661   -15968.111    89.217708    742.99028    750.19023    442.35471   -261.49062   -161.39774    192.08675      46.7237      46.7237      46.7237           90           90           90     102002.7    645.17841 
  972000       971500   -10897.239     918.8902   -11816.129    4156.5373   -15972.667    92.462093    238.61227    695.87448     494.1463    222.43824   -31.154002    52.201154      46.7237      46.7237      46.7237           90           90           90     102002.7    476.21102 
  973000       972500   -10897.434    915.36658     -11812.8     4152.927   -15965.727    92.107534    548.46722    919.63041     451.4261    12.156644   -96.258421   -38.427617      46.7237      46.7237      46.7237           90           90           90     102002.7    639.84124 
  974000       973500   -10922.701    897.44794   -11820.149    4168.0656   -15988.215    90.304495    327.11435    998.43299     437.3443    210.94154   -144.38101    101.61299      46.7237      46.7237      46.7237           90           90           90     102002.7    587.63055 
  975000       974500   -10922.975    893.81556    -11816.79    4171.3605   -15988.151    89.938992    138.93031    893.90621    874.46461    90.248538    59.352142   -3.9848146      46.7237      46.7237      46.7237           90           90           90     102002.7    635.76704 
  976000       975500   -10894.491     919.1562   -11813.647     4148.687   -15962.334    92.488859    253.07809    792.59675     859.5974   -39.212511   -246.77243   -17.897032      46.7237      46.7237      46.7237           90           90           90     102002.7    635.09075 
  977000       976500   -10893.679    904.38707   -11798.067    4171.5148   -15969.581    91.002735     282.7149    428.76846    596.81127   -20.323937   -107.37896    131.35094      46.7237      46.7237      46.7237           90           90           90     102002.7    436.09821 
  978000       977500   -10879.366    924.46905   -11803.835    4175.6003   -15979.435    93.023458    298.16657    476.65461    198.46494   -44.133105    32.759501     48.30511      46.7237      46.7237      46.7237           90           90           90     102002.7    324.42871 
  979000       978500   -10909.126    904.22703   -11813.353     4166.601   -15979.954    90.986632     247.3163    1078.7908    301.61164   -43.624598   -74.773291   -39.114853      46.7237      46.7237      46.7237           90           90           90     102002.7    542.57292 
  980000       979500   -10896.268    906.85554   -11803.124    4171.5584   -15974.682    91.251122    170.69928    796.76046    832.77917    148.07269   -54.059397   -120.32161      46.7237      46.7237      46.7237           90           90           90     102002.7    600.07963 
  981000       980500   -10882.399    925.06419   -11807.463    4168.3358   -15975.799    93.083343    26.935123    1263.6027    602.80663    161.84393    229.82419    274.18123      46.7237      46.7237      46.7237           90           90           90     102002.7    631.11481 
  982000       981500   -10891.619    916.85564   -11808.475     4163.217   -15971.692    92.257369    418.76227    484.24496    741.92954    29.528833    30.729676   -4.6971393      46.7237      46.7237      46.7237           90           90           90     102002.7    548.31226 
  983000       982500    -10917.65    909.85372   -11827.504    4176.9183   -16004.422     91.55281   -165.03324    515.34541    639.96854    204.45884   -279.01417   -136.99429      46.7237      46.7237      46.7237           90           90           90     102002.7    330.09357 
  984000       983500   -10866.083    924.37067   -11790.454    4168.9603   -15959.414    93.013559    585.21211     1045.345    883.23079   -68.316518    97.713819   -64.250879      46.7237      46.7237      46.7237           90           90           90     102002.7    837.92931 
  985000       984500   -10906.326    902.05178   -11808.378     4163.306   -15971.684     90.76775    227.84287    552.44091    1038.6798   -96.814994   -44.305625   -36.905767      46.7237      46.7237      46.7237           90           90           90     102002.7     606.3212 
  986000       985500   -10917.024    905.38196   -11822.406    4138.8629   -15961.269    91.102845    322.77905    892.48303    823.35454    -11.69401   -86.690091   -151.21796      46.7237      46.7237      46.7237           90           90           90     102002.7    679.53887 
  987000       986500    -10890.44    890.17419   -11780.614    4169.7483   -15950.362    89.572583     584.8891    1148.0214    219.78285    240.80442   -34.721415    134.68084      46.7237      46.7237      46.7237           90           90           90     102002.7    650.89777 
  988000       987500   -10895.946     914.1246   -11810.071    4154.7944   -15964.865    91.982562     80.39553    1027.5788    815.42536    -86.72078   -361.28101   -169.48766      46.7237      46.7237      46.7237           90           90           90     102002.7    641.13321 
  989000       988500   -10870.342    915.95881     -11786.3    4171.4831   -15957.784    92.167127    837.74279    953.92855    564.03501    292.03635   -14.066615    129.60282      46.7237      46.7237      46.7237           90           90           90     102002.7    785.23545 
  990000       989500   -10906.443    913.24401   -11819.687    4149.4566   -15969.144    91.893953    340.58288    942.11491    976.29901   -122.44164   -61.636578   -109.28207      46.7237      46.7237      46.7237           90           90           90     102002.7    752.99894 
  991000       990500   -10903.142    917.10816    -11820.25    4155.1523   -15975.402    92.282778    454.34613    601.93901    568.39539   -58.233281   -102.66031   -221.76321      46.7237      46.7237      46.7237           90           90           90     102002.7    541.56017 
  992000       991500   -10933.998    901.36627   -11835.365    4152.5888   -15987.953    90.698772    458.27145    647.56718    648.01565    254.08381    65.885651   -12.800326      46.7237      46.7237      46.7237           90           90           90     102002.7     584.6181 
  993000       992500   -10892.084    901.66052   -11793.745    4180.2969   -15974.042     90.72838    6.1894777    964.88802    592.47044    147.86305    154.67553   -173.42248      46.7237      46.7237      46.7237           90           90           90     102002.7    521.18264 
  994000       993500   -10925.277    887.26312    -11812.54    4162.8694    -15975.41    89.279661    432.04077    861.31682    660.20482    -117.4507    73.125788    28.959512      46.7237      46.7237      46.7237           90           90           90     102002.7    651.18747 
  995000       994500   -10924.271    889.09538   -11813.366     4166.921   -15980.287    89.464029    910.73072    644.36772    800.89122   0.23514123    -199.5063    200.94714      46.7237      46.7237      46.7237           90           90           90     102002.7    785.32989 
  996000       995500   -10890.414    915.08438   -11805.498    4171.2442   -15976.742    92.079138    304.98933    852.18865    588.41716   -27.220169    44.885325    -66.19044      46.7237      46.7237      46.7237           90           90           90     102002.7    581.86504 
  997000       996500       -10925    909.27339   -11834.273    4144.8406   -15979.114    91.494414    517.31824    919.49363    1022.6242    189.79711    49.631035   -84.958109      46.7237      46.7237      46.7237           90           90           90     102002.7    819.81203 
  998000       997500   -10903.163    910.43319   -11813.596    4146.7913   -15960.387    91.611119    644.02758    711.77061    703.66624   -129.72263    28.779392    174.12739      46.7237      46.7237      46.7237           90           90           90     102002.7    686.48814 
  999000       998500   -10903.445    909.80549    -11813.25    4174.6543   -15987.904    91.547957    366.06524    800.68572    910.14636   -111.72871   -99.452224    134.62575      46.7237      46.7237      46.7237           90           90           90     102002.7    692.29911 
 1000000       999500    -10895.45    916.78836   -11812.239    4155.9595   -15968.198    92.250599    497.14862    551.92503    789.60191   -43.145365   -68.185456    27.088011      46.7237      46.7237      46.7237           90           90           90     102002.7    612.89185 
 1000500      1000000   -10889.609      908.135   -11797.744    4170.0911   -15967.835    91.379866    237.01626    812.67031     92.24017   -92.170184    17.518512    161.76385      46.7237      46.7237      46.7237           90           90           90     102002.7    380.64225 
Loop time of 2369.21 on 16 procs for 500000 steps with 3335 atoms

Performance: 18.234 ns/day, 1.316 hours/ns, 211.041 timesteps/s
99.8% CPU use with 16 MPI tasks x no OpenMP threads

MPI task timing breakdown:
Section |  min time  |  avg time  |  max time  |%varavg| %total
---------------------------------------------------------------
Pair    | 1163.5     | 1553.1     | 1955.9     | 608.1 | 65.55
Bond    | 101.01     | 184.12     | 237.38     | 311.2 |  7.77
Neigh   | 15.186     | 15.264     | 15.333     |   1.7 |  0.64
Comm    | 139.05     | 583.78     | 997.73     |1121.2 | 24.64
Output  | 0.13322    | 0.14171    | 0.14242    |   0.6 |  0.01
Modify  | 23.477     | 25.804     | 27.57      |  27.0 |  1.09
Other   |            | 7.037      |            |       |  0.30

Nlocal:    208.438 ave 256 max 167 min
Histogram: 2 0 2 1 3 4 2 1 0 1
Nghost:    4187.06 ave 4228 max 4153 min
Histogram: 4 1 0 2 1 3 1 0 2 2
Neighs:    11475.2 ave 16943 max 6405 min
Histogram: 1 4 0 0 4 3 0 1 1 2

Total # of neighbors = 183603
Ave neighs/atom = 55.0534
Ave special neighs/atom = 3.45427
Neighbor list builds = 4042
Dangerous builds = 0
Total wall time: 1:12:37
