LAMMPS (30 Mar 2018)
Reading data file ...
  orthogonal box = (0 0 0) to (46.7237 46.7237 46.7237)
  2 by 3 by 4 MPI processor grid
  reading atoms ...
  2763 atoms
  scanning bonds ...
  5 = max bonds/atom
  scanning angles ...
  10 = max angles/atom
  scanning dihedrals ...
  32 = max dihedrals/atom
  scanning impropers ...
  3 = max impropers/atom
  reading bonds ...
  2064 bonds
  reading angles ...
  3696 angles
  reading dihedrals ...
  6240 dihedrals
  reading impropers ...
  1008 impropers
Finding 1-2 1-3 1-4 neighbors ...
  special bond factors lj:   0          0          0         
  special bond factors coul: 0          0          0         
  5 = max # of 1-2 neighbors
  8 = max # of 1-3 neighbors
  20 = max # of 1-4 neighbors
  19 = max # of special neighbors
Finding 1-2 1-3 1-4 neighbors ...
  special bond factors lj:   0          0          1         
  special bond factors coul: 1          1          1         
  5 = max # of 1-2 neighbors
  8 = max # of 1-3 neighbors
  19 = max # of special neighbors
WARNING: Using 'neigh_modify every 1 delay 0 check yes' setting during minimization (../min.cpp:168)
Neighbor list info ...
  update every 1 steps, delay 0 steps, check yes
  max neighbors/atom: 2000, page size: 100000
  master list distance cutoff = 16
  ghost atom cutoff = 16
  binsize = 8, bins = 6 6 6
  3 neighbor lists, perpetual/occasional/extra = 3 0 0
  (1) pair buck6d/coul/gauss/dsf, perpetual, skip from (3)
      attributes: half, newton on
      pair build: skip
      stencil: none
      bin: none
  (2) pair lj/cut, perpetual, skip from (3)
      attributes: half, newton on
      pair build: skip
      stencil: none
      bin: none
  (3) neighbor class addition, perpetual
      attributes: half, newton on
      pair build: half/bin/newton
      stencil: half/bin/3d/newton
      bin: standard
Setting up cg style minimization ...
  Unit style    : real
  Current step  : 0
WARNING: Inconsistent image flags (../domain.cpp:786)
Per MPI rank memory allocation (min/avg/max) = 22.94 | 23.35 | 24.49 Mbytes
Step Temp E_pair E_mol TotEng Press 
       0            0   -14167.221    6482.8914   -7684.3291    5795.9814 
     500            0   -14559.803    3730.6897   -10829.114   -1322.8314 
Loop time of 1.6922 on 24 procs for 500 steps with 2763 atoms

97.6% CPU use with 24 MPI tasks x no OpenMP threads

Minimization stats:
  Stopping criterion = max force evaluations
  Energy initial, next-to-last, final = 
        -7684.32914235     -10828.9226009     -10829.1135622
  Force two-norm initial, final = 2574.87 21.4482
  Force max component initial, final = 152.265 4.56745
  Final line search alpha, max atom move = 0.00442473 0.0202097
  Iterations, force evaluations = 500 1000

MPI task timing breakdown:
Section |  min time  |  avg time  |  max time  |%varavg| %total
---------------------------------------------------------------
Pair    | 0.63378    | 0.94857    | 1.1806     |  14.2 | 56.06
Bond    | 0.11957    | 0.15815    | 0.22006    |   6.0 |  9.35
Neigh   | 0.018326   | 0.018663   | 0.018942   |   0.2 |  1.10
Comm    | 0.28365    | 0.53275    | 0.87546    |  20.1 | 31.48
Output  | 0          | 0          | 0          |   0.0 |  0.00
Modify  | 0          | 0          | 0          |   0.0 |  0.00
Other   |            | 0.03407    |            |       |  2.01

Nlocal:    115.125 ave 142 max 81 min
Histogram: 1 1 1 4 3 3 5 1 2 3
Nghost:    3113.38 ave 3280 max 2995 min
Histogram: 4 8 4 0 0 0 0 0 2 6
Neighs:    7648.96 ave 11828 max 3917 min
Histogram: 3 0 7 3 1 2 0 3 2 3

Total # of neighbors = 183575
Ave neighs/atom = 66.4405
Ave special neighs/atom = 4.16938
Neighbor list builds = 14
Dangerous builds = 0
Neighbor list info ...
  update every 1 steps, delay 10 steps, check yes
  max neighbors/atom: 2000, page size: 100000
  master list distance cutoff = 16
  ghost atom cutoff = 16
  binsize = 8, bins = 6 6 6
  3 neighbor lists, perpetual/occasional/extra = 3 0 0
  (1) pair buck6d/coul/gauss/dsf, perpetual, skip from (3)
      attributes: half, newton on
      pair build: skip
      stencil: none
      bin: none
  (2) pair lj/cut, perpetual, skip from (3)
      attributes: half, newton on
      pair build: skip
      stencil: none
      bin: none
  (3) neighbor class addition, perpetual
      attributes: half, newton on
      pair build: half/bin/newton
      stencil: half/bin/3d/newton
      bin: standard
Setting up Verlet run ...
  Unit style    : real
  Current step  : 500
  Time step     : 1
WARNING: Inconsistent image flags (../domain.cpp:786)
Per MPI rank memory allocation (min/avg/max) = 22.59 | 22.77 | 23.37 Mbytes
Step Temp PotEng TotEng Press Volume Lx Ly Lz 
     500          110   -10829.114   -9923.4839    -916.9755     102002.7      46.7237      46.7237      46.7237 
    1000    94.309812   -10073.026   -9296.5736   -721.16166     102002.7      46.7237      46.7237      46.7237 
    2000    113.66857   -9892.4851    -8956.652   -944.28139     102002.7      46.7237      46.7237      46.7237 
    3000    111.87172   -9865.7662   -8944.7266   -905.24848     102002.7      46.7237      46.7237      46.7237 
    4000    107.76615   -9836.7815   -8949.5431   -860.40972     102002.7      46.7237      46.7237      46.7237 
    5000    107.36548   -9841.7224   -8957.7827   -1015.3512     102002.7      46.7237      46.7237      46.7237 
    6000    112.28216   -9854.2696   -8929.8509   -796.25863     102002.7      46.7237      46.7237      46.7237 
    7000    109.44348   -9845.0053   -8943.9574   -1028.6645     102002.7      46.7237      46.7237      46.7237 
    8000    112.57274   -9868.1456   -8941.3345   -738.85275     102002.7      46.7237      46.7237      46.7237 
    9000    109.11029    -9851.195   -8952.8903   -1058.4586     102002.7      46.7237      46.7237      46.7237 
   10000    109.58397   -9845.0279   -8942.8234    -1039.087     102002.7      46.7237      46.7237      46.7237 
   11000    108.59464     -9879.04   -8984.9806   -1077.4708     102002.7      46.7237      46.7237      46.7237 
   12000    110.77472   -9872.7374   -8960.7294   -1298.3464     102002.7      46.7237      46.7237      46.7237 
   13000    111.26406   -9867.8725   -8951.8358   -951.91657     102002.7      46.7237      46.7237      46.7237 
   14000    109.57076    -9873.884   -8971.7882   -1221.6413     102002.7      46.7237      46.7237      46.7237 
   15000    110.71176   -9830.0954   -8918.6058   -933.71437     102002.7      46.7237      46.7237      46.7237 
   16000    108.81831   -9864.5928   -8968.6919   -615.73073     102002.7      46.7237      46.7237      46.7237 
   17000    109.76933   -9860.0028   -8956.2722   -703.63045     102002.7      46.7237      46.7237      46.7237 
   18000    109.03603    -9836.836   -8939.1426   -906.78258     102002.7      46.7237      46.7237      46.7237 
   19000    109.88777   -9878.9188   -8974.2131   -997.96948     102002.7      46.7237      46.7237      46.7237 
   20000    111.76834   -9858.8234    -8938.635   -925.71162     102002.7      46.7237      46.7237      46.7237 
   21000    110.09493   -9841.0591   -8934.6479   -769.07241     102002.7      46.7237      46.7237      46.7237 
   22000    109.98588   -9829.3896   -8923.8761   -1026.6064     102002.7      46.7237      46.7237      46.7237 
   23000    112.76952   -9850.1445   -8921.7134   -942.76915     102002.7      46.7237      46.7237      46.7237 
   24000    110.19488    -9859.926   -8952.6918   -1115.0791     102002.7      46.7237      46.7237      46.7237 
   25000    108.83038   -9834.1288   -8938.1286   -947.30974     102002.7      46.7237      46.7237      46.7237 
   26000    108.31448   -9853.7405   -8961.9877   -944.23798     102002.7      46.7237      46.7237      46.7237 
   27000    112.75273   -9845.9568   -8917.6639   -1325.2235     102002.7      46.7237      46.7237      46.7237 
   28000    110.52401   -9861.4266   -8951.4828   -1053.9639     102002.7      46.7237      46.7237      46.7237 
   29000    108.36739   -9859.1015    -8966.913   -852.39301     102002.7      46.7237      46.7237      46.7237 
   30000     107.8985   -9839.0501    -8950.722   -1060.4921     102002.7      46.7237      46.7237      46.7237 
   31000    110.29983   -9851.9937   -8943.8955    -745.6406     102002.7      46.7237      46.7237      46.7237 
   32000    108.13541   -9874.6502   -8984.3716   -1029.2218     102002.7      46.7237      46.7237      46.7237 
   33000     109.7213    -9854.407   -8951.0718   -840.86292     102002.7      46.7237      46.7237      46.7237 
   34000    112.16515   -9862.5023   -8939.0469   -883.49199     102002.7      46.7237      46.7237      46.7237 
   35000     107.0152   -9875.9811   -8994.9252   -1062.0456     102002.7      46.7237      46.7237      46.7237 
   36000    107.14664   -9846.4623   -8964.3243   -802.20532     102002.7      46.7237      46.7237      46.7237 
   37000    111.44741    -9862.739   -8945.1928   -867.01168     102002.7      46.7237      46.7237      46.7237 
   38000    112.68601   -9859.9136     -8932.17   -600.70769     102002.7      46.7237      46.7237      46.7237 
   39000    112.90992    -9854.731   -8925.1439   -980.17717     102002.7      46.7237      46.7237      46.7237 
   40000    111.00835   -9853.0207   -8939.0893   -759.05643     102002.7      46.7237      46.7237      46.7237 
   41000    109.36231   -9853.3496     -8952.97   -626.79743     102002.7      46.7237      46.7237      46.7237 
   42000    109.53551   -9869.0689   -8967.2634   -831.32289     102002.7      46.7237      46.7237      46.7237 
   43000    111.67194    -9870.932   -8951.5372   -874.45488     102002.7      46.7237      46.7237      46.7237 
   44000    113.29482   -9877.4128   -8944.6568   -732.87672     102002.7      46.7237      46.7237      46.7237 
   45000     108.7247   -9857.8484   -8962.7183   -915.98965     102002.7      46.7237      46.7237      46.7237 
   46000    108.78549   -9864.3623   -8968.7317   -911.25576     102002.7      46.7237      46.7237      46.7237 
   47000    112.38067   -9844.5826   -8919.3528   -775.80827     102002.7      46.7237      46.7237      46.7237 
   48000    107.41374   -9836.8951   -8952.5581   -1174.9207     102002.7      46.7237      46.7237      46.7237 
   49000    110.82611   -9841.8622   -8929.4312   -1017.2243     102002.7      46.7237      46.7237      46.7237 
   50000    109.65409    -9820.046   -8917.2641   -1164.2573     102002.7      46.7237      46.7237      46.7237 
   51000    107.18798   -9853.9466   -8971.4683   -1276.9064     102002.7      46.7237      46.7237      46.7237 
   52000    109.30757   -9847.4091   -8947.4802   -878.70766     102002.7      46.7237      46.7237      46.7237 
   53000    112.41618   -9837.0814   -8911.5593   -1163.4099     102002.7      46.7237      46.7237      46.7237 
   54000    112.87943   -9823.6139   -8894.2778   -708.61589     102002.7      46.7237      46.7237      46.7237 
   55000    108.07377   -9836.3887   -8946.6176   -958.13866     102002.7      46.7237      46.7237      46.7237 
   56000     111.4547   -9860.4969   -8942.8906   -830.81981     102002.7      46.7237      46.7237      46.7237 
   57000    111.50046   -9857.1636   -8939.1805   -629.50907     102002.7      46.7237      46.7237      46.7237 
   58000    110.01181   -9828.6498   -8922.9229   -1442.1628     102002.7      46.7237      46.7237      46.7237 
   59000    107.49615    -9842.013   -8956.9975   -903.73471     102002.7      46.7237      46.7237      46.7237 
   60000     111.1669    -9827.227   -8911.9902   -837.58916     102002.7      46.7237      46.7237      46.7237 
   61000    111.54335   -9839.2765   -8920.9404   -1159.6682     102002.7      46.7237      46.7237      46.7237 
   62000    108.96973   -9819.2234   -8922.0759   -936.42295     102002.7      46.7237      46.7237      46.7237 
   63000    109.11776   -9863.0905   -8964.7242   -888.38125     102002.7      46.7237      46.7237      46.7237 
   64000    109.00596   -9832.6768    -8935.231    -833.2747     102002.7      46.7237      46.7237      46.7237 
   65000    107.68304   -9839.8658   -8953.3116   -833.37921     102002.7      46.7237      46.7237      46.7237 
   66000    110.65149   -9853.6728   -8942.6794   -588.46469     102002.7      46.7237      46.7237      46.7237 
   67000    111.57573   -9858.1341   -8939.5314   -997.97097     102002.7      46.7237      46.7237      46.7237 
   68000    111.66743   -9860.2378   -8940.8801   -1116.7114     102002.7      46.7237      46.7237      46.7237 
   69000    109.51967   -9870.9936   -8969.3184   -1099.8345     102002.7      46.7237      46.7237      46.7237 
   70000    109.03873    -9864.631   -8966.9155   -1081.4418     102002.7      46.7237      46.7237      46.7237 
   71000    111.35062   -9870.8025   -8954.0532   -1124.9512     102002.7      46.7237      46.7237      46.7237 
   72000    109.84549   -9862.0162   -8957.6586   -954.80935     102002.7      46.7237      46.7237      46.7237 
   73000    109.91365   -9867.6944   -8962.7756   -882.10696     102002.7      46.7237      46.7237      46.7237 
   74000    110.28033   -9868.0593   -8960.1217   -1102.6572     102002.7      46.7237      46.7237      46.7237 
   75000    110.99832   -9863.7233   -8949.8744   -1103.4318     102002.7      46.7237      46.7237      46.7237 
   76000     109.3099   -9874.9835   -8975.0354   -1207.4408     102002.7      46.7237      46.7237      46.7237 
   77000    112.20193    -9862.334   -8938.5758   -1185.5373     102002.7      46.7237      46.7237      46.7237 
   78000    111.46985   -9842.0232   -8924.2923   -941.41621     102002.7      46.7237      46.7237      46.7237 
   79000    112.08892   -9879.4439   -8956.6162   -872.66023     102002.7      46.7237      46.7237      46.7237 
   80000      112.497    -9837.598   -8911.4105   -736.98377     102002.7      46.7237      46.7237      46.7237 
   81000    109.16184   -9853.8908   -8955.1617   -933.71324     102002.7      46.7237      46.7237      46.7237 
   82000    108.05585   -9870.6249   -8981.0013   -1097.7506     102002.7      46.7237      46.7237      46.7237 
   83000    112.41291   -9853.0839   -8927.5887   -846.14578     102002.7      46.7237      46.7237      46.7237 
   84000    109.91063   -9855.0697   -8950.1758   -1085.6259     102002.7      46.7237      46.7237      46.7237 
   85000    112.77346   -9862.7955   -8934.3319   -576.39755     102002.7      46.7237      46.7237      46.7237 
   86000    110.30411   -9842.5264   -8934.3929   -962.93739     102002.7      46.7237      46.7237      46.7237 
   87000    109.24175   -9836.2423   -8936.8553   -933.67768     102002.7      46.7237      46.7237      46.7237 
   88000    109.20236   -9863.9998    -8964.937   -740.08653     102002.7      46.7237      46.7237      46.7237 
   89000    111.27767   -9859.7557   -8943.6069   -806.02444     102002.7      46.7237      46.7237      46.7237 
   90000    111.62981   -9841.4682   -8922.4203   -802.05111     102002.7      46.7237      46.7237      46.7237 
   91000    109.79834   -9873.0059   -8969.0364   -757.33787     102002.7      46.7237      46.7237      46.7237 
   92000    110.32483     -9855.25    -8946.946    -733.5871     102002.7      46.7237      46.7237      46.7237 
   93000    105.16864   -9847.8375   -8981.9843   -833.06654     102002.7      46.7237      46.7237      46.7237 
   94000    114.38124   -9890.5053   -8948.8049   -1005.6855     102002.7      46.7237      46.7237      46.7237 
   95000    109.71136   -9848.1364   -8944.8831    -815.5747     102002.7      46.7237      46.7237      46.7237 
   96000    105.85202   -9852.6107   -8981.1313    -1028.271     102002.7      46.7237      46.7237      46.7237 
   97000    111.34539   -9859.1211   -8942.4148   -1236.1199     102002.7      46.7237      46.7237      46.7237 
   98000    111.26995   -9840.1797   -8924.0945   -512.13843     102002.7      46.7237      46.7237      46.7237 
   99000    109.79647   -9858.3364   -8954.3823   -1002.6713     102002.7      46.7237      46.7237      46.7237 
  100000     108.0822   -9876.1641   -8986.3237   -992.54772     102002.7      46.7237      46.7237      46.7237 
  101000    110.24618    -9859.433   -8951.7765   -891.12427     102002.7      46.7237      46.7237      46.7237 
  102000    112.31503   -9873.8278   -8949.1385   -996.44057     102002.7      46.7237      46.7237      46.7237 
  103000    111.93909   -9831.2124   -8909.6182   -541.71934     102002.7      46.7237      46.7237      46.7237 
  104000    110.28939   -9878.8393    -8970.827   -746.59886     102002.7      46.7237      46.7237      46.7237 
  105000    108.15542   -9892.0499   -9001.6066   -1176.0753     102002.7      46.7237      46.7237      46.7237 
  106000    108.32712   -9859.0272   -8967.1703   -1059.2662     102002.7      46.7237      46.7237      46.7237 
  107000     109.7693   -9879.7121   -8975.9817   -1034.5247     102002.7      46.7237      46.7237      46.7237 
  108000    110.70197   -9873.9874   -8962.5784   -1069.0732     102002.7      46.7237      46.7237      46.7237 
  109000    108.91054   -9842.8371   -8946.1769    -847.5307     102002.7      46.7237      46.7237      46.7237 
  110000    107.69305   -9850.3637   -8963.7272   -793.43906     102002.7      46.7237      46.7237      46.7237 
  111000    110.14391   -9839.3853   -8932.5708   -986.24381     102002.7      46.7237      46.7237      46.7237 
  112000    104.77309   -9857.6236   -8995.0269    -1014.596     102002.7      46.7237      46.7237      46.7237 
  113000    110.58368   -9854.5259   -8944.0907   -917.74973     102002.7      46.7237      46.7237      46.7237 
  114000     111.6332   -9842.6354   -8923.5595   -737.25268     102002.7      46.7237      46.7237      46.7237 
  115000    110.20537   -9848.2959   -8940.9754   -1014.6815     102002.7      46.7237      46.7237      46.7237 
  116000    111.59157   -9852.7633   -8934.0302   -786.71397     102002.7      46.7237      46.7237      46.7237 
  117000    111.48458    -9863.127   -8945.2747   -675.70535     102002.7      46.7237      46.7237      46.7237 
  118000    110.18342   -9869.9967   -8962.8569    -1091.034     102002.7      46.7237      46.7237      46.7237 
  119000    110.41431   -9857.4304   -8948.3897   -1064.4424     102002.7      46.7237      46.7237      46.7237 
  120000    111.55303   -9869.3086   -8950.8928   -1248.5988     102002.7      46.7237      46.7237      46.7237 
  121000    110.68187   -9869.8689   -8958.6254   -1109.6032     102002.7      46.7237      46.7237      46.7237 
  122000    112.78091    -9851.867    -8923.342   -1183.8676     102002.7      46.7237      46.7237      46.7237 
  123000    111.09517   -9856.1177   -8941.4715   -1071.2792     102002.7      46.7237      46.7237      46.7237 
  124000     111.4688   -9858.5294   -8940.8071   -773.75109     102002.7      46.7237      46.7237      46.7237 
  125000    106.72305   -9873.7926    -8995.142   -1116.1024     102002.7      46.7237      46.7237      46.7237 
  126000    109.91623   -9877.9252   -8972.9851   -1050.3884     102002.7      46.7237      46.7237      46.7237 
  127000    109.83464   -9828.1664   -8923.8981   -862.10506     102002.7      46.7237      46.7237      46.7237 
  128000    112.46803   -9860.6689   -8934.7199   -901.52897     102002.7      46.7237      46.7237      46.7237 
  129000    109.37938    -9870.891   -8970.3708     -1082.51     102002.7      46.7237      46.7237      46.7237 
  130000    108.49949   -9848.3085   -8955.0324   -1065.9344     102002.7      46.7237      46.7237      46.7237 
  131000    114.12745    -9877.711      -8938.1   -1242.1648     102002.7      46.7237      46.7237      46.7237 
  132000    108.53466    -9885.559   -8991.9934   -962.72927     102002.7      46.7237      46.7237      46.7237 
  133000    109.30908   -9853.6373   -8953.6959   -1373.0326     102002.7      46.7237      46.7237      46.7237 
  134000    109.96282   -9863.5828   -8958.2592    -1317.941     102002.7      46.7237      46.7237      46.7237 
  135000    111.06746   -9848.7891   -8934.3709   -1183.5261     102002.7      46.7237      46.7237      46.7237 
  136000    111.01225   -9861.4483   -8947.4848   -1194.9588     102002.7      46.7237      46.7237      46.7237 
  137000    109.27605   -9868.5611   -8968.8917   -1124.9903     102002.7      46.7237      46.7237      46.7237 
  138000    111.89948   -9849.3905   -8928.1223   -1033.4686     102002.7      46.7237      46.7237      46.7237 
  139000    107.33168    -9862.025   -8978.3636   -969.30399     102002.7      46.7237      46.7237      46.7237 
  140000    112.41585   -9856.9753   -8931.4559   -714.55918     102002.7      46.7237      46.7237      46.7237 
  141000    113.10774   -9869.1029   -8937.8872   -955.93494     102002.7      46.7237      46.7237      46.7237 
  142000    109.43654   -9809.0871   -8908.0963   -838.71422     102002.7      46.7237      46.7237      46.7237 
  143000    111.48166   -9840.8017   -8922.9735   -615.75485     102002.7      46.7237      46.7237      46.7237 
  144000    110.00852   -9860.2619   -8954.5621   -691.83019     102002.7      46.7237      46.7237      46.7237 
  145000    109.70631   -9859.1808    -8955.969   -831.22049     102002.7      46.7237      46.7237      46.7237 
  146000    109.41254   -9839.6717   -8938.8785   -827.71237     102002.7      46.7237      46.7237      46.7237 
  147000    108.48609   -9849.2358   -8956.0702   -509.94419     102002.7      46.7237      46.7237      46.7237 
  148000    112.18925   -9850.8038     -8927.15   -1103.5563     102002.7      46.7237      46.7237      46.7237 
  149000    110.44617   -9836.8999   -8927.5969   -905.27323     102002.7      46.7237      46.7237      46.7237 
  150000     112.6842   -9852.0978   -8924.3691   -821.79643     102002.7      46.7237      46.7237      46.7237 
  151000    108.69408   -9855.9338   -8961.0556   -576.44925     102002.7      46.7237      46.7237      46.7237 
  152000    110.75093   -9845.0641    -8933.252   -784.00119     102002.7      46.7237      46.7237      46.7237 
  153000     108.6508   -9868.4732   -8973.9514   -784.97676     102002.7      46.7237      46.7237      46.7237 
  154000    112.16761   -9848.9674   -8925.4918   -1091.3931     102002.7      46.7237      46.7237      46.7237 
  155000    109.18997   -9836.2925   -8937.3318   -1013.6037     102002.7      46.7237      46.7237      46.7237 
  156000    109.06512   -9870.0932   -8972.1604   -1032.2738     102002.7      46.7237      46.7237      46.7237 
  157000    110.72509   -9873.5762   -8961.9769   -869.58817     102002.7      46.7237      46.7237      46.7237 
  158000    110.79332   -9859.7634   -8947.6023   -757.18661     102002.7      46.7237      46.7237      46.7237 
  159000    111.32171   -9879.3289   -8962.8175   -1016.7758     102002.7      46.7237      46.7237      46.7237 
  160000    107.66909   -9877.3358   -8990.8964    -988.2238     102002.7      46.7237      46.7237      46.7237 
  161000    107.46528   -9865.2627   -8980.5014   -1200.7737     102002.7      46.7237      46.7237      46.7237 
  162000    109.54393   -9855.5138   -8953.6389   -1203.4063     102002.7      46.7237      46.7237      46.7237 
  163000    110.19672   -9872.9409   -8965.6916   -933.61063     102002.7      46.7237      46.7237      46.7237 
  164000    112.22275   -9858.5526    -8934.623   -977.82051     102002.7      46.7237      46.7237      46.7237 
  165000    110.00715    -9836.631   -8930.9424   -1115.7122     102002.7      46.7237      46.7237      46.7237 
  166000    110.86106   -9842.8095   -8930.0907   -1068.5576     102002.7      46.7237      46.7237      46.7237 
  167000     109.8563   -9848.7666     -8944.32   -902.03238     102002.7      46.7237      46.7237      46.7237 
  168000    108.66593   -9860.8776   -8966.2313   -857.53109     102002.7      46.7237      46.7237      46.7237 
  169000    111.21783   -9832.2532   -8916.5971   -704.21671     102002.7      46.7237      46.7237      46.7237 
  170000    107.17515   -9855.7513   -8973.3786   -852.39023     102002.7      46.7237      46.7237      46.7237 
  171000     110.0583   -9855.8219   -8949.7122   -869.36178     102002.7      46.7237      46.7237      46.7237 
  172000    113.27743    -9866.174   -8933.5612   -657.84445     102002.7      46.7237      46.7237      46.7237 
  173000    110.26527   -9872.8487   -8965.0351   -1152.2684     102002.7      46.7237      46.7237      46.7237 
  174000    111.83546    -9857.753   -8937.0119   -1122.6512     102002.7      46.7237      46.7237      46.7237 
  175000    109.20132   -9847.0918   -8948.0376   -790.65673     102002.7      46.7237      46.7237      46.7237 
  176000    109.58707   -9860.1239   -8957.8939   -950.47191     102002.7      46.7237      46.7237      46.7237 
  177000    110.51129   -9860.2877   -8950.4485    -895.8069     102002.7      46.7237      46.7237      46.7237 
  178000    108.32289    -9869.409   -8977.5869   -956.64266     102002.7      46.7237      46.7237      46.7237 
  179000     110.6959   -9840.9941    -8929.635   -1176.1095     102002.7      46.7237      46.7237      46.7237 
  180000    110.15721   -9863.7639   -8956.8399   -899.37027     102002.7      46.7237      46.7237      46.7237 
  181000     112.0755   -9850.4621   -8927.7448   -1040.1185     102002.7      46.7237      46.7237      46.7237 
  182000    109.23807   -9834.8237    -8935.467     -949.193     102002.7      46.7237      46.7237      46.7237 
  183000     109.1255   -9852.4693   -8954.0394   -878.79229     102002.7      46.7237      46.7237      46.7237 
  184000    111.38296   -9849.0465   -8932.0309   -814.78268     102002.7      46.7237      46.7237      46.7237 
  185000    110.76118   -9863.8959   -8951.9994   -1075.5193     102002.7      46.7237      46.7237      46.7237 
  186000    109.84595   -9870.3691   -8966.0077   -924.65928     102002.7      46.7237      46.7237      46.7237 
  187000    109.32645   -9842.6076   -8942.5232   -1046.4786     102002.7      46.7237      46.7237      46.7237 
  188000    106.06092    -9836.896   -8963.6967   -659.64271     102002.7      46.7237      46.7237      46.7237 
  189000    108.78531   -9866.4573   -8970.8282   -1237.3871     102002.7      46.7237      46.7237      46.7237 
  190000    111.83822   -9879.7989   -8959.0352   -1091.7218     102002.7      46.7237      46.7237      46.7237 
  191000    112.51112   -9871.0237   -8944.7199     -1022.82     102002.7      46.7237      46.7237      46.7237 
  192000    108.24853   -9833.7659    -8942.556   -1154.6739     102002.7      46.7237      46.7237      46.7237 
  193000    106.00224     -9857.13   -8984.4139   -1053.0122     102002.7      46.7237      46.7237      46.7237 
  194000    109.31377    -9871.025    -8971.045   -980.51798     102002.7      46.7237      46.7237      46.7237 
  195000    107.42481   -9866.2556   -8981.8274   -1163.3319     102002.7      46.7237      46.7237      46.7237 
  196000    106.76718   -9844.2977   -8965.2838    -995.8214     102002.7      46.7237      46.7237      46.7237 
  197000    110.11234   -9859.4314   -8952.8768   -549.04379     102002.7      46.7237      46.7237      46.7237 
  198000    110.23796   -9864.9072   -8957.3184   -874.30492     102002.7      46.7237      46.7237      46.7237 
  199000    110.50147    -9846.569   -8936.8107   -596.37465     102002.7      46.7237      46.7237      46.7237 
  200000     110.1325   -9858.5843   -8951.8637   -744.63224     102002.7      46.7237      46.7237      46.7237 
  201000    112.17167   -9854.5009   -8930.9919   -1128.5776     102002.7      46.7237      46.7237      46.7237 
  202000    110.94654   -9851.5338   -8938.1112   -732.43911     102002.7      46.7237      46.7237      46.7237 
  203000    109.89575   -9885.3449   -8980.5735   -1034.8894     102002.7      46.7237      46.7237      46.7237 
  204000    111.01327   -9855.4891   -8941.5172    -785.9335     102002.7      46.7237      46.7237      46.7237 
  205000    110.31398    -9844.144   -8935.9293   -893.08017     102002.7      46.7237      46.7237      46.7237 
  206000    111.65972   -9863.9042   -8944.6101   -762.47168     102002.7      46.7237      46.7237      46.7237 
  207000    111.44631   -9849.5315   -8931.9943   -717.72671     102002.7      46.7237      46.7237      46.7237 
  208000    108.08426   -9864.4598   -8974.6023   -1193.2521     102002.7      46.7237      46.7237      46.7237 
  209000     109.9038   -9844.6502   -8939.8125   -752.31904     102002.7      46.7237      46.7237      46.7237 
  210000    108.58803   -9866.0798   -8972.0748   -844.76225     102002.7      46.7237      46.7237      46.7237 
  211000    111.42386   -9868.2419   -8950.8896   -994.41243     102002.7      46.7237      46.7237      46.7237 
  212000    109.94616   -9887.7204   -8982.5339   -823.14501     102002.7      46.7237      46.7237      46.7237 
  213000    110.87222   -9882.4614   -8969.6507     -907.229     102002.7      46.7237      46.7237      46.7237 
  214000    110.46801   -9870.2153   -8960.7324   -890.15276     102002.7      46.7237      46.7237      46.7237 
  215000    113.42688   -9856.7818   -8922.9386   -997.09516     102002.7      46.7237      46.7237      46.7237 
  216000    110.25334   -9851.0052   -8943.2897   -898.12225     102002.7      46.7237      46.7237      46.7237 
  217000    110.06961   -9856.5941   -8950.3913   -1150.3066     102002.7      46.7237      46.7237      46.7237 
  218000    108.67158   -9847.6271   -8952.9342   -1007.0716     102002.7      46.7237      46.7237      46.7237 
  219000    111.88284   -9838.9451    -8917.814   -999.57079     102002.7      46.7237      46.7237      46.7237 
  220000    109.73904   -9889.6329   -8986.1517   -1081.2479     102002.7      46.7237      46.7237      46.7237 
  221000    109.49224    -9861.072   -8959.6227   -886.60011     102002.7      46.7237      46.7237      46.7237 
  222000    108.32837   -9834.5266   -8942.6595   -823.29831     102002.7      46.7237      46.7237      46.7237 
  223000    109.64161   -9846.6084   -8943.9293   -902.77508     102002.7      46.7237      46.7237      46.7237 
  224000    111.88077   -9864.2307   -8943.1166   -647.89639     102002.7      46.7237      46.7237      46.7237 
  225000    106.93247   -9822.8975   -8942.5228   -837.69724     102002.7      46.7237      46.7237      46.7237 
  226000    111.98836   -9853.0154   -8931.0155   -771.45758     102002.7      46.7237      46.7237      46.7237 
  227000    112.49141   -9863.5843   -8937.4428   -616.97868     102002.7      46.7237      46.7237      46.7237 
  228000    111.24766   -9856.7162   -8940.8145   -757.63496     102002.7      46.7237      46.7237      46.7237 
  229000    110.58347   -9845.0771   -8934.6437   -733.39493     102002.7      46.7237      46.7237      46.7237 
  230000     110.7168    -9859.332   -8947.8008   -1022.9288     102002.7      46.7237      46.7237      46.7237 
  231000    109.61751   -9808.0847    -8905.604   -579.46291     102002.7      46.7237      46.7237      46.7237 
  232000    110.44674   -9839.7213   -8930.4136    -1080.613     102002.7      46.7237      46.7237      46.7237 
  233000    110.47309   -9833.2793   -8923.7546   -869.78971     102002.7      46.7237      46.7237      46.7237 
  234000     110.3831   -9845.0052   -8936.2214   -1218.7647     102002.7      46.7237      46.7237      46.7237 
  235000    109.86106   -9844.6499    -8940.164   -968.30603     102002.7      46.7237      46.7237      46.7237 
  236000      111.165   -9854.3513   -8939.1302   -777.46674     102002.7      46.7237      46.7237      46.7237 
  237000    110.15253   -9869.8633   -8962.9778   -639.57352     102002.7      46.7237      46.7237      46.7237 
  238000    112.54645   -9835.5557    -8908.961   -1084.6097     102002.7      46.7237      46.7237      46.7237 
  239000    110.75121   -9876.0728   -8964.2583    -886.4748     102002.7      46.7237      46.7237      46.7237 
  240000    112.30875   -9840.6193   -8915.9817   -681.25862     102002.7      46.7237      46.7237      46.7237 
  241000     106.9676   -9883.4542   -9002.7902   -958.38091     102002.7      46.7237      46.7237      46.7237 
  242000    110.87405   -9861.1226   -8948.2968   -860.55841     102002.7      46.7237      46.7237      46.7237 
  243000     105.8928   -9840.1742    -8968.359   -1116.0143     102002.7      46.7237      46.7237      46.7237 
  244000    110.54855   -9877.0901   -8966.9442   -904.33061     102002.7      46.7237      46.7237      46.7237 
  245000    109.86992   -9872.1915   -8967.6327   -1081.0708     102002.7      46.7237      46.7237      46.7237 
  246000    109.35542   -9865.8388   -8965.5159   -862.22038     102002.7      46.7237      46.7237      46.7237 
  247000    110.02276   -9882.4009   -8976.5838   -725.75804     102002.7      46.7237      46.7237      46.7237 
  248000    108.98496   -9858.3991   -8961.1262   -896.13336     102002.7      46.7237      46.7237      46.7237 
  249000    113.57057   -9836.1492    -8901.123   -996.93406     102002.7      46.7237      46.7237      46.7237 
  250000    109.89399   -9854.2929   -8949.5361   -1132.2745     102002.7      46.7237      46.7237      46.7237 
  251000    110.02931   -9860.5462   -8954.6752   -1323.2308     102002.7      46.7237      46.7237      46.7237 
  252000    108.16888   -9845.6267   -8955.0726   -906.26174     102002.7      46.7237      46.7237      46.7237 
  253000    109.95288   -9853.3978    -8948.156   -1082.7001     102002.7      46.7237      46.7237      46.7237 
  254000    108.60406   -9853.4731   -8959.3361    -887.8605     102002.7      46.7237      46.7237      46.7237 
  255000    110.75132   -9836.8646   -8925.0493   -874.92794     102002.7      46.7237      46.7237      46.7237 
  256000    105.42126   -9825.3036   -8957.3707   -983.14359     102002.7      46.7237      46.7237      46.7237 
  257000    108.75922   -9867.8502   -8972.4358   -806.05837     102002.7      46.7237      46.7237      46.7237 
  258000    110.07806    -9834.678   -8928.4056   -1038.0022     102002.7      46.7237      46.7237      46.7237 
  259000    113.56054   -9852.6218   -8917.6782   -464.02034     102002.7      46.7237      46.7237      46.7237 
  260000    111.25931   -9866.4274   -8950.4298   -958.73008     102002.7      46.7237      46.7237      46.7237 
  261000    109.98358   -9871.0968   -8965.6023   -1128.9462     102002.7      46.7237      46.7237      46.7237 
  262000    110.25024   -9863.0014   -8955.3115   -868.48468     102002.7      46.7237      46.7237      46.7237 
  263000    109.28384    -9830.063   -8930.3294    -1065.277     102002.7      46.7237      46.7237      46.7237 
  264000    109.09217   -9845.2262   -8947.0707   -759.50205     102002.7      46.7237      46.7237      46.7237 
  265000    111.49849   -9848.4416   -8930.4748   -1043.5583     102002.7      46.7237      46.7237      46.7237 
  266000    112.87413    -9870.615   -8941.3226   -940.27767     102002.7      46.7237      46.7237      46.7237 
  267000    108.22958   -9888.7633   -8997.7095   -789.65571     102002.7      46.7237      46.7237      46.7237 
  268000    108.14468   -9876.4404   -8986.0855   -886.87305     102002.7      46.7237      46.7237      46.7237 
  269000    112.03966    -9836.919   -8914.4968   -790.85788     102002.7      46.7237      46.7237      46.7237 
  270000    109.12747   -9834.2224   -8935.7762   -993.88325     102002.7      46.7237      46.7237      46.7237 
  271000    108.81304   -9864.5748   -8968.7174    -1003.371     102002.7      46.7237      46.7237      46.7237 
  272000    109.79063   -9823.0594   -8919.1534   -1025.2488     102002.7      46.7237      46.7237      46.7237 
  273000    106.92955   -9857.9547    -8977.604   -897.76721     102002.7      46.7237      46.7237      46.7237 
  274000    110.53835    -9876.351   -8966.2891   -1114.4537     102002.7      46.7237      46.7237      46.7237 
  275000    111.70065   -9847.1941   -8927.5629   -987.68324     102002.7      46.7237      46.7237      46.7237 
  276000    109.25579   -9842.9994   -8943.4968    -985.7628     102002.7      46.7237      46.7237      46.7237 
  277000    109.86039   -9857.7616   -8953.2813   -1029.0929     102002.7      46.7237      46.7237      46.7237 
  278000    110.41665    -9852.822   -8943.7619   -861.75946     102002.7      46.7237      46.7237      46.7237 
  279000    111.78648   -9842.4414   -8922.1037   -641.29486     102002.7      46.7237      46.7237      46.7237 
  280000    112.69141   -9853.2017   -8925.4136   -852.08246     102002.7      46.7237      46.7237      46.7237 
  281000    109.86494   -9842.9599   -8938.4421   -747.43832     102002.7      46.7237      46.7237      46.7237 
  282000    107.94353   -9867.5974   -8978.8985   -865.00427     102002.7      46.7237      46.7237      46.7237 
  283000    107.64631   -9862.0783   -8975.8265    -1100.703     102002.7      46.7237      46.7237      46.7237 
  284000    111.88365   -9864.2293   -8943.0915   -711.59216     102002.7      46.7237      46.7237      46.7237 
  285000     110.6814    -9816.939   -8905.6993   -655.02334     102002.7      46.7237      46.7237      46.7237 
  286000    109.36685   -9846.7794   -8946.3624   -900.22191     102002.7      46.7237      46.7237      46.7237 
  287000    113.01652    -9811.033   -8880.5683   -992.25706     102002.7      46.7237      46.7237      46.7237 
  288000     111.8112    -9863.185   -8942.6437   -1045.3128     102002.7      46.7237      46.7237      46.7237 
  289000    109.59452   -9840.8633    -8938.572   -1123.0412     102002.7      46.7237      46.7237      46.7237 
  290000    106.59639   -9833.2252   -8955.6174   -1095.6285     102002.7      46.7237      46.7237      46.7237 
  291000    109.72561   -9840.8415   -8937.4708   -942.57884     102002.7      46.7237      46.7237      46.7237 
  292000    111.29649   -9863.6335   -8947.3298   -1093.8172     102002.7      46.7237      46.7237      46.7237 
  293000    111.26799   -9851.8194   -8935.7504   -1006.6094     102002.7      46.7237      46.7237      46.7237 
  294000    114.72785   -9843.3154   -8898.7613   -669.62174     102002.7      46.7237      46.7237      46.7237 
  295000     108.9375   -9858.6565   -8961.7744   -807.45747     102002.7      46.7237      46.7237      46.7237 
  296000    109.08825   -9841.4188   -8943.2955   -1035.2305     102002.7      46.7237      46.7237      46.7237 
  297000    109.12924   -9856.9623   -8958.5015   -843.42647     102002.7      46.7237      46.7237      46.7237 
  298000       109.81   -9842.9999   -8938.9344   -767.30548     102002.7      46.7237      46.7237      46.7237 
  299000    111.14511   -9865.4748   -8950.4174   -686.65399     102002.7      46.7237      46.7237      46.7237 
  300000    109.34147   -9874.1187   -8973.9107   -917.44646     102002.7      46.7237      46.7237      46.7237 
  301000    107.99194   -9851.1456   -8962.0482   -777.88531     102002.7      46.7237      46.7237      46.7237 
  302000    112.46582   -9850.6173   -8924.6865    -1022.392     102002.7      46.7237      46.7237      46.7237 
  303000    108.19056   -9846.9682   -8956.2356   -771.79264     102002.7      46.7237      46.7237      46.7237 
  304000    111.85262   -9843.8774    -8922.995   -939.13826     102002.7      46.7237      46.7237      46.7237 
  305000    110.46242    -9848.506   -8939.0692   -1155.3039     102002.7      46.7237      46.7237      46.7237 
  306000     112.6342   -9849.4388   -8922.1217   -1053.9155     102002.7      46.7237      46.7237      46.7237 
  307000     110.1354   -9849.8527   -8943.1082   -891.21584     102002.7      46.7237      46.7237      46.7237 
  308000    109.39786   -9861.2172   -8960.5449   -768.99786     102002.7      46.7237      46.7237      46.7237 
  309000    106.98137   -9847.4834   -8966.7061   -978.99914     102002.7      46.7237      46.7237      46.7237 
  310000    110.08174     -9826.39   -8920.0873   -1061.2269     102002.7      46.7237      46.7237      46.7237 
  311000    109.59908   -9870.9758   -8968.6469   -866.00531     102002.7      46.7237      46.7237      46.7237 
  312000    109.73766   -9857.8435   -8954.3737   -1024.7051     102002.7      46.7237      46.7237      46.7237 
  313000    110.52819   -9843.0929   -8933.1146   -1026.1308     102002.7      46.7237      46.7237      46.7237 
  314000    111.94526   -9860.6072   -8938.9622   -1164.9717     102002.7      46.7237      46.7237      46.7237 
  315000    111.74134   -9843.4514   -8923.4852   -1066.3976     102002.7      46.7237      46.7237      46.7237 
  316000    109.78102   -9850.4481   -8946.6213   -1011.4826     102002.7      46.7237      46.7237      46.7237 
  317000    110.75846   -9842.5473   -8930.6732   -1107.8496     102002.7      46.7237      46.7237      46.7237 
  318000    113.65811   -9871.5628   -8935.8158   -749.95795     102002.7      46.7237      46.7237      46.7237 
  319000    109.70536   -9850.8734   -8947.6694   -1010.3647     102002.7      46.7237      46.7237      46.7237 
  320000    108.24994   -9869.2269   -8978.0054   -890.04429     102002.7      46.7237      46.7237      46.7237 
  321000    113.43186   -9871.0071   -8937.1228   -815.52767     102002.7      46.7237      46.7237      46.7237 
  322000    111.35076   -9861.9074   -8945.1569   -1079.8057     102002.7      46.7237      46.7237      46.7237 
  323000    109.39893   -9860.7138   -8960.0327   -992.90065     102002.7      46.7237      46.7237      46.7237 
  324000     109.8974   -9843.7621   -8938.9771   -861.91634     102002.7      46.7237      46.7237      46.7237 
  325000    109.17767   -9843.0159   -8944.1564   -1116.2942     102002.7      46.7237      46.7237      46.7237 
  326000    111.96472   -9821.1754   -8899.3701   -1155.2816     102002.7      46.7237      46.7237      46.7237 
  327000    107.41836   -9854.1862   -8969.8112   -1180.7531     102002.7      46.7237      46.7237      46.7237 
  328000    108.70272   -9883.1545   -8988.2054   -705.46787     102002.7      46.7237      46.7237      46.7237 
  329000    112.20356   -9871.3045   -8947.5329   -931.87584     102002.7      46.7237      46.7237      46.7237 
  330000    108.87827   -9849.7607   -8953.3662   -1160.7497     102002.7      46.7237      46.7237      46.7237 
  331000    112.83373   -9863.9065   -8934.9467   -971.72143     102002.7      46.7237      46.7237      46.7237 
  332000       111.28   -9867.1904   -8951.0224   -784.42957     102002.7      46.7237      46.7237      46.7237 
  333000    112.55231   -9833.7365   -8907.0936    -1059.733     102002.7      46.7237      46.7237      46.7237 
  334000    109.46662   -9845.4072   -8944.1688   -856.31923     102002.7      46.7237      46.7237      46.7237 
  335000    109.43394   -9846.8286   -8945.8593   -1302.5328     102002.7      46.7237      46.7237      46.7237 
  336000    111.16987    -9853.091   -8937.8297   -1132.2474     102002.7      46.7237      46.7237      46.7237 
  337000       111.06   -9831.3471   -8916.9903   -1146.7888     102002.7      46.7237      46.7237      46.7237 
  338000    111.75678   -9802.7721   -8882.6788   -925.32882     102002.7      46.7237      46.7237      46.7237 
  339000    109.27394   -9862.6112   -8962.9592   -1378.4848     102002.7      46.7237      46.7237      46.7237 
  340000    108.48052   -9865.1497   -8972.0299     -1202.58     102002.7      46.7237      46.7237      46.7237 
  341000    108.76558   -9886.1616   -8990.6949   -826.25517     102002.7      46.7237      46.7237      46.7237 
  342000    108.15941   -9839.8392   -8949.3631   -820.54178     102002.7      46.7237      46.7237      46.7237 
  343000    109.24577   -9864.7142   -8965.2941   -772.79065     102002.7      46.7237      46.7237      46.7237 
  344000    109.84826   -9885.7428   -8981.3624   -1118.5707     102002.7      46.7237      46.7237      46.7237 
  345000    109.12254   -9856.1594   -8957.7538   -992.37337     102002.7      46.7237      46.7237      46.7237 
  346000      111.489   -9857.5267   -8939.6381   -984.71096     102002.7      46.7237      46.7237      46.7237 
  347000    110.02777   -9846.7037   -8940.8454   -1094.8586     102002.7      46.7237      46.7237      46.7237 
  348000    109.55057   -9862.0655   -8960.1359   -720.44503     102002.7      46.7237      46.7237      46.7237 
  349000    108.25893   -9892.9229   -9001.6274   -798.38122     102002.7      46.7237      46.7237      46.7237 
  350000    108.76038   -9827.9605   -8932.5366   -923.00869     102002.7      46.7237      46.7237      46.7237 
  351000    111.26717   -9852.8957   -8936.8334   -1060.0033     102002.7      46.7237      46.7237      46.7237 
  352000    110.88274   -9834.8371   -8921.9398   -1330.4067     102002.7      46.7237      46.7237      46.7237 
  353000    110.11239   -9811.4825   -8904.9275   -909.72607     102002.7      46.7237      46.7237      46.7237 
  354000    109.36228   -9858.5382   -8958.1588   -868.19344     102002.7      46.7237      46.7237      46.7237 
  355000    109.49128   -9875.9746   -8974.5332   -916.29528     102002.7      46.7237      46.7237      46.7237 
  356000    108.32225   -9858.4254   -8966.6086   -988.71843     102002.7      46.7237      46.7237      46.7237 
  357000    108.01037   -9832.8545   -8943.6054   -768.67744     102002.7      46.7237      46.7237      46.7237 
  358000    109.00068   -9858.1665   -8960.7641   -1094.3822     102002.7      46.7237      46.7237      46.7237 
  359000    113.42706   -9839.8617   -8906.0171   -888.16429     102002.7      46.7237      46.7237      46.7237 
  360000    109.73481   -9851.6828   -8948.2364   -981.41232     102002.7      46.7237      46.7237      46.7237 
  361000     111.9155   -9854.2512   -8932.8512   -620.45999     102002.7      46.7237      46.7237      46.7237 
  362000    113.31627   -9843.8705   -8910.9379    -919.0428     102002.7      46.7237      46.7237      46.7237 
  363000    107.17411   -9855.9601   -8973.5958   -988.42456     102002.7      46.7237      46.7237      46.7237 
  364000    109.88136   -9829.0034   -8924.3505    -756.1415     102002.7      46.7237      46.7237      46.7237 
  365000    110.58208   -9869.3684   -8958.9464   -907.65166     102002.7      46.7237      46.7237      46.7237 
  366000    109.67483   -9856.8078   -8953.8552   -716.87119     102002.7      46.7237      46.7237      46.7237 
  367000    113.14715   -9844.3385   -8912.7984   -828.22636     102002.7      46.7237      46.7237      46.7237 
  368000    110.59336    -9860.517   -8950.0021   -1226.9195     102002.7      46.7237      46.7237      46.7237 
  369000    111.04998   -9855.3541     -8941.08   -751.21772     102002.7      46.7237      46.7237      46.7237 
  370000    110.75868   -9850.5509    -8938.675   -1262.9682     102002.7      46.7237      46.7237      46.7237 
  371000    110.46774   -9855.2539   -8945.7733   -1059.1186     102002.7      46.7237      46.7237      46.7237 
  372000    111.49674   -9872.7823     -8954.83   -807.41793     102002.7      46.7237      46.7237      46.7237 
  373000    110.43115     -9835.66   -8926.4806   -993.85054     102002.7      46.7237      46.7237      46.7237 
  374000     108.6015   -9863.6665   -8969.5507   -899.08116     102002.7      46.7237      46.7237      46.7237 
  375000    110.08755   -9848.6956   -8942.3451   -1162.8041     102002.7      46.7237      46.7237      46.7237 
  376000    110.92306   -9850.8869   -8937.6577   -921.89661     102002.7      46.7237      46.7237      46.7237 
  377000    106.08235   -9877.1254   -9003.7498   -582.97085     102002.7      46.7237      46.7237      46.7237 
  378000    110.26825   -9853.4961   -8945.6579   -1039.5866     102002.7      46.7237      46.7237      46.7237 
  379000    110.68045   -9848.1241   -8936.8922   -879.59866     102002.7      46.7237      46.7237      46.7237 
  380000    110.07429   -9829.4548   -8923.2135   -1071.4601     102002.7      46.7237      46.7237      46.7237 
  381000    110.60794   -9841.5511   -8930.9162   -958.73556     102002.7      46.7237      46.7237      46.7237 
  382000    112.90633   -9856.1026   -8926.5451   -682.38994     102002.7      46.7237      46.7237      46.7237 
  383000    111.38939   -9845.3747   -8928.3061    -998.4514     102002.7      46.7237      46.7237      46.7237 
  384000    108.45914   -9857.8186   -8964.8747   -1213.7905     102002.7      46.7237      46.7237      46.7237 
  385000    109.19209   -9861.6771   -8962.6989   -1029.0024     102002.7      46.7237      46.7237      46.7237 
  386000    112.94447    -9871.883   -8942.0115   -1076.7227     102002.7      46.7237      46.7237      46.7237 
  387000    113.06525   -9857.8609    -8926.995   -1058.0239     102002.7      46.7237      46.7237      46.7237 
  388000    108.02048   -9872.8939   -8983.5615   -925.29351     102002.7      46.7237      46.7237      46.7237 
  389000     109.0485   -9875.5876   -8977.7916     -849.681     102002.7      46.7237      46.7237      46.7237 
  390000    111.87453   -9809.2345   -8888.1718   -1017.2721     102002.7      46.7237      46.7237      46.7237 
  391000    109.67873   -9855.6435   -8952.6588   -895.27641     102002.7      46.7237      46.7237      46.7237 
  392000    109.32024   -9877.5809   -8977.5477   -858.67479     102002.7      46.7237      46.7237      46.7237 
  393000     110.4544   -9857.2504   -8947.8797   -827.14404     102002.7      46.7237      46.7237      46.7237 
  394000    108.60905   -9832.4971   -8938.3191   -872.30398     102002.7      46.7237      46.7237      46.7237 
  395000    108.25172   -9834.9974   -8943.7613   -689.03327     102002.7      46.7237      46.7237      46.7237 
  396000    110.11266   -9855.1885   -8948.6312   -836.02524     102002.7      46.7237      46.7237      46.7237 
  397000    107.09912   -9870.0373   -8988.2904   -802.29606     102002.7      46.7237      46.7237      46.7237 
  398000    109.39851     -9850.05   -8949.3724    -1073.532     102002.7      46.7237      46.7237      46.7237 
  399000    109.73796   -9855.8538   -8952.3814   -733.54191     102002.7      46.7237      46.7237      46.7237 
  400000    112.26598   -9880.7594   -8956.4739   -1111.2848     102002.7      46.7237      46.7237      46.7237 
  401000    105.46349   -9857.4871   -8989.2065   -956.06721     102002.7      46.7237      46.7237      46.7237 
  402000    109.83138   -9879.2809   -8975.0395   -1012.0477     102002.7      46.7237      46.7237      46.7237 
  403000    109.38377   -9870.1656   -8969.6093   -986.74823     102002.7      46.7237      46.7237      46.7237 
  404000    106.72279   -9855.0569   -8976.4084   -1172.2152     102002.7      46.7237      46.7237      46.7237 
  405000    110.55495   -9854.9697   -8944.7711   -774.02945     102002.7      46.7237      46.7237      46.7237 
  406000    106.96934   -9854.6719   -8973.9937   -1152.2449     102002.7      46.7237      46.7237      46.7237 
  407000    111.83922   -9866.5499   -8945.7779   -768.70731     102002.7      46.7237      46.7237      46.7237 
  408000    109.48317   -9855.3815   -8954.0068   -1201.7516     102002.7      46.7237      46.7237      46.7237 
  409000    107.91563   -9879.3878   -8990.9186   -868.35195     102002.7      46.7237      46.7237      46.7237 
  410000    113.06836   -9873.1853   -8942.2938   -968.95316     102002.7      46.7237      46.7237      46.7237 
  411000    110.98182   -9838.0979   -8924.3848   -950.20645     102002.7      46.7237      46.7237      46.7237 
  412000    112.58366   -9870.6783   -8943.7773   -943.85683     102002.7      46.7237      46.7237      46.7237 
  413000    112.82399   -9864.6343   -8935.7547   -1048.0816     102002.7      46.7237      46.7237      46.7237 
  414000    109.02337   -9870.5776   -8972.9885   -1052.1703     102002.7      46.7237      46.7237      46.7237 
  415000    108.65527   -9865.2442   -8970.6856   -788.25127     102002.7      46.7237      46.7237      46.7237 
  416000    109.18276   -9875.7838   -8976.8824    -874.8686     102002.7      46.7237      46.7237      46.7237 
  417000    110.33787   -9866.8873   -8958.4759   -866.44639     102002.7      46.7237      46.7237      46.7237 
  418000    105.90701   -9857.9457   -8986.0136   -1198.3417     102002.7      46.7237      46.7237      46.7237 
  419000    111.51672    -9851.157   -8933.0401   -1234.1719     102002.7      46.7237      46.7237      46.7237 
  420000    106.38557   -9876.8269   -9000.9548   -1152.5725     102002.7      46.7237      46.7237      46.7237 
  421000     110.7682   -9853.1611   -8941.2068   -1113.6751     102002.7      46.7237      46.7237      46.7237 
  422000    107.90238   -9862.3094   -8973.9494   -663.54093     102002.7      46.7237      46.7237      46.7237 
  423000    107.89712   -9860.3737    -8972.057    -946.9157     102002.7      46.7237      46.7237      46.7237 
  424000    109.48339   -9876.1843   -8974.8078   -1035.9709     102002.7      46.7237      46.7237      46.7237 
  425000    110.91045   -9858.5931   -8945.4676   -1018.9371     102002.7      46.7237      46.7237      46.7237 
  426000    112.55931   -9854.2745    -8927.574   -1221.0278     102002.7      46.7237      46.7237      46.7237 
  427000    107.54906   -9873.1925   -8987.7414   -780.61884     102002.7      46.7237      46.7237      46.7237 
  428000    110.61032   -9857.0878   -8946.4333   -787.28772     102002.7      46.7237      46.7237      46.7237 
  429000    110.67434   -9845.3889   -8934.2074   -835.19522     102002.7      46.7237      46.7237      46.7237 
  430000    110.24804   -9866.3664   -8958.6946   -688.14322     102002.7      46.7237      46.7237      46.7237 
  431000    108.62214   -9851.0204   -8956.7346   -796.49809     102002.7      46.7237      46.7237      46.7237 
  432000    108.51047   -9865.9065   -8972.5401   -890.74872     102002.7      46.7237      46.7237      46.7237 
  433000     110.7623   -9862.8858   -8950.9801   -949.87166     102002.7      46.7237      46.7237      46.7237 
  434000    111.82824   -9848.5121   -8927.8305   -1119.4841     102002.7      46.7237      46.7237      46.7237 
  435000    109.27746   -9878.1915   -8978.5104   -765.17998     102002.7      46.7237      46.7237      46.7237 
  436000    108.84121    -9840.629   -8944.5396   -1065.2141     102002.7      46.7237      46.7237      46.7237 
  437000    108.89682   -9852.7958   -8956.2485    -1178.683     102002.7      46.7237      46.7237      46.7237 
  438000    110.77726   -9833.6942   -8921.6653   -1236.5152     102002.7      46.7237      46.7237      46.7237 
  439000    109.93487   -9879.7459   -8974.6524   -1010.0122     102002.7      46.7237      46.7237      46.7237 
  440000     109.2439   -9860.3005   -8960.8958   -1192.0617     102002.7      46.7237      46.7237      46.7237 
  441000    111.62846   -9869.4877   -8950.4509   -1163.9505     102002.7      46.7237      46.7237      46.7237 
  442000    110.40264   -9885.6638   -8976.7191   -733.66307     102002.7      46.7237      46.7237      46.7237 
  443000    112.46733   -9854.5354   -8928.5923   -547.17436     102002.7      46.7237      46.7237      46.7237 
  444000    108.95932   -9852.0124   -8954.9506   -1073.2462     102002.7      46.7237      46.7237      46.7237 
  445000    110.25153   -9848.3319   -8940.6314   -996.72198     102002.7      46.7237      46.7237      46.7237 
  446000    108.22755   -9875.6581   -8984.6209   -866.07207     102002.7      46.7237      46.7237      46.7237 
  447000    109.46618   -9870.1124   -8968.8776   -878.74962     102002.7      46.7237      46.7237      46.7237 
  448000    109.42589    -9889.377   -8988.4739   -978.99252     102002.7      46.7237      46.7237      46.7237 
  449000    110.12919   -9846.6826   -8939.9893   -1189.5239     102002.7      46.7237      46.7237      46.7237 
  450000    112.91888    -9888.243   -8958.5821   -855.16017     102002.7      46.7237      46.7237      46.7237 
  451000    111.95202   -9858.7906     -8937.09    -793.6601     102002.7      46.7237      46.7237      46.7237 
  452000    111.54046   -9883.0176   -8964.7053   -806.78401     102002.7      46.7237      46.7237      46.7237 
  453000    110.39447   -9871.3721   -8962.4948   -831.00444     102002.7      46.7237      46.7237      46.7237 
  454000    111.64719   -9867.0819   -8947.8908   -1037.4871     102002.7      46.7237      46.7237      46.7237 
  455000    110.11571   -9858.2011   -8951.6188     -1089.13     102002.7      46.7237      46.7237      46.7237 
  456000    108.49252   -9825.0377   -8931.8191   -948.18947     102002.7      46.7237      46.7237      46.7237 
  457000    110.90973   -9875.5597   -8962.4402   -1107.4135     102002.7      46.7237      46.7237      46.7237 
  458000    109.64627   -9839.2396   -8936.5221   -1136.9204     102002.7      46.7237      46.7237      46.7237 
  459000     109.7186   -9863.0885   -8959.7756   -681.56995     102002.7      46.7237      46.7237      46.7237 
  460000    110.89984   -9865.5241   -8952.4861   -788.50883     102002.7      46.7237      46.7237      46.7237 
  461000    109.29818   -9876.2793   -8976.4277   -693.61968     102002.7      46.7237      46.7237      46.7237 
  462000    112.12793   -9877.6361   -8954.4872   -960.17681     102002.7      46.7237      46.7237      46.7237 
  463000    110.93081   -9862.5842   -8949.2912   -888.83711     102002.7      46.7237      46.7237      46.7237 
  464000    112.95707    -9856.282   -8926.3068   -793.78722     102002.7      46.7237      46.7237      46.7237 
  465000    108.34257   -9840.7327   -8948.7486   -1095.0846     102002.7      46.7237      46.7237      46.7237 
  466000    107.20797   -9830.7783   -8948.1353   -891.45014     102002.7      46.7237      46.7237      46.7237 
  467000    106.16693   -9840.5439   -8966.4718   -939.52053     102002.7      46.7237      46.7237      46.7237 
  468000    108.74984    -9814.176   -8918.8389   -1262.0522     102002.7      46.7237      46.7237      46.7237 
  469000    109.69291   -9874.6143   -8971.5128   -882.70066     102002.7      46.7237      46.7237      46.7237 
  470000     110.2102   -9848.6879   -8941.3276   -1104.9862     102002.7      46.7237      46.7237      46.7237 
  471000    110.52958   -9852.7884   -8942.7987   -1064.5341     102002.7      46.7237      46.7237      46.7237 
  472000    109.94704   -9869.5067    -8964.313   -932.05288     102002.7      46.7237      46.7237      46.7237 
  473000    109.93884   -9876.0218   -8970.8956   -1134.2909     102002.7      46.7237      46.7237      46.7237 
  474000    112.66848   -9859.6062   -8932.0069   -933.82651     102002.7      46.7237      46.7237      46.7237 
  475000    109.30642    -9851.787   -8951.8675    -1293.009     102002.7      46.7237      46.7237      46.7237 
  476000    112.20281   -9825.2039   -8901.4384   -1120.1553     102002.7      46.7237      46.7237      46.7237 
  477000    107.65394   -9836.3317   -8950.0171   -1293.6981     102002.7      46.7237      46.7237      46.7237 
  478000    107.07141   -9849.8741   -8968.3554   -864.98141     102002.7      46.7237      46.7237      46.7237 
  479000    108.91952   -9884.2521    -8987.518   -829.58776     102002.7      46.7237      46.7237      46.7237 
  480000    111.95355   -9868.7045   -8946.9912   -805.41844     102002.7      46.7237      46.7237      46.7237 
  481000     107.3436   -9869.8439   -8986.0843   -757.19695     102002.7      46.7237      46.7237      46.7237 
  482000    109.15774   -9882.2081   -8983.5127   -963.07547     102002.7      46.7237      46.7237      46.7237 
  483000    109.02982   -9869.2736   -8971.6314    -809.9984     102002.7      46.7237      46.7237      46.7237 
  484000    109.64774   -9877.7469   -8975.0174   -811.03544     102002.7      46.7237      46.7237      46.7237 
  485000    109.98015   -9862.6344   -8957.1681   -877.12842     102002.7      46.7237      46.7237      46.7237 
  486000    108.71228   -9874.7936   -8979.7657   -945.73203     102002.7      46.7237      46.7237      46.7237 
  487000    111.40509   -9843.6211   -8926.4232    -1055.154     102002.7      46.7237      46.7237      46.7237 
  488000    106.76512   -9855.4395   -8976.4425   -1007.1522     102002.7      46.7237      46.7237      46.7237 
  489000    110.77193   -9883.8242   -8971.8392   -994.06829     102002.7      46.7237      46.7237      46.7237 
  490000    107.95758   -9879.6478   -8990.8333   -1011.7466     102002.7      46.7237      46.7237      46.7237 
  491000    108.80456   -9853.4929   -8957.7053   -964.32147     102002.7      46.7237      46.7237      46.7237 
  492000    109.50523   -9879.8291   -8978.2728   -939.29916     102002.7      46.7237      46.7237      46.7237 
  493000    111.52752   -9901.4713   -8983.2655   -1006.7283     102002.7      46.7237      46.7237      46.7237 
  494000    108.26009   -9853.2185   -8961.9135   -1139.6102     102002.7      46.7237      46.7237      46.7237 
  495000    109.39853   -9845.0611   -8944.3833   -741.43629     102002.7      46.7237      46.7237      46.7237 
  496000      108.575   -9881.7936   -8987.8959    -887.6143     102002.7      46.7237      46.7237      46.7237 
  497000    110.14319   -9862.5552   -8955.7466    -1047.996     102002.7      46.7237      46.7237      46.7237 
  498000    107.40552   -9836.2942   -8952.0248   -1056.7942     102002.7      46.7237      46.7237      46.7237 
  499000     110.1887    -9865.217   -8958.0337    -1328.979     102002.7      46.7237      46.7237      46.7237 
  500000    110.78389   -9866.1663   -8954.0828   -936.67177     102002.7      46.7237      46.7237      46.7237 
  500500    111.89255   -9839.7163   -8918.5052   -885.24254     102002.7      46.7237      46.7237      46.7237 
Loop time of 815.54 on 24 procs for 500000 steps with 2763 atoms

Performance: 52.971 ns/day, 0.453 hours/ns, 613.091 timesteps/s
98.0% CPU use with 24 MPI tasks x no OpenMP threads

MPI task timing breakdown:
Section |  min time  |  avg time  |  max time  |%varavg| %total
---------------------------------------------------------------
Pair    | 268.8      | 403.18     | 560.73     | 414.6 | 49.44
Bond    | 58.772     | 78.576     | 102.25     | 141.5 |  9.63
Neigh   | 6.3803     | 6.399      | 6.4159     |   0.5 |  0.78
Comm    | 134.73     | 312.79     | 464.01     | 528.3 | 38.35
Output  | 0.43921    | 0.43996    | 0.45206    |   0.4 |  0.05
Modify  | 4.3321     | 4.8633     | 5.4272     |  15.0 |  0.60
Other   |            | 9.29       |            |       |  1.14

Nlocal:    115.125 ave 154 max 80 min
Histogram: 3 1 4 0 4 4 2 3 0 3
Nghost:    3074.75 ave 3116 max 3031 min
Histogram: 1 1 3 4 2 4 5 0 2 2
Neighs:    7641.33 ave 14784 max 2741 min
Histogram: 5 2 4 1 2 3 3 1 2 1

Total # of neighbors = 183392
Ave neighs/atom = 66.3742
Ave special neighs/atom = 4.16938
Neighbor list builds = 4685
Dangerous builds = 0
Neighbor list info ...
  update every 1 steps, delay 10 steps, check yes
  max neighbors/atom: 2000, page size: 100000
  master list distance cutoff = 16
  ghost atom cutoff = 16
  binsize = 8, bins = 6 6 6
  3 neighbor lists, perpetual/occasional/extra = 3 0 0
  (1) pair buck6d/coul/gauss/dsf, perpetual, skip from (3)
      attributes: half, newton on
      pair build: skip
      stencil: none
      bin: none
  (2) pair lj/cut, perpetual, skip from (3)
      attributes: half, newton on
      pair build: skip
      stencil: none
      bin: none
  (3) neighbor class addition, perpetual
      attributes: half, newton on
      pair build: half/bin/newton
      stencil: half/bin/3d/newton
      bin: standard
Setting up Verlet run ...
  Unit style    : real
  Current step  : 500500
  Time step     : 1
WARNING: Inconsistent image flags (../domain.cpp:786)
Per MPI rank memory allocation (min/avg/max) = 24.34 | 24.58 | 24.65 Mbytes
Step Time TotEng KinEng PotEng E_mol E_pair Temp Pxx Pyy Pzz Pxy Pxz Pyz Cella Cellb Cellc CellAlpha CellBeta CellGamma Volume Press 
  500500       500000   -8918.5052     921.2111   -9839.7163    4290.5207   -14130.237    111.89255    -817.2185   -804.29938   -1034.2097   -198.84597    157.51181    87.801806      46.7237      46.7237      46.7237           90           90           90     102002.7   -885.24254 
  501000       500500   -8922.2759    913.86548   -9836.1414    4286.6381   -14122.779    111.00034   -406.53196   -942.30817   -866.00681   -228.62072    95.160737    19.601048      46.7237      46.7237      46.7237           90           90           90     102002.7   -738.28231 
  502000       501500   -8975.9595    897.13171   -9873.0913    4262.1493   -14135.241    108.96781   -1131.8926   -647.17124   -1005.3342    4.9564587   -73.107278    320.11269      46.7237      46.7237      46.7237           90           90           90     102002.7   -928.13269 
  503000       502500   -8933.7579    920.34341   -9854.1014    4272.9959   -14127.097    111.78716   -806.02212   -998.17356   -801.58873   -44.222733    106.24956     134.6351      46.7237      46.7237      46.7237           90           90           90     102002.7    -868.5948 
  504000       503500   -8926.4412    913.42273    -9839.864    4283.6571   -14123.521    110.94656   -1235.2901   -1048.2963   -850.59705   -74.389107    349.21368   -167.63182      46.7237      46.7237      46.7237           90           90           90     102002.7   -1044.7278 
  505000       504500   -8935.7872    898.33655   -9834.1238    4289.9149   -14124.039    109.11416   -679.63192   -899.38154   -801.99378    49.028529   -108.94251    8.9029019      46.7237      46.7237      46.7237           90           90           90     102002.7   -793.66908 
  506000       505500   -8897.7386    934.39581   -9832.1344    4294.9426   -14127.077      113.494   -766.08787   -871.96695   -876.51784   -89.947388   -12.882229      42.5898      46.7237      46.7237      46.7237           90           90           90     102002.7   -838.19089 
  507000       506500   -8959.6142    892.15048   -9851.7647    4276.4514   -14128.216    108.36278   -878.80874   -841.50274   -1080.1306   -189.23512    61.473895   -56.402947      46.7237      46.7237      46.7237           90           90           90     102002.7   -933.48069 
  508000       507500   -8958.7687    894.73718   -9853.5059    4281.8126   -14135.319    108.67697    -834.7268   -1071.8292   -854.71967      26.0735    235.22123    21.470322      46.7237      46.7237      46.7237           90           90           90     102002.7   -920.42523 
  509000       508500   -8973.3532    902.23181    -9875.585    4282.0928   -14157.678    109.58728   -1109.1207   -1658.2778    -1372.846   -29.953212   -11.444552    65.562436      46.7237      46.7237      46.7237           90           90           90     102002.7   -1380.0815 
  510000       509500   -8938.6228    914.17684   -9852.7997    4288.7595   -14141.559    111.03816   -1067.8312   -1119.4252   -1348.7353    42.551523    81.255268    165.43439      46.7237      46.7237      46.7237           90           90           90     102002.7   -1178.6639 
  511000       510500   -8929.5989     910.7835   -9840.3824    4279.2698   -14119.652    110.62599   -1119.6163   -795.75937   -973.69788    165.61145   -129.02812   -107.77877      46.7237      46.7237      46.7237           90           90           90     102002.7    -963.0245 
  512000       511500   -8938.5958    904.15829   -9842.7541    4267.7635   -14110.518    109.82128   -1037.7513   -815.01397   -1124.7509     230.9783    327.37645    35.968478      46.7237      46.7237      46.7237           90           90           90     102002.7   -992.50541 
  513000       512500   -8973.2085    886.63281   -9859.8414    4272.6271   -14132.468    107.69259   -872.51443   -532.03492    -690.9616    106.36628     93.44543   -205.36412      46.7237      46.7237      46.7237           90           90           90     102002.7   -698.50365 
  514000       513500   -8932.2142    912.99039   -9845.2045    4279.5923   -14124.797    110.89405   -763.96088   -787.91159   -783.62471   -17.546392   -113.68809    26.563722      46.7237      46.7237      46.7237           90           90           90     102002.7   -778.49906 
  515000       514500   -8946.9875    910.38028   -9857.3678    4282.8373   -14140.205    110.57702    -923.7009   -1027.1514   -1290.7796   -112.98964    18.835062   -52.316573      46.7237      46.7237      46.7237           90           90           90     102002.7    -1080.544 
  516000       515500   -8958.7634    909.06941   -9867.8329    4277.7671     -14145.6    110.41779   -174.31416   -686.30061   -975.45737    63.965338    162.11128    -210.6868      46.7237      46.7237      46.7237           90           90           90     102002.7   -612.02405 
  517000       516500   -8928.7136    908.96399   -9837.6776    4278.0284   -14115.706    110.40499   -1112.4299   -855.53479   -957.52876    70.729711    -109.9979   -84.137514      46.7237      46.7237      46.7237           90           90           90     102002.7    -975.1645 
  518000       517500   -8972.8536    896.75752   -9869.6111    4279.0959   -14148.707    108.92236   -601.63768   -947.12772    -852.3628    -13.75701   -121.77335   -279.54178      46.7237      46.7237      46.7237           90           90           90     102002.7   -800.37607 
  519000       518500    -8949.202    920.30446   -9869.5065     4285.859   -14155.365    111.78243   -554.44229   -1007.5829   -1061.2329    29.161003   -46.838792    6.0373235      46.7237      46.7237      46.7237           90           90           90     102002.7   -874.41938 
  520000       519500   -8973.9195     883.4563   -9857.3758    4281.6953   -14139.071    107.30676   -1117.7481   -1626.4096   -737.10253    113.17045    219.09382   -15.292079      46.7237      46.7237      46.7237           90           90           90     102002.7   -1160.4201 
  521000       520500   -8946.2206    912.42183   -9858.6424    4275.4087   -14134.051    110.82499    -436.8094   -862.26097   -573.08372    60.821653   -49.150143    -74.12231      46.7237      46.7237      46.7237           90           90           90     102002.7   -624.05136 
  522000       521500   -8925.9278    923.38723    -9849.315    4282.4753    -14131.79    112.15687   -897.58614   -982.84263   -745.77597    29.021314   -87.796168    274.88011      46.7237      46.7237      46.7237           90           90           90     102002.7   -875.40158 
  523000       522500   -8952.8048    903.98103   -9856.7858    4268.2541    -14125.04    109.79975   -1350.4678   -1051.8675   -787.69393    324.84925    106.31816    195.96566      46.7237      46.7237      46.7237           90           90           90     102002.7   -1063.3431 
  524000       523500   -8941.1978    902.79296   -9843.9908    4285.1698   -14129.161    109.65544   -707.66298   -834.22808   -1162.3599    246.09041   -149.20889   -297.33462      46.7237      46.7237      46.7237           90           90           90     102002.7   -901.41699 
  525000       524500   -8930.7894    915.84603   -9846.6354    4269.4282   -14116.064     111.2409   -944.74878   -459.98867   -1329.8269   -50.983009   -146.32173   -184.15293      46.7237      46.7237      46.7237           90           90           90     102002.7   -911.52145 
  526000       525500   -8940.2098    919.20679   -9859.4165    4254.8476   -14114.264    111.64911   -1076.5266    -965.2157   -948.13406    123.29752    11.503984    27.392913      46.7237      46.7237      46.7237           90           90           90     102002.7   -996.62546 
  527000       526500   -8925.3053     896.9653   -9822.2706    4304.8256   -14127.096     108.9476   -686.82932   -726.11065   -860.98711   -84.038432   -71.645928     48.43396      46.7237      46.7237      46.7237           90           90           90     102002.7   -757.97569 
  528000       527500   -8974.4117    897.54557   -9871.9573    4264.4731    -14136.43    109.01808   -765.88125   -622.63539   -721.73466    180.53653   -53.424976   -23.107609      46.7237      46.7237      46.7237           90           90           90     102002.7    -703.4171 
  529000       528500   -8972.5713    905.18928   -9877.7606    4241.0585   -14118.819     109.9465   -976.31005   -816.57032   -589.27675   -279.31428    66.225091   -109.52123      46.7237      46.7237      46.7237           90           90           90     102002.7   -794.05238 
  530000       529500   -8946.0609    902.08192   -9848.1428    4281.0589   -14129.202    109.56908   -1292.5418   -1226.2774   -1263.8623   -28.163366    296.59213    16.534201      46.7237      46.7237      46.7237           90           90           90     102002.7   -1260.8938 
  531000       530500   -8959.0736    903.62602   -9862.6996    4266.9637   -14129.663    109.75663   -985.70494   -817.27541   -870.15133   -265.14412    -56.15639   -31.443098      46.7237      46.7237      46.7237           90           90           90     102002.7   -891.04389 
  532000       531500   -8934.8114    902.59921   -9837.4106    4277.8654   -14115.276    109.63191   -580.84106   -705.99346   -843.34894   -53.117297    16.528306   -181.97076      46.7237      46.7237      46.7237           90           90           90     102002.7   -710.06115 
  533000       532500   -8927.6257    922.43224   -9850.0579    4253.4246   -14103.482    112.04088   -1008.1691   -789.03908   -828.87163    143.82616    -207.6068   -113.10852      46.7237      46.7237      46.7237           90           90           90     102002.7   -875.35995 
  534000       533500   -8949.9869    891.23562   -9841.2225    4270.0382   -14111.261    108.25166   -904.82176   -1048.9067   -954.77236    270.90935    123.58817     330.6394      46.7237      46.7237      46.7237           90           90           90     102002.7   -969.50029 
  535000       534500   -8978.6697     887.7643    -9866.434    4262.3706   -14128.805    107.83002   -634.06647   -1290.3013    -1570.026   -114.04673    1.6648431    41.857652      46.7237      46.7237      46.7237           90           90           90     102002.7   -1164.7979 
  536000       535500   -8954.7843    906.12175    -9860.906    4274.5581   -14135.464    110.05976    -1092.624   -772.15669   -877.98536    12.881465    134.10997   -246.85582      46.7237      46.7237      46.7237           90           90           90     102002.7   -914.25536 
  537000       536500   -8931.5441    910.76373   -9842.3078    4276.7137   -14119.022    110.62359   -695.78417   -875.41726   -1228.0007    120.81742    245.34656    17.246736      46.7237      46.7237      46.7237           90           90           90     102002.7   -933.06739 
  538000       537500   -8928.2971    901.09474   -9829.3919    4290.0644   -14119.456    109.44917   -1136.3501   -1093.9809   -886.30155   -98.925368    -29.74511     82.80111      46.7237      46.7237      46.7237           90           90           90     102002.7   -1038.8775 
  539000       538500   -8957.9884    912.00479   -9869.9931    4261.6778   -14131.671    110.77433   -1303.2093   -603.77828   -1150.5558    30.701206    16.909633    4.3469055      46.7237      46.7237      46.7237           90           90           90     102002.7   -1019.1811 
  540000       539500   -8930.8991     925.0097   -9855.9088    4279.8888   -14135.798    112.35394   -1122.6207   -968.41813   -502.57959    166.71401    41.239692   -210.03316      46.7237      46.7237      46.7237           90           90           90     102002.7   -864.53948 
  541000       540500   -8967.1132    888.44973   -9855.5629    4274.4244   -14129.987    107.91328   -680.81824   -842.53406   -492.98008   -80.894981    116.70849    -187.4009      46.7237      46.7237      46.7237           90           90           90     102002.7   -672.11079 
  542000       541500   -8972.2803    886.84996   -9859.1302    4289.4041   -14148.534    107.71897   -1048.9783   -618.68118   -1468.7509    71.295272   -24.427531   -19.796805      46.7237      46.7237      46.7237           90           90           90     102002.7   -1045.4701 
  543000       542500   -8942.7172     899.1825   -9841.8997    4292.6973   -14134.597    109.21691    -444.8797   -811.78579   -793.84268     110.3834     -39.3229    85.157889      46.7237      46.7237      46.7237           90           90           90     102002.7   -683.50272 
  544000       543500   -9019.5099    856.27178   -9875.7817    4262.3697   -14138.151    104.00486   -1054.2601   -1616.6208   -1096.9081    12.540358    -458.7023    87.800608      46.7237      46.7237      46.7237           90           90           90     102002.7   -1255.9297 
  545000       544500    -8973.825    896.82531   -9870.6503    4288.7279   -14159.378     108.9306   -1562.6722   -1170.6237   -1291.4816   -74.886838    -3.544075   -80.657668      46.7237      46.7237      46.7237           90           90           90     102002.7   -1341.5925 
  546000       545500   -8970.6016    897.99197   -9868.5936    4255.6054   -14124.199     109.0723   -245.77616   -663.07108   -1125.6711    278.57914    13.123834   -144.13553      46.7237      46.7237      46.7237           90           90           90     102002.7   -678.17279 
  547000       546500   -8957.3302    891.47588   -9848.8061    4268.2275   -14117.034    108.28084   -743.41068   -1049.9601   -643.31076   -50.112603    127.29465   -142.48572      46.7237      46.7237      46.7237           90           90           90     102002.7   -812.22719 
  548000       547500   -8951.2332    893.36814   -9844.6013    4293.6992   -14138.301    108.51068   -825.39504    -752.7158    -795.9111   -179.75905    70.959481    205.02359      46.7237      46.7237      46.7237           90           90           90     102002.7   -791.34065 
  549000       548500   -8938.3029    888.11877   -9826.4216    4294.3396   -14120.761    107.87308   -1028.8913   -740.97941   -986.59012   -153.52204   -16.027443    -353.4499      46.7237      46.7237      46.7237           90           90           90     102002.7   -918.82028 
  550000       549500   -8942.5021    894.20524   -9836.7074      4287.27   -14123.977    108.61236   -1102.9546   -1319.8632   -1012.0653   -209.27474    -22.11986    187.63572      46.7237      46.7237      46.7237           90           90           90     102002.7    -1144.961 
  551000       550500   -8934.3677    912.78417   -9847.1519    4267.2781    -14114.43      110.869   -751.26533   -625.54132   -771.14939    20.216346    58.918175    156.61671      46.7237      46.7237      46.7237           90           90           90     102002.7   -715.98535 
  552000       551500   -8930.1429    913.62313   -9843.7661    4278.3744    -14122.14     110.9709   -756.89498   -1066.2526   -1088.8239   -123.60233     54.13034    72.965925      46.7237      46.7237      46.7237           90           90           90     102002.7   -970.65715 
  553000       552500   -8916.7407    928.50986   -9845.2506    4261.0586   -14106.309    112.77908   -578.53224   -1290.1559   -905.90454    52.564678    161.51575    267.65932      46.7237      46.7237      46.7237           90           90           90     102002.7   -924.86421 
  554000       553500   -8940.1184    914.51427   -9854.6327    4265.1167   -14119.749    111.07914   -1089.8897   -841.02491   -805.96061   -119.38606   -114.99033    39.935424      46.7237      46.7237      46.7237           90           90           90     102002.7   -912.29175 
  555000       554500   -8960.9456    904.22648   -9865.1721    4264.1312   -14129.303    109.82956   -1004.6632   -1187.4183   -1039.4228      177.603    36.549044    18.226174      46.7237      46.7237      46.7237           90           90           90     102002.7   -1077.1681 
[...]
  936000       935500   -8933.6292    918.09826   -9851.7275    4277.6709   -14129.398    111.51446   -874.84384   -679.88674   -903.71995    143.59417   -142.50863     28.42203      46.7237      46.7237      46.7237           90           90           90     102002.7   -819.48351 
  937000       936500   -8979.2636    897.07362   -9876.3372    4262.0345   -14138.372    108.96076   -875.76218     -1297.77   -832.88223   -17.957281   -182.95265   -87.381828      46.7237      46.7237      46.7237           90           90           90     102002.7   -1002.1381 
  938000       937500   -8951.4663    886.95953   -9838.4259    4276.2653   -14114.691    107.73227    -791.8326   -613.91656   -583.12434    421.86906    151.49332   -1.9942341      46.7237      46.7237      46.7237           90           90           90     102002.7   -662.95783 
  939000       938500   -8972.2172    885.25773    -9857.475    4277.5554    -14135.03    107.52557   -844.15497   -630.80554    -678.3216    8.5684733    4.0728231   -37.775583      46.7237      46.7237      46.7237           90           90           90     102002.7    -717.7607 
  940000       939500   -8972.9178    884.17392   -9857.0917    4260.7964   -14117.888    107.39393   -797.57431   -828.11952   -842.29494   -31.492022      142.806   -156.07788      46.7237      46.7237      46.7237           90           90           90     102002.7   -822.66292 
  941000       940500   -8965.1472     904.6591   -9869.8063    4256.7369   -14126.543    109.88211   -646.57281   -402.03585   -540.71785   -87.418051   -10.276057   -127.31405      46.7237      46.7237      46.7237           90           90           90     102002.7    -529.7755 
  942000       941500   -8927.4902    921.71453   -9849.2047    4298.8885   -14148.093     111.9537    -1191.873   -1352.0028   -1032.7741     22.50202    26.175548    348.07801      46.7237      46.7237      46.7237           90           90           90     102002.7   -1192.2167 
  943000       942500   -8988.9011    876.78839   -9865.6895    4268.8783   -14134.568    106.49686   -841.38933   -820.80535   -780.88649   -14.525699   -2.6395086    104.30299      46.7237      46.7237      46.7237           90           90           90     102002.7   -814.36039 
  944000       943500   -8929.5011    907.94231   -9837.4434    4266.9756   -14104.419    110.28089   -846.51482   -692.93103   -781.57921   -157.28637    9.3269171   -188.35629      46.7237      46.7237      46.7237           90           90           90     102002.7   -773.67502 
  945000       944500   -8982.2075    886.18686   -9868.3943    4253.9104   -14122.305    107.63842   -1111.9647   -958.95122   -765.22713   -2.8206869     61.79355    156.46721      46.7237      46.7237      46.7237           90           90           90     102002.7   -945.38102 
  946000       945500   -8949.2687    912.12166   -9861.3903    4259.7272   -14121.118    110.78853   -729.49264   -1064.4933    -796.1531   -305.32974    348.10824   -96.746922      46.7237      46.7237      46.7237           90           90           90     102002.7   -863.37968 
  947000       946500   -8922.2013    925.19665    -9847.398    4291.3103   -14138.708    112.37665   -773.47538   -1175.2778   -1566.6005    73.351617    133.08612   -132.15579      46.7237      46.7237      46.7237           90           90           90     102002.7   -1171.7846 
  948000       947500   -8950.9569    903.05843   -9854.0153    4261.7755   -14115.791    109.68769   -1253.3393   -1130.4402   -692.16598    19.946833   -208.97177   -29.063494      46.7237      46.7237      46.7237           90           90           90     102002.7   -1025.3152 
  949000       948500   -8906.9216    918.38353   -9825.3051     4299.141   -14124.446    111.54911    -1167.226   -1016.3497   -1152.3087   -59.341701   -212.24677    33.177164      46.7237      46.7237      46.7237           90           90           90     102002.7   -1111.9614 
  950000       949500   -8963.6152    906.40227   -9870.0175    4263.7698   -14133.787    110.09384   -1103.6234   -926.41049   -1140.8541    -194.2242    30.083849   -262.00698      46.7237      46.7237      46.7237           90           90           90     102002.7   -1056.9627 
  951000       950500     -8926.36    903.97835   -9830.3383    4283.3289   -14113.667    109.79942   -1134.1429   -930.34792   -1109.8453    184.89518    234.67646   -58.946889      46.7237      46.7237      46.7237           90           90           90     102002.7    -1058.112 
  952000       951500   -8916.4481    914.51618   -9830.9643    4270.0367   -14101.001    111.07937   -995.26196   -1088.8368   -1232.6362   -130.34927   -216.68739   -58.694804      46.7237      46.7237      46.7237           90           90           90     102002.7   -1105.5783 
  953000       952500   -8926.8329    910.35622   -9837.1891     4256.657   -14093.846    110.57409   -1062.0149   -1443.6953   -1266.7689   -158.19912   -124.54344    186.78927      46.7237      46.7237      46.7237           90           90           90     102002.7    -1257.493 
  954000       953500     -8953.36    909.23089   -9862.5909     4287.815   -14150.406    110.43741   -1049.8867    -1093.629   -1232.5591    29.341621    31.377243   -61.802494      46.7237      46.7237      46.7237           90           90           90     102002.7   -1125.3583 
  955000       954500    -8975.271    885.41313   -9860.6841    4269.9799   -14130.664    107.54444   -1095.6248   -1426.7741   -978.52732    117.72576    88.306555   -158.16057      46.7237      46.7237      46.7237           90           90           90     102002.7   -1166.9754 
  956000       955500   -8949.3723    910.38102   -9859.7534    4249.9568    -14109.71    110.57711   -766.36061   -1218.9594   -844.58399    113.53533   -249.28401    83.425338      46.7237      46.7237      46.7237           90           90           90     102002.7   -943.30134 
  957000       956500   -8939.5757    912.92217   -9852.4979    4261.1418    -14113.64    110.88576   -825.50892    -1492.225   -962.76929    40.293541    165.55565   -148.54789      46.7237      46.7237      46.7237           90           90           90     102002.7   -1093.5011 
  958000       957500   -8942.9497    907.50746   -9850.4572     4280.653    -14131.11    110.22808   -1032.6418   -1618.7092   -1124.5364    160.78375     112.2463    264.34781      46.7237      46.7237      46.7237           90           90           90     102002.7   -1258.6291 
  959000       958500   -8982.4318    887.55111   -9869.9829    4262.1857   -14132.169    107.80413   -679.87381   -884.80227   -859.31561   -51.786465    172.69119   -216.47288      46.7237      46.7237      46.7237           90           90           90     102002.7   -807.99723 
  960000       959500   -8939.9216    915.32441   -9855.2461    4275.0128   -14130.259    111.17754   -827.66665    -867.5898   -849.11866    -80.94473     49.03356    -298.8735      46.7237      46.7237      46.7237           90           90           90     102002.7   -848.12504 
  961000       960500   -8934.3816      903.228   -9837.6096    4275.0767   -14112.686    109.70828   -1096.3982   -1031.7767    -701.4842    172.08595   -12.665424    207.17347      46.7237      46.7237      46.7237           90           90           90     102002.7   -943.21968 
  962000       961500   -8940.1837    915.10406   -9855.2878    4246.0858   -14101.374    111.15078   -589.12561   -1375.8439   -899.01215   -191.30968    -234.4004    133.56175      46.7237      46.7237      46.7237           90           90           90     102002.7   -954.66056 
  963000       962500   -8936.1169    919.77369   -9855.8906    4262.4686   -14118.359    111.71796    -654.5949   -1348.4361   -881.09686    181.00608    33.496631    333.20487      46.7237      46.7237      46.7237           90           90           90     102002.7   -961.37594 
  964000       963500   -8960.4493    915.90501   -9876.3543     4257.219   -14133.573    111.24806    -979.6546   -1155.1525   -792.03588    36.971158   -183.41976   -176.51966      46.7237      46.7237      46.7237           90           90           90     102002.7   -975.61434 
  965000       964500   -8950.3606    886.03988   -9836.4005    4282.5992       -14119    107.62057   -1145.1667   -805.29046    -837.5354   -8.3790862   -56.625318    94.956782      46.7237      46.7237      46.7237           90           90           90     102002.7   -929.33084 
  966000       965500   -8936.7872    904.61807   -9841.4053    4283.4975   -14124.903    109.87712   -1058.0685   -999.30717   -758.51303    218.47621   -26.457428   -355.78496      46.7237      46.7237      46.7237           90           90           90     102002.7   -938.62958 
  967000       966500   -8973.3844    896.63009   -9870.0145    4230.0537   -14100.068    108.90688   -585.35271   -992.78894   -545.06027   -36.753707   -103.34337   -315.46125      46.7237      46.7237      46.7237           90           90           90     102002.7   -707.73397 
  968000       967500   -8916.5299    927.58354   -9844.1135    4277.9883   -14122.102    112.66657   -1092.0077    -816.9396   -761.80266   -84.683121   -89.029553   -154.34507      46.7237      46.7237      46.7237           90           90           90     102002.7      -890.25 
  969000       968500    -8911.835    924.32406    -9836.159    4268.9751   -14105.134    112.27066   -1139.7847   -1155.6762   -786.17515    28.254583   -94.528733    161.54221      46.7237      46.7237      46.7237           90           90           90     102002.7    -1027.212 
  970000       969500   -8951.5844    890.36897   -9841.9534    4264.1743   -14106.128    108.14639   -809.89669   -729.35676   -371.96476   -155.62149    231.96223    328.98625      46.7237      46.7237      46.7237           90           90           90     102002.7   -637.07274 
  971000       970500   -8912.0189    917.14421   -9829.1632    4270.3316   -14099.495    111.39858   -1005.8741   -846.67409    -653.3373    253.88873     62.55716    224.26809      46.7237      46.7237      46.7237           90           90           90     102002.7   -835.29516 
  972000       971500   -8937.5479    904.35775   -9841.9056    4265.4049   -14107.311    109.84551   -755.24271   -731.16761   -876.69526    147.27284    62.822091    111.61528      46.7237      46.7237      46.7237           90           90           90     102002.7   -787.70186 
  973000       972500   -8937.4015    907.63408   -9845.0356    4270.0467   -14115.082    110.24346   -1021.8692   -629.06989   -923.83202    104.63223    142.14297   -2.2216815      46.7237      46.7237      46.7237           90           90           90     102002.7   -858.25705 
  974000       973500    -8949.439    913.50554   -9862.9446    4273.1002   -14136.045    110.95662   -968.29475    -767.3834    -631.1641    92.339933   -233.82114   -88.244937      46.7237      46.7237      46.7237           90           90           90     102002.7   -788.94742 
  975000       974500   -8941.7035    908.67109   -9850.3746    4263.2794   -14113.654    110.36941   -674.04131   -1113.6481    -800.0456   -10.014899   -216.38925    208.09451      46.7237      46.7237      46.7237           90           90           90     102002.7   -862.57833 
  976000       975500   -8941.0121    893.28955   -9834.3017     4277.225   -14111.527    108.50113   -844.95209   -636.51275   -1054.0496    268.99071   -29.233437   -72.619778      46.7237      46.7237      46.7237           90           90           90     102002.7   -845.17147 
  977000       976500   -8925.7511    894.28588   -9820.0369    4264.5849   -14084.622    108.62215   -867.46485   -915.37134   -717.41253   -118.83916     176.3565   -204.17969      46.7237      46.7237      46.7237           90           90           90     102002.7   -833.41624 
  978000       977500   -8944.9725    898.15026   -9843.1228    4280.1341   -14123.257    109.09153   -629.01845   -899.25142   -889.59155    -31.74852    -236.9924    13.523903      46.7237      46.7237      46.7237           90           90           90     102002.7   -805.95381 
  979000       978500   -8954.5926    895.36478   -9849.9574    4273.6213   -14123.579     108.7532   -833.22584   -1138.6444   -1360.3978    5.1069597    188.28256     -49.8162      46.7237      46.7237      46.7237           90           90           90     102002.7    -1110.756 
  980000       979500   -8933.0437    905.25801   -9838.3017    4272.0798   -14110.381    109.95485   -748.83981    -719.3859    -1077.774    301.64744    -261.5705    4.2227388      46.7237      46.7237      46.7237           90           90           90     102002.7   -848.66656 
  981000       980500   -8953.1309    904.96844   -9858.0993    4265.9425   -14124.042    109.91968   -758.56748    -696.3249   -749.15142    29.108016   -49.535505   -63.528243      46.7237      46.7237      46.7237           90           90           90     102002.7   -734.68127 
  982000       981500   -8922.6606    907.93848   -9830.5991    4278.9586   -14109.558    110.28043    -1636.989   -996.14181    -845.8542    14.365479    148.17581   -22.364096      46.7237      46.7237      46.7237           90           90           90     102002.7   -1159.6617 
  983000       982500   -8953.3919    914.14488   -9867.5368    4256.9045   -14124.441    111.03427   -1517.7404   -1243.8588    -866.4637    248.93572    22.729216   -16.174093      46.7237      46.7237      46.7237           90           90           90     102002.7   -1209.3543 
  984000       983500    -8958.292    890.10225   -9848.3942     4268.946    -14117.34      108.114   -977.63534   -1406.5095    -1108.694   -160.77694    92.132857    37.286401      46.7237      46.7237      46.7237           90           90           90     102002.7   -1164.2796 
  985000       984500   -8970.0119    911.78522   -9881.7971       4241.8   -14123.597    110.74766   -1180.0963   -2072.3326    -924.4127   -43.550487   -135.55961    -50.67878      46.7237      46.7237      46.7237           90           90           90     102002.7   -1392.2805 
  986000       985500   -8923.9935    917.53302   -9841.5265    4275.9131    -14117.44    111.44581   -684.31897   -1132.4298    -1589.034   -18.972831    7.2687621    37.190499      46.7237      46.7237      46.7237           90           90           90     102002.7   -1135.2609 
  987000       986500   -8945.6033    897.47263   -9843.0759    4278.5307   -14121.607    109.00922   -713.60549   -1392.3113   -757.12594   -64.132414   -232.86023   -8.9795699      46.7237      46.7237      46.7237           90           90           90     102002.7   -954.34758 
  988000       987500   -8924.2782    912.29861   -9836.5768    4268.6429    -14105.22    110.81002   -1452.0502   -1417.4873   -812.46528    90.721237    133.65682   -210.04205      46.7237      46.7237      46.7237           90           90           90     102002.7   -1227.3343 
  989000       988500   -8930.5554     914.1868   -9844.7422    4273.6462   -14118.388    111.03937   -1264.8546   -497.96945   -898.62276    144.78986    1.3649474   -73.788127      46.7237      46.7237      46.7237           90           90           90     102002.7   -887.14893 
  990000       989500   -8943.1832    913.34988   -9856.5331    4272.7681   -14129.301    110.93771   -880.90285   -982.19366   -842.24254    57.905277    37.010155    59.509353      46.7237      46.7237      46.7237           90           90           90     102002.7   -901.77968 
  991000       990500   -8976.1852    870.50246   -9846.6876    4246.2738   -14092.961    105.73336   -1485.5627   -1251.4347   -1128.2067   -135.27365    236.75286    113.99346      46.7237      46.7237      46.7237           90           90           90     102002.7   -1288.4014 
  992000       991500   -8940.0328    904.37252   -9844.4053    4285.6157   -14130.021     109.8473   -1266.5146   -926.11827   -1174.6679    -34.13242   -233.12348    88.937792      46.7237      46.7237      46.7237           90           90           90     102002.7   -1122.4336 
  993000       992500   -8937.6329    926.87411   -9864.5071    4272.4398   -14136.947     112.5804   -644.64033   -647.94844   -778.61366    170.58914    -93.02055   -3.9967019      46.7237      46.7237      46.7237           90           90           90     102002.7   -690.40081 
  994000       993500   -8959.7849    891.88632   -9851.6712    4260.6107   -14112.282    108.33069    -944.3064    -1130.955   -625.23757    356.34873    103.87844    29.742638      46.7237      46.7237      46.7237           90           90           90     102002.7   -900.16632 
  995000       994500   -8955.0299    887.63953   -9842.6695    4271.5909    -14114.26    107.81487     -1228.56    -737.8126   -469.41104   -130.78132    173.77954    120.77933      46.7237      46.7237      46.7237           90           90           90     102002.7   -811.92787 
  996000       995500   -8912.6004    917.10675   -9829.7072    4282.4265   -14112.134    111.39403   -1015.1957   -1112.4864   -1099.1552   -231.40933    229.24742    106.61378      46.7237      46.7237      46.7237           90           90           90     102002.7   -1075.6124 
  997000       996500   -8956.5129    898.30711     -9854.82    4274.0106   -14128.831    109.11058   -1049.6062   -1246.2752   -1197.7703    1.3787451    30.225985   -73.559817      46.7237      46.7237      46.7237           90           90           90     102002.7   -1164.5506 
  998000       997500   -8950.1865    906.01057   -9856.1971    4278.7568   -14134.954    110.04626   -753.06717   -1599.2319   -741.62898    18.681727    91.416997    -8.203217      46.7237      46.7237      46.7237           90           90           90     102002.7   -1031.3093 
  999000       998500   -8939.8476    929.91382   -9869.7614    4238.5887    -14108.35    112.94961     -986.906    -1118.377   -914.09536   -95.802792   -88.105396   -153.76123      46.7237      46.7237      46.7237           90           90           90     102002.7   -1006.4595 
 1000000       999500    -8975.215    878.71116   -9853.9261    4274.0193   -14127.945    106.73041   -783.23351   -1145.9367   -891.14334    88.281189   -12.441208    22.887289      46.7237      46.7237      46.7237           90           90           90     102002.7   -940.10452 
 1000500      1000000   -8964.6073    900.38892   -9864.9962    4256.1433   -14121.139    109.36344   -1526.2223   -775.16591   -1105.1817   -103.39074    -6.188733    41.546886      46.7237      46.7237      46.7237           90           90           90     102002.7   -1135.5233 
Loop time of 933.404 on 24 procs for 500000 steps with 2763 atoms

Performance: 46.282 ns/day, 0.519 hours/ns, 535.674 timesteps/s
98.2% CPU use with 24 MPI tasks x no OpenMP threads

MPI task timing breakdown:
Section |  min time  |  avg time  |  max time  |%varavg| %total
---------------------------------------------------------------
Pair    | 309.07     | 478.41     | 657.05     | 449.3 | 51.25
Bond    | 54.941     | 82.626     | 109.72     | 169.3 |  8.85
Neigh   | 6.5191     | 6.5265     | 6.533      |   0.1 |  0.70
Comm    | 141        | 342.62     | 533.17     | 600.7 | 36.71
Output  | 0.5161     | 0.55315    | 0.55496    |   1.0 |  0.06
Modify  | 12.674     | 13.4       | 13.998     |  11.4 |  1.44
Other   |            | 9.272      |            |       |  0.99

Nlocal:    115.125 ave 144 max 75 min
Histogram: 2 0 2 0 4 3 4 5 3 1
Nghost:    3075.42 ave 3111 max 3048 min
Histogram: 4 3 3 2 1 1 5 2 1 2
Neighs:    7641.54 ave 12661 max 1907 min
Histogram: 1 3 2 1 3 4 2 4 3 1

Total # of neighbors = 183397
Ave neighs/atom = 66.376
Ave special neighs/atom = 4.16938
Neighbor list builds = 4723
Dangerous builds = 0
Total wall time: 0:29:12
