LAMMPS (30 Mar 2018)
Reading data file ...
  orthogonal box = (0 0 0) to (46.7237 46.7237 46.7237)
  2 by 2 by 4 MPI processor grid
  reading atoms ...
  3180 atoms
  scanning bonds ...
  5 = max bonds/atom
  scanning angles ...
  10 = max angles/atom
  scanning dihedrals ...
  32 = max dihedrals/atom
  scanning impropers ...
  3 = max impropers/atom
  reading bonds ...
  2064 bonds
  reading angles ...
  3696 angles
  reading dihedrals ...
  6240 dihedrals
  reading impropers ...
  1008 impropers
Finding 1-2 1-3 1-4 neighbors ...
  special bond factors lj:   0          0          0         
  special bond factors coul: 0          0          0         
  5 = max # of 1-2 neighbors
  8 = max # of 1-3 neighbors
  20 = max # of 1-4 neighbors
  19 = max # of special neighbors
Finding 1-2 1-3 1-4 neighbors ...
  special bond factors lj:   0          0          1         
  special bond factors coul: 1          1          1         
  5 = max # of 1-2 neighbors
  8 = max # of 1-3 neighbors
  19 = max # of special neighbors
WARNING: Using 'neigh_modify every 1 delay 0 check yes' setting during minimization (../min.cpp:168)
Neighbor list info ...
  update every 1 steps, delay 0 steps, check yes
  max neighbors/atom: 2000, page size: 100000
  master list distance cutoff = 16
  ghost atom cutoff = 16
  binsize = 8, bins = 6 6 6
  3 neighbor lists, perpetual/occasional/extra = 3 0 0
  (1) pair buck6d/coul/gauss/dsf, perpetual, skip from (3)
      attributes: half, newton on
      pair build: skip
      stencil: none
      bin: none
  (2) pair lj/cut, perpetual, skip from (3)
      attributes: half, newton on
      pair build: skip
      stencil: none
      bin: none
  (3) neighbor class addition, perpetual
      attributes: half, newton on
      pair build: half/bin/newton
      stencil: half/bin/3d/newton
      bin: standard
Setting up cg style minimization ...
  Unit style    : real
  Current step  : 0
WARNING: Inconsistent image flags (../domain.cpp:786)
Per MPI rank memory allocation (min/avg/max) = 23.01 | 23.47 | 23.91 Mbytes
Step Temp E_pair E_mol TotEng Press 
       0            0   -15317.088    6482.8914   -8834.1963    6436.9669 
     500            0   -15808.899    3741.1025   -12067.797   -1911.8885 
Loop time of 4.32299 on 16 procs for 500 steps with 3180 atoms

99.9% CPU use with 16 MPI tasks x no OpenMP threads

Minimization stats:
  Stopping criterion = max force evaluations
  Energy initial, next-to-last, final = 
        -8834.19626476     -12067.7045173     -12067.7969535
  Force two-norm initial, final = 2575.8 13.7482
  Force max component initial, final = 152.164 1.69959
  Final line search alpha, max atom move = 0.00635884 0.0108074
  Iterations, force evaluations = 500 1000

MPI task timing breakdown:
Section |  min time  |  avg time  |  max time  |%varavg| %total
---------------------------------------------------------------
Pair    | 2.3348     | 2.9527     | 3.4118     |  16.4 | 68.30
Bond    | 0.25177    | 0.36072    | 0.45839    |   8.9 |  8.34
Neigh   | 0.033608   | 0.03374    | 0.033804   |   0.0 |  0.78
Comm    | 0.46485    | 0.93163    | 1.6015     |  31.4 | 21.55
Output  | 0          | 0          | 0          |   0.0 |  0.00
Modify  | 0          | 0          | 0          |   0.0 |  0.00
Other   |            | 0.04417    |            |       |  1.02

Nlocal:    198.75 ave 233 max 162 min
Histogram: 1 0 2 3 1 4 1 1 2 1
Nghost:    3973.44 ave 4000 max 3924 min
Histogram: 1 1 2 0 1 0 1 2 5 3
Neighs:    11472.7 ave 15162 max 5598 min
Histogram: 1 0 0 1 3 0 5 2 3 1

Total # of neighbors = 183563
Ave neighs/atom = 57.7242
Ave special neighs/atom = 3.62264
Neighbor list builds = 10
Dangerous builds = 0
Neighbor list info ...
  update every 1 steps, delay 10 steps, check yes
  max neighbors/atom: 2000, page size: 100000
  master list distance cutoff = 16
  ghost atom cutoff = 16
  binsize = 8, bins = 6 6 6
  3 neighbor lists, perpetual/occasional/extra = 3 0 0
  (1) pair buck6d/coul/gauss/dsf, perpetual, skip from (3)
      attributes: half, newton on
      pair build: skip
      stencil: none
      bin: none
  (2) pair lj/cut, perpetual, skip from (3)
      attributes: half, newton on
      pair build: skip
      stencil: none
      bin: none
  (3) neighbor class addition, perpetual
      attributes: half, newton on
      pair build: half/bin/newton
      stencil: half/bin/3d/newton
      bin: standard
Setting up Verlet run ...
  Unit style    : real
  Current step  : 500
  Time step     : 1
WARNING: Inconsistent image flags (../domain.cpp:786)
Per MPI rank memory allocation (min/avg/max) = 22.66 | 22.72 | 22.79 Mbytes
Step Temp PotEng TotEng Press Volume Lx Ly Lz 
     500          130   -12067.797   -10835.918   -1359.8246     102002.7      46.7237      46.7237      46.7237 
    1000    111.20721   -11062.157   -10008.358    48.984027     102002.7      46.7237      46.7237      46.7237 
    2000    132.42253   -10872.082   -9617.2472   -87.725803     102002.7      46.7237      46.7237      46.7237 
    3000     134.2594   -10938.699   -9666.4577    577.62642     102002.7      46.7237      46.7237      46.7237 
    4000      130.153   -10883.339   -9650.0095    400.62534     102002.7      46.7237      46.7237      46.7237 
    5000    128.38666    -10905.83    -9689.239    30.225642     102002.7      46.7237      46.7237      46.7237 
    6000    129.77982   -10871.393   -9641.6003    441.58648     102002.7      46.7237      46.7237      46.7237 
    7000    132.65985   -10907.902   -9650.8181     232.3452     102002.7      46.7237      46.7237      46.7237 
    8000    130.51018   -10912.271   -9675.5571    88.688968     102002.7      46.7237      46.7237      46.7237 
    9000    130.66058   -10914.353   -9676.2142   -25.144232     102002.7      46.7237      46.7237      46.7237 
   10000    126.49867   -10888.463   -9689.7625   -120.90118     102002.7      46.7237      46.7237      46.7237 
   11000    130.70971   -10895.556   -9656.9513      69.3878     102002.7      46.7237      46.7237      46.7237 
   12000    129.24319   -10893.081   -9668.3729    265.65417     102002.7      46.7237      46.7237      46.7237 
   13000    131.82992   -10904.105   -9654.8851    99.750029     102002.7      46.7237      46.7237      46.7237 
   14000    132.29484       -10869   -9615.3747    550.24943     102002.7      46.7237      46.7237      46.7237 
   15000    130.73307   -10891.673   -9652.8471    226.13993     102002.7      46.7237      46.7237      46.7237 
   16000    130.66377   -10891.149   -9652.9798    63.136266     102002.7      46.7237      46.7237      46.7237 
   17000    129.47286   -10868.834   -9641.9497    426.27084     102002.7      46.7237      46.7237      46.7237 
   18000    130.11424   -10901.736   -9668.7743    182.99895     102002.7      46.7237      46.7237      46.7237 
   19000     127.0126   -10881.605   -9678.0343    168.02663     102002.7      46.7237      46.7237      46.7237 
   20000    132.02139   -10908.719   -9657.6851    162.73675     102002.7      46.7237      46.7237      46.7237 
   21000     130.5943   -10936.545   -9699.0339    2.8176493     102002.7      46.7237      46.7237      46.7237 
   22000    129.17218   -10893.859   -9669.8236    233.92067     102002.7      46.7237      46.7237      46.7237 
   23000    130.71819     -10889.1   -9650.4146    237.52593     102002.7      46.7237      46.7237      46.7237 
   24000    129.84439   -10922.444    -9692.039    82.066014     102002.7      46.7237      46.7237      46.7237 
   25000    132.38125   -10907.181   -9652.7366    237.32423     102002.7      46.7237      46.7237      46.7237 
   26000    129.09218   -10903.713    -9680.436    147.04968     102002.7      46.7237      46.7237      46.7237 
   27000    128.47536   -10909.325   -9691.8932    56.497391     102002.7      46.7237      46.7237      46.7237 
   28000    131.16498   -10893.396   -9650.4777   -62.771644     102002.7      46.7237      46.7237      46.7237 
   29000    129.95493   -10885.273   -9653.8203    107.52713     102002.7      46.7237      46.7237      46.7237 
   30000    130.32277   -10902.015   -9667.0769     370.3552     102002.7      46.7237      46.7237      46.7237 
   31000    125.44898   -10868.769   -9680.0147    218.00617     102002.7      46.7237      46.7237      46.7237 
   32000    131.19359   -10881.887   -9638.6974    420.66088     102002.7      46.7237      46.7237      46.7237 
   33000    131.26506   -10915.437   -9671.5703    124.46126     102002.7      46.7237      46.7237      46.7237 
   34000    129.44145   -10882.111    -9655.524    58.718972     102002.7      46.7237      46.7237      46.7237 
   35000    128.39975   -10917.222   -9700.5066    -22.27114     102002.7      46.7237      46.7237      46.7237 
   36000    129.84716   -10913.789   -9683.3579   -67.650398     102002.7      46.7237      46.7237      46.7237 
   37000    134.35611   -10882.943   -9609.7847    253.03814     102002.7      46.7237      46.7237      46.7237 
   38000    126.71253   -10894.187   -9693.4595    249.56955     102002.7      46.7237      46.7237      46.7237 
   39000    131.97303   -10925.621   -9675.0454    120.26544     102002.7      46.7237      46.7237      46.7237 
   40000    130.53326    -10913.02   -9676.0872   -35.090651     102002.7      46.7237      46.7237      46.7237 
   41000    129.05329   -10885.056   -9662.1472    21.320921     102002.7      46.7237      46.7237      46.7237 
   42000    127.76175   -10907.873   -9697.2036    72.531209     102002.7      46.7237      46.7237      46.7237 
   43000    130.32332   -10903.145   -9668.2017   -145.83002     102002.7      46.7237      46.7237      46.7237 
   44000    131.15465   -10884.818   -9641.9972    257.23821     102002.7      46.7237      46.7237      46.7237 
   45000     128.6248   -10935.659   -9716.8109     181.4456     102002.7      46.7237      46.7237      46.7237 
   46000     130.7128   -10898.433   -9659.7996    146.80315     102002.7      46.7237      46.7237      46.7237 
   47000    132.47774   -10882.738   -9627.3791    408.86677     102002.7      46.7237      46.7237      46.7237 
   48000    130.21854   -10898.572   -9664.6221   -165.96106     102002.7      46.7237      46.7237      46.7237 
   49000    129.63642   -10885.051   -9656.6173    282.21717     102002.7      46.7237      46.7237      46.7237 
   50000    131.84175   -10892.594   -9643.2618    495.39661     102002.7      46.7237      46.7237      46.7237 
   51000    125.75252   -10872.093   -9680.4624   -25.669558     102002.7      46.7237      46.7237      46.7237 
   52000    129.37921   -10895.463   -9669.4667    186.46416     102002.7      46.7237      46.7237      46.7237 
   53000    129.07653   -10913.165   -9690.0369    203.74548     102002.7      46.7237      46.7237      46.7237 
   54000    127.56948   -10910.015   -9701.1672    37.511001     102002.7      46.7237      46.7237      46.7237 
   55000    127.69473   -10903.041   -9693.0061    222.08814     102002.7      46.7237      46.7237      46.7237 
   56000    134.19939    -10846.76   -9575.0873    254.46885     102002.7      46.7237      46.7237      46.7237 
   57000    128.71959    -10912.19   -9692.4438    89.220048     102002.7      46.7237      46.7237      46.7237 
   58000    131.44693   -10923.496    -9677.906    40.947466     102002.7      46.7237      46.7237      46.7237 
   59000    130.79812   -10925.951   -9686.5087    127.79086     102002.7      46.7237      46.7237      46.7237 
   60000    129.13804   -10904.526   -9680.8148   -264.20173     102002.7      46.7237      46.7237      46.7237 
   61000    129.11797   -10875.449   -9651.9278    333.72919     102002.7      46.7237      46.7237      46.7237 
   62000    133.60011    -10910.93   -9644.9358   -219.25274     102002.7      46.7237      46.7237      46.7237 
   63000    132.00322   -10914.475   -9663.6128   -71.617535     102002.7      46.7237      46.7237      46.7237 
   64000    129.47802   -10899.289   -9672.3562    381.37352     102002.7      46.7237      46.7237      46.7237 
   65000    126.55898   -10887.498   -9688.2253    129.14025     102002.7      46.7237      46.7237      46.7237 
   66000    132.52235   -10903.123    -9647.342   -73.705292     102002.7      46.7237      46.7237      46.7237 
   67000    132.30384    -10921.17    -9667.459    176.11368     102002.7      46.7237      46.7237      46.7237 
   68000    130.09018   -10906.864   -9674.1297   -57.679833     102002.7      46.7237      46.7237      46.7237 
   69000    131.22908   -10889.807   -9646.2812    453.24161     102002.7      46.7237      46.7237      46.7237 
   70000    129.69129   -10897.982   -9669.0278    173.67511     102002.7      46.7237      46.7237      46.7237 
   71000    128.45814   -10917.262   -9699.9935    6.1630013     102002.7      46.7237      46.7237      46.7237 
   72000    130.25205    -10887.82   -9653.5518    38.479381     102002.7      46.7237      46.7237      46.7237 
   73000    127.54824   -10919.133   -9710.4863    75.083026     102002.7      46.7237      46.7237      46.7237 
   74000    131.06549   -10900.725   -9658.7493    163.52543     102002.7      46.7237      46.7237      46.7237 
   75000    130.08415   -10911.022   -9678.3455    324.65222     102002.7      46.7237      46.7237      46.7237 
   76000    128.18427   -10893.375   -9678.7019   -127.54068     102002.7      46.7237      46.7237      46.7237 
   77000    129.55047   -10921.482   -9693.8627    218.33343     102002.7      46.7237      46.7237      46.7237 
   78000    127.36207   -10892.934   -9686.0515    114.99175     102002.7      46.7237      46.7237      46.7237 
   79000    132.18586   -10905.491   -9652.8983   -137.22171     102002.7      46.7237      46.7237      46.7237 
   80000    132.54387   -10879.285   -9623.2996    35.869399     102002.7      46.7237      46.7237      46.7237 
   81000    129.32067   -10907.607   -9682.1652    157.83633     102002.7      46.7237      46.7237      46.7237 
   82000    128.93847   -10894.079   -9672.2592   -216.30631     102002.7      46.7237      46.7237      46.7237 
   83000    129.38107   -10870.009   -9643.9946    197.10503     102002.7      46.7237      46.7237      46.7237 
   84000    132.56403    -10888.89   -9632.7138    349.06176     102002.7      46.7237      46.7237      46.7237 
   85000    127.35298   -10886.616   -9679.8201     445.8371     102002.7      46.7237      46.7237      46.7237 
   86000    128.65388    -10912.85   -9693.7262    266.65567     102002.7      46.7237      46.7237      46.7237 
   87000    129.19907   -10875.679   -9651.3894   -343.81696     102002.7      46.7237      46.7237      46.7237 
   88000    129.74972   -10882.186   -9652.6784    208.86583     102002.7      46.7237      46.7237      46.7237 
   89000    131.95295     -10875.4   -9625.0147   -303.73353     102002.7      46.7237      46.7237      46.7237 
   90000    131.29427   -10873.304   -9629.1596   -117.01151     102002.7      46.7237      46.7237      46.7237 
   91000    135.25802   -10938.384   -9656.6793    -39.23582     102002.7      46.7237      46.7237      46.7237 
   92000    130.52294   -10885.774   -9648.9388    23.538286     102002.7      46.7237      46.7237      46.7237 
   93000    130.66352   -10906.414   -9668.2472    382.22378     102002.7      46.7237      46.7237      46.7237 
   94000    130.09103   -10886.164   -9653.4216    251.76679     102002.7      46.7237      46.7237      46.7237 
   95000    129.56727   -10876.691   -9648.9124    213.15744     102002.7      46.7237      46.7237      46.7237 
   96000    129.78283   -10941.348   -9711.5265    243.81025     102002.7      46.7237      46.7237      46.7237 
   97000    130.40931   -10889.288   -9653.5299   -88.803769     102002.7      46.7237      46.7237      46.7237 
   98000    128.27475   -10916.173   -9700.6421   -18.395268     102002.7      46.7237      46.7237      46.7237 
   99000    127.29393   -10891.794   -9685.5574    90.322066     102002.7      46.7237      46.7237      46.7237 
  100000    133.56824   -10893.619   -9627.9267   -169.18077     102002.7      46.7237      46.7237      46.7237 
  101000    130.53019   -10898.034   -9661.1302    174.88832     102002.7      46.7237      46.7237      46.7237 
  102000    129.15139   -10900.915   -9677.0767    110.13678     102002.7      46.7237      46.7237      46.7237 
  103000    127.61364   -10896.112   -9686.8453   -102.06906     102002.7      46.7237      46.7237      46.7237 
  104000     130.4574   -10880.647    -9644.433    275.01086     102002.7      46.7237      46.7237      46.7237 
  105000    131.79319   -10914.247   -9665.3753   -79.798032     102002.7      46.7237      46.7237      46.7237 
  106000    131.17763   -10894.866   -9651.8271   -50.410473     102002.7      46.7237      46.7237      46.7237 
  107000    129.22798   -10932.917   -9708.3536   -302.03007     102002.7      46.7237      46.7237      46.7237 
  108000    130.20079   -10904.561   -9670.7791    -111.6223     102002.7      46.7237      46.7237      46.7237 
  109000    128.72947   -10926.228   -9706.3878    75.721632     102002.7      46.7237      46.7237      46.7237 
  110000    125.84158   -10895.561   -9703.0868   -306.29892     102002.7      46.7237      46.7237      46.7237 
  111000    134.05351   -10949.094   -9678.8032   -354.60738     102002.7      46.7237      46.7237      46.7237 
  112000    130.00168   -10883.919   -9652.0238    231.88413     102002.7      46.7237      46.7237      46.7237 
  113000    128.55605   -10906.261   -9688.0646    -163.8253     102002.7      46.7237      46.7237      46.7237 
  114000    132.54287   -10898.065   -9642.0897    237.85952     102002.7      46.7237      46.7237      46.7237 
  115000    128.78929   -10919.555    -9699.148    101.09709     102002.7      46.7237      46.7237      46.7237 
  116000    129.60565   -10909.818   -9681.6758   -277.65102     102002.7      46.7237      46.7237      46.7237 
  117000    131.08033   -10885.591   -9643.4741    261.04224     102002.7      46.7237      46.7237      46.7237 
  118000    131.02623   -10896.372    -9654.768   -59.641507     102002.7      46.7237      46.7237      46.7237 
  119000    129.51791   -10889.571   -9662.2595   -265.15516     102002.7      46.7237      46.7237      46.7237 
  120000    131.08757   -10897.771   -9655.5853    175.72034     102002.7      46.7237      46.7237      46.7237 
  121000    129.45475   -10908.757   -9682.0445   -369.64449     102002.7      46.7237      46.7237      46.7237 
  122000    127.71202   -10937.519   -9727.3207    131.43473     102002.7      46.7237      46.7237      46.7237 
  123000    130.51104   -10926.907   -9690.1849    22.535582     102002.7      46.7237      46.7237      46.7237 
  124000    129.83258   -10886.859   -9656.5657    267.04941     102002.7      46.7237      46.7237      46.7237 
  125000     130.3202   -10922.682   -9687.7687     113.9283     102002.7      46.7237      46.7237      46.7237 
  126000    129.22512   -10892.634   -9668.0977    411.55355     102002.7      46.7237      46.7237      46.7237 
  127000    130.32091   -10906.143   -9671.2225    360.75238     102002.7      46.7237      46.7237      46.7237 
  128000     129.4475   -10932.456   -9705.8117     46.98171     102002.7      46.7237      46.7237      46.7237 
  129000    128.34437   -10869.845   -9653.6547    91.411619     102002.7      46.7237      46.7237      46.7237 
  130000    131.79585   -10900.857     -9651.96   -322.61902     102002.7      46.7237      46.7237      46.7237 
  131000    129.20697   -10909.074   -9684.7091   -165.04316     102002.7      46.7237      46.7237      46.7237 
  132000    131.62499   -10930.161   -9682.8836   -48.871593     102002.7      46.7237      46.7237      46.7237 
  133000    128.45715    -10896.81   -9679.5504   -245.61544     102002.7      46.7237      46.7237      46.7237 
  134000    128.79345   -10891.869   -9671.4226    21.253389     102002.7      46.7237      46.7237      46.7237 
  135000    131.20698   -10909.997   -9666.6806    27.695285     102002.7      46.7237      46.7237      46.7237 
  136000    129.42212    -10900.71   -9674.3062    231.07487     102002.7      46.7237      46.7237      46.7237 
  137000    129.32703   -10908.112   -9682.6095    281.40928     102002.7      46.7237      46.7237      46.7237 
  138000    131.79976   -10923.406   -9674.4718    108.28626     102002.7      46.7237      46.7237      46.7237 
  139000    125.82633   -10931.786   -9739.4565    177.99765     102002.7      46.7237      46.7237      46.7237 
  140000    131.18573   -10909.884   -9666.7689     37.70553     102002.7      46.7237      46.7237      46.7237 
  141000    132.48927   -10902.474   -9647.0065    157.35412     102002.7      46.7237      46.7237      46.7237 
  142000    130.70214   -10923.236   -9684.7031    44.701578     102002.7      46.7237      46.7237      46.7237 
  143000    131.94222   -10873.502   -9623.2187    63.514358     102002.7      46.7237      46.7237      46.7237 
  144000     129.1516   -10886.568   -9662.7285     327.0335     102002.7      46.7237      46.7237      46.7237 
  145000     131.9732   -10919.228   -9668.6506   -255.51814     102002.7      46.7237      46.7237      46.7237 
  146000    130.49896   -10888.177   -9651.5696   -15.233927     102002.7      46.7237      46.7237      46.7237 
  147000    128.01443   -10925.289   -9712.2252    190.82301     102002.7      46.7237      46.7237      46.7237 
  148000    130.25688   -10950.084   -9715.7708    178.64466     102002.7      46.7237      46.7237      46.7237 
  149000    129.22126   -10909.878   -9685.3775    21.219576     102002.7      46.7237      46.7237      46.7237 
  150000    133.39284   -10888.046   -9624.0159    23.812464     102002.7      46.7237      46.7237      46.7237 
  151000    128.60046   -10903.362   -9684.7445     128.0383     102002.7      46.7237      46.7237      46.7237 
  152000    127.64767   -10911.143   -9701.5539    198.84588     102002.7      46.7237      46.7237      46.7237 
  153000    128.86089   -10913.103   -9692.0177    170.16457     102002.7      46.7237      46.7237      46.7237 
  154000    132.65144   -10916.063   -9659.0586    130.54473     102002.7      46.7237      46.7237      46.7237 
  155000    129.70905   -10890.436   -9661.3137    314.62595     102002.7      46.7237      46.7237      46.7237 
  156000    130.80967   -10904.339   -9664.7874    176.62418     102002.7      46.7237      46.7237      46.7237 
  157000    129.04895   -10876.855   -9653.9877    360.76891     102002.7      46.7237      46.7237      46.7237 
  158000    129.56325   -10900.972   -9673.2313   -17.665937     102002.7      46.7237      46.7237      46.7237 
  159000     126.7912   -10924.855   -9723.3819    509.09156     102002.7      46.7237      46.7237      46.7237 
  160000    131.84993   -10912.055   -9662.6459     553.9791     102002.7      46.7237      46.7237      46.7237 
  161000    127.63831   -10929.227   -9719.7267   -32.290918     102002.7      46.7237      46.7237      46.7237 
  162000    128.34062   -10904.813   -9688.6574    34.857039     102002.7      46.7237      46.7237      46.7237 
  163000    130.15931   -10899.911   -9666.5215    -13.65598     102002.7      46.7237      46.7237      46.7237 
  164000    128.77547   -10894.851   -9674.5757    65.067677     102002.7      46.7237      46.7237      46.7237 
  165000    129.89083   -10940.244   -9709.3994    119.85838     102002.7      46.7237      46.7237      46.7237 
  166000    128.36052   -10876.596   -9660.2521    -27.46423     102002.7      46.7237      46.7237      46.7237 
  167000    129.32157   -10924.014   -9698.5635    189.02942     102002.7      46.7237      46.7237      46.7237 
  168000    126.87629   -10913.811   -9711.5318    -80.63464     102002.7      46.7237      46.7237      46.7237 
  169000    131.05624   -10885.499   -9643.6108   -177.71311     102002.7      46.7237      46.7237      46.7237 
  170000    130.64257   -10904.801   -9666.8327    120.41391     102002.7      46.7237      46.7237      46.7237 
  171000    129.13682   -10910.803   -9687.1026   -381.49317     102002.7      46.7237      46.7237      46.7237 
  172000    131.25831   -10935.371    -9691.568   -5.1465147     102002.7      46.7237      46.7237      46.7237 
  173000     131.8537   -10906.807   -9657.3615   -91.153083     102002.7      46.7237      46.7237      46.7237 
  174000    130.70062   -10913.734   -9675.2155    34.660853     102002.7      46.7237      46.7237      46.7237 
  175000    126.59909   -10905.217   -9705.5642   -68.750722     102002.7      46.7237      46.7237      46.7237 
  176000    128.78887   -10933.845   -9713.4426    171.43217     102002.7      46.7237      46.7237      46.7237 
  177000    125.09478   -10894.736   -9709.3382    231.78484     102002.7      46.7237      46.7237      46.7237 
  178000    131.21041   -10929.375   -9686.0256    -12.75053     102002.7      46.7237      46.7237      46.7237 
  179000    128.70428   -10918.293   -9698.6919   -38.411105     102002.7      46.7237      46.7237      46.7237 
  180000    128.33494   -10901.584   -9685.4829   -130.02661     102002.7      46.7237      46.7237      46.7237 
  181000    130.30668    -10924.68   -9689.8945   -35.693369     102002.7      46.7237      46.7237      46.7237 
  182000    126.76404   -10900.679   -9699.4631    112.41042     102002.7      46.7237      46.7237      46.7237 
  183000    130.27838   -10909.278   -9674.7609    24.286718     102002.7      46.7237      46.7237      46.7237 
  184000    132.13243   -10895.725   -9643.6383    349.20975     102002.7      46.7237      46.7237      46.7237 
  185000    130.03587   -10898.722   -9666.5027   -67.998407     102002.7      46.7237      46.7237      46.7237 
  186000    129.64742   -10929.199    -9700.661    136.12545     102002.7      46.7237      46.7237      46.7237 
  187000    131.00934   -10860.013    -9618.569     131.4588     102002.7      46.7237      46.7237      46.7237 
  188000    128.91568   -10912.019   -9690.4149    31.023253     102002.7      46.7237      46.7237      46.7237 
  189000    129.81236    -10906.27    -9676.169   -144.96339     102002.7      46.7237      46.7237      46.7237 
  190000     131.9999   -10903.495   -9652.6648    125.50827     102002.7      46.7237      46.7237      46.7237 
  191000    128.90673   -10895.016    -9673.496    300.69829     102002.7      46.7237      46.7237      46.7237 
  192000    128.82251   -10906.433   -9685.7111   -206.83318     102002.7      46.7237      46.7237      46.7237 
  193000    130.82675   -10895.921   -9656.2069    332.09131     102002.7      46.7237      46.7237      46.7237 
  194000    127.15353    -10899.47   -9694.5637    -275.7938     102002.7      46.7237      46.7237      46.7237 
  195000    132.02131   -10911.224   -9660.1906      49.3445     102002.7      46.7237      46.7237      46.7237 
  196000    130.30436   -10881.296    -9646.533    162.99151     102002.7      46.7237      46.7237      46.7237 
  197000    128.68156   -10880.893   -9661.5076   -240.62735     102002.7      46.7237      46.7237      46.7237 
  198000    129.80249    -10907.54   -9677.5326    219.58877     102002.7      46.7237      46.7237      46.7237 
  199000    129.01241   -10900.206   -9677.6855    134.43597     102002.7      46.7237      46.7237      46.7237 
  200000    127.23995   -10904.967   -9699.2417   -150.92859     102002.7      46.7237      46.7237      46.7237 
  201000    131.62642   -10909.577   -9662.2854    162.46245     102002.7      46.7237      46.7237      46.7237 
  202000    128.15965   -10889.389   -9674.9487   -143.02032     102002.7      46.7237      46.7237      46.7237 
  203000    130.05418    -10915.56   -9683.1668    173.72917     102002.7      46.7237      46.7237      46.7237 
  204000    131.91457   -10892.718   -9642.6962   -68.687933     102002.7      46.7237      46.7237      46.7237 
  205000     128.0014   -10883.032    -9670.091    319.83098     102002.7      46.7237      46.7237      46.7237 
  206000    131.40163   -10913.498   -9668.3365    78.701679     102002.7      46.7237      46.7237      46.7237 
  207000    131.08463   -10870.718   -9628.5605    29.843773     102002.7      46.7237      46.7237      46.7237 
  208000    130.77431   -10914.707   -9675.4901    252.98015     102002.7      46.7237      46.7237      46.7237 
  209000    127.91757   -10884.404    -9672.258    165.58022     102002.7      46.7237      46.7237      46.7237 
  210000    129.08955   -10933.601   -9710.3487   -93.150115     102002.7      46.7237      46.7237      46.7237 
  211000    129.86599    -10885.68   -9655.0705   -93.142266     102002.7      46.7237      46.7237      46.7237 
  212000    128.28369   -10892.047   -9676.4309    96.846233     102002.7      46.7237      46.7237      46.7237 
  213000    130.01725    -10915.55   -9683.5071    147.55848     102002.7      46.7237      46.7237      46.7237 
  214000    129.83475   -10925.996   -9695.6826    58.101603     102002.7      46.7237      46.7237      46.7237 
  215000    133.08872   -10920.446   -9659.2978   -168.98886     102002.7      46.7237      46.7237      46.7237 
  216000    132.40827   -10894.678   -9639.9774    434.79138     102002.7      46.7237      46.7237      46.7237 
  217000    129.78625   -10895.892   -9666.0376    253.46495     102002.7      46.7237      46.7237      46.7237 
  218000    133.19118   -10907.026   -9644.9071    189.77732     102002.7      46.7237      46.7237      46.7237 
  219000     130.8425   -10919.151   -9679.2877    143.39136     102002.7      46.7237      46.7237      46.7237 
  220000     129.4342   -10908.907   -9682.3893    -154.5701     102002.7      46.7237      46.7237      46.7237 
  221000    130.55325   -10882.033   -9644.9105    95.547008     102002.7      46.7237      46.7237      46.7237 
  222000    129.79198   -10916.787   -9686.8793   -288.34096     102002.7      46.7237      46.7237      46.7237 
  223000     130.5184   -10896.636   -9659.8439      4.90207     102002.7      46.7237      46.7237      46.7237 
  224000    127.86404   -10892.549   -9680.9095    -34.77185     102002.7      46.7237      46.7237      46.7237 
  225000    131.66864   -10931.303   -9683.6113   -54.104673     102002.7      46.7237      46.7237      46.7237 
  226000    130.72879   -10902.819   -9664.0339   -139.20502     102002.7      46.7237      46.7237      46.7237 
  227000    127.32721   -10909.356   -9702.8037   -117.17998     102002.7      46.7237      46.7237      46.7237 
  228000    130.57072    -10891.49   -9654.2023   -23.928601     102002.7      46.7237      46.7237      46.7237 
  229000    129.78739   -10934.536   -9704.6713   -185.14701     102002.7      46.7237      46.7237      46.7237 
  230000      127.414   -10907.216   -9699.8412   -37.630241     102002.7      46.7237      46.7237      46.7237 
  231000    130.55095   -10903.155   -9666.0546   -236.58542     102002.7      46.7237      46.7237      46.7237 
  232000    130.52343   -10887.911   -9651.0719   -286.23983     102002.7      46.7237      46.7237      46.7237 
  233000    128.33339   -10912.821   -9696.7349    209.05012     102002.7      46.7237      46.7237      46.7237 
  234000    130.68092   -10919.454    -9681.122   -48.079024     102002.7      46.7237      46.7237      46.7237 
  235000    130.14184   -10914.806   -9681.5827    26.793309     102002.7      46.7237      46.7237      46.7237 
  236000    133.62982   -10910.946   -9644.6708    176.55939     102002.7      46.7237      46.7237      46.7237 
  237000    129.75919   -10880.293   -9650.6961   -342.13998     102002.7      46.7237      46.7237      46.7237 
  238000    133.88576   -10911.202   -9642.5011    178.95536     102002.7      46.7237      46.7237      46.7237 
  239000    127.79829   -10889.126   -9678.1104    8.0489606     102002.7      46.7237      46.7237      46.7237 
  240000    132.02621   -10876.534    -9625.454   -90.707422     102002.7      46.7237      46.7237      46.7237 
  241000    130.06778   -10907.346   -9674.8244   -269.74292     102002.7      46.7237      46.7237      46.7237 
  242000    131.81671   -10884.104   -9635.0096    110.24041     102002.7      46.7237      46.7237      46.7237 
  243000    130.33027    -10925.55   -9690.5408   -287.36262     102002.7      46.7237      46.7237      46.7237 
  244000    127.38186   -10886.151   -9679.0811    340.18815     102002.7      46.7237      46.7237      46.7237 
  245000    129.43173   -10914.623   -9688.1288    -79.90057     102002.7      46.7237      46.7237      46.7237 
  246000    128.57215   -10891.044   -9672.6954    74.329415     102002.7      46.7237      46.7237      46.7237 
  247000    126.92601   -10905.984   -9703.2338    186.25709     102002.7      46.7237      46.7237      46.7237 
  248000     128.1647   -10891.662   -9677.1741   -94.895833     102002.7      46.7237      46.7237      46.7237 
  249000    128.67286   -10901.026   -9681.7225    129.89664     102002.7      46.7237      46.7237      46.7237 
  250000    130.80789   -10900.909   -9661.3743    204.18196     102002.7      46.7237      46.7237      46.7237 
  251000     129.0666   -10894.718   -9671.6838    259.13936     102002.7      46.7237      46.7237      46.7237 
  252000    128.47295    -10913.42   -9696.0108   -121.21838     102002.7      46.7237      46.7237      46.7237 
  253000    129.10109   -10870.738   -9647.3772   -428.29472     102002.7      46.7237      46.7237      46.7237 
  254000     127.0788   -10913.425   -9709.2265   -410.54904     102002.7      46.7237      46.7237      46.7237 
  255000    128.07357   -10918.615   -9704.9908   -170.65092     102002.7      46.7237      46.7237      46.7237 
  256000    134.17278   -10930.326   -9658.9051   -135.74904     102002.7      46.7237      46.7237      46.7237 
  257000    130.52618   -10910.924   -9674.0589   -418.83871     102002.7      46.7237      46.7237      46.7237 
  258000    130.21981   -10879.401   -9645.4392   -137.76078     102002.7      46.7237      46.7237      46.7237 
  259000    128.98781   -10901.143   -9678.8548   -253.65668     102002.7      46.7237      46.7237      46.7237 
  260000    128.53931   -10893.857   -9675.8191   -30.762613     102002.7      46.7237      46.7237      46.7237 
  261000    131.05548    -10903.73   -9661.8486   -107.98276     102002.7      46.7237      46.7237      46.7237 
  262000    125.09337   -10921.458   -9736.0739    37.604968     102002.7      46.7237      46.7237      46.7237 
  263000    132.25087   -10920.467   -9667.2589   -74.680344     102002.7      46.7237      46.7237      46.7237 
  264000    129.39677    -10927.94   -9701.7773    122.98948     102002.7      46.7237      46.7237      46.7237 
  265000     130.5586   -10880.735   -9643.5623    146.93773     102002.7      46.7237      46.7237      46.7237 
  266000    129.63673   -10910.023   -9681.5863    376.33049     102002.7      46.7237      46.7237      46.7237 
  267000    130.95374   -10925.905    -9684.988   -103.90218     102002.7      46.7237      46.7237      46.7237 
  268000    132.20546   -10916.265   -9663.4868     144.0643     102002.7      46.7237      46.7237      46.7237 
  269000    129.88558   -10924.996   -9694.2013   -104.44504     102002.7      46.7237      46.7237      46.7237 
  270000    133.09896   -10875.927    -9614.682   -98.321928     102002.7      46.7237      46.7237      46.7237 
  271000    128.31166   -10897.759    -9681.878    -64.60708     102002.7      46.7237      46.7237      46.7237 
  272000    128.12874   -10888.329   -9674.1819   -58.974964     102002.7      46.7237      46.7237      46.7237 
  273000    132.26132   -10905.013   -9651.7054    272.98772     102002.7      46.7237      46.7237      46.7237 
  274000    126.67197   -10866.884    -9666.541    405.31622     102002.7      46.7237      46.7237      46.7237 
  275000    128.06621   -10931.936   -9718.3811   -136.38456     102002.7      46.7237      46.7237      46.7237 
  276000     128.1446   -10911.927   -9697.6298   -137.93622     102002.7      46.7237      46.7237      46.7237 
  277000    128.55616   -10925.733   -9707.5355   -28.910837     102002.7      46.7237      46.7237      46.7237 
  278000    129.35349   -10903.687   -9677.9344    -163.1143     102002.7      46.7237      46.7237      46.7237 
  279000    128.42043   -10856.402   -9639.4903   -72.634973     102002.7      46.7237      46.7237      46.7237 
  280000     130.1449   -10917.936   -9684.6833    460.17074     102002.7      46.7237      46.7237      46.7237 
  281000     130.7449   -10884.319   -9645.3811     187.9486     102002.7      46.7237      46.7237      46.7237 
  282000    128.21363   -10866.444   -9651.4919   -88.113091     102002.7      46.7237      46.7237      46.7237 
  283000    129.22756   -10887.263   -9662.7033    52.458875     102002.7      46.7237      46.7237      46.7237 
  284000    131.72214   -10919.542   -9671.3434   -29.471167     102002.7      46.7237      46.7237      46.7237 
  285000    131.67554   -10890.967   -9643.2107    137.62035     102002.7      46.7237      46.7237      46.7237 
  286000    131.39642   -10902.836   -9657.7239   -132.83026     102002.7      46.7237      46.7237      46.7237 
  287000    131.92355   -10904.546   -9654.4387    134.54059     102002.7      46.7237      46.7237      46.7237 
  288000    130.26733   -10883.496   -9649.0838     303.1307     102002.7      46.7237      46.7237      46.7237 
  289000    132.09441   -10881.052   -9629.3257    30.369805     102002.7      46.7237      46.7237      46.7237 
  290000    129.03388     -10911.3    -9688.576   -68.238294     102002.7      46.7237      46.7237      46.7237 
  291000    127.89403   -10900.179   -9688.2557    251.49375     102002.7      46.7237      46.7237      46.7237 
  292000    131.25045   -10885.987    -9642.258    160.15713     102002.7      46.7237      46.7237      46.7237 
  293000     129.1546   -10925.508   -9701.6401   -268.16032     102002.7      46.7237      46.7237      46.7237 
  294000    128.61656     -10884.5   -9665.7299    26.541465     102002.7      46.7237      46.7237      46.7237 
  295000    128.42233   -10873.751   -9656.8213    45.938311     102002.7      46.7237      46.7237      46.7237 
  296000    129.34703   -10896.159   -9670.4669    145.86764     102002.7      46.7237      46.7237      46.7237 
  297000    129.78503   -10916.532   -9686.6899    9.6708754     102002.7      46.7237      46.7237      46.7237 
  298000    128.31593   -10915.033   -9699.1122   -60.428704     102002.7      46.7237      46.7237      46.7237 
  299000    130.31155   -10939.604   -9704.7721    303.03262     102002.7      46.7237      46.7237      46.7237 
  300000    131.06001   -10930.715    -9688.791    202.26601     102002.7      46.7237      46.7237      46.7237 
  301000    130.54114   -10921.711    -9684.704   -165.34487     102002.7      46.7237      46.7237      46.7237 
  302000    133.61003   -10906.153   -9640.0648    264.07694     102002.7      46.7237      46.7237      46.7237 
  303000    131.32454   -10884.573   -9640.1426    280.09267     102002.7      46.7237      46.7237      46.7237 
  304000    129.75446   -10881.204   -9651.6518     233.8893     102002.7      46.7237      46.7237      46.7237 
  305000    129.44481   -10890.479   -9663.8608   -47.806184     102002.7      46.7237      46.7237      46.7237 
  306000    128.19103   -10900.295   -9685.5578    -46.12915     102002.7      46.7237      46.7237      46.7237 
  307000    129.03357   -10913.132     -9690.41   -17.636466     102002.7      46.7237      46.7237      46.7237 
  308000    130.36475    -10907.01   -9671.6738   -330.61277     102002.7      46.7237      46.7237      46.7237 
  309000    131.57775   -10881.403   -9634.5728   -3.3485509     102002.7      46.7237      46.7237      46.7237 
  310000    130.68428   -10890.071   -9651.7079    258.93511     102002.7      46.7237      46.7237      46.7237 
  311000    129.55807   -10903.251   -9675.5591   -11.618794     102002.7      46.7237      46.7237      46.7237 
  312000    127.34933   -10941.604   -9734.8427   -57.400706     102002.7      46.7237      46.7237      46.7237 
  313000    132.21416   -10930.357   -9677.4966   -0.9084777     102002.7      46.7237      46.7237      46.7237 
  314000    130.80683   -10919.234   -9679.7095   -52.469551     102002.7      46.7237      46.7237      46.7237 
  315000    132.15495    -10909.91   -9657.6106    253.00511     102002.7      46.7237      46.7237      46.7237 
  316000     127.3696   -10927.817   -9720.8634   -110.86404     102002.7      46.7237      46.7237      46.7237 
  317000    129.78019   -10910.653   -9680.8562     240.5579     102002.7      46.7237      46.7237      46.7237 
  318000    129.84647   -10886.284   -9655.8591    357.48496     102002.7      46.7237      46.7237      46.7237 
  319000    127.16126   -10909.166   -9704.1863    30.024798     102002.7      46.7237      46.7237      46.7237 
  320000     130.1882   -10912.374   -9678.7113    54.977655     102002.7      46.7237      46.7237      46.7237 
  321000     129.9121   -10884.513   -9653.4661    73.116591     102002.7      46.7237      46.7237      46.7237 
  322000    124.80205   -10918.057   -9735.4337    68.362574     102002.7      46.7237      46.7237      46.7237 
  323000    130.53154   -10905.087   -9668.1704     228.5962     102002.7      46.7237      46.7237      46.7237 
  324000    131.68336   -10928.426   -9680.5947    113.70754     102002.7      46.7237      46.7237      46.7237 
  325000    134.55586   -10885.065   -9610.0147     216.0031     102002.7      46.7237      46.7237      46.7237 
  326000    128.98767   -10916.104   -9693.8171    81.098815     102002.7      46.7237      46.7237      46.7237 
  327000    131.12643   -10874.253   -9631.6994   -469.20647     102002.7      46.7237      46.7237      46.7237 
  328000     128.4309   -10901.231   -9684.2208   -139.55515     102002.7      46.7237      46.7237      46.7237 
  329000    132.18723   -10922.012   -9669.4061    105.05333     102002.7      46.7237      46.7237      46.7237 
  330000    128.34964   -10894.352    -9678.111    53.163346     102002.7      46.7237      46.7237      46.7237 
  331000    129.89436   -10928.559    -9697.681    142.13032     102002.7      46.7237      46.7237      46.7237 
  332000    128.53388   -10928.691   -9710.7041   -206.99309     102002.7      46.7237      46.7237      46.7237 
  333000    127.92899   -10906.493   -9694.2381    289.88979     102002.7      46.7237      46.7237      46.7237 
  334000    129.66701   -10908.818   -9680.0944    247.66953     102002.7      46.7237      46.7237      46.7237 
  335000    131.01475   -10893.738   -9652.2428    339.25177     102002.7      46.7237      46.7237      46.7237 
  336000    128.08794   -10874.345   -9660.5845     137.3948     102002.7      46.7237      46.7237      46.7237 
  337000    126.68264   -10897.341   -9696.8972    248.52697     102002.7      46.7237      46.7237      46.7237 
  338000    129.37267   -10904.687   -9678.7519     145.6166     102002.7      46.7237      46.7237      46.7237 
  339000    131.60226    -10912.18   -9665.1176    3.3487067     102002.7      46.7237      46.7237      46.7237 
  340000    130.03764   -10927.689    -9695.453     24.13881     102002.7      46.7237      46.7237      46.7237 
  341000    127.78375   -10927.157   -9716.2793    2.5845952     102002.7      46.7237      46.7237      46.7237 
  342000    131.33803   -10898.332   -9653.7738   -201.00188     102002.7      46.7237      46.7237      46.7237 
  343000    130.53999    -10918.34   -9681.3432    181.46064     102002.7      46.7237      46.7237      46.7237 
  344000    129.15333   -10918.126     -9694.27   -165.79364     102002.7      46.7237      46.7237      46.7237 
  345000    129.96855   -10901.217    -9669.636    121.93685     102002.7      46.7237      46.7237      46.7237 
  346000    130.17533    -10918.29   -9684.7492   -270.94198     102002.7      46.7237      46.7237      46.7237 
  347000    131.83357   -10895.439    -9646.185   -176.96812     102002.7      46.7237      46.7237      46.7237 
  348000    132.06281   -10905.005   -9653.5782     240.2171     102002.7      46.7237      46.7237      46.7237 
  349000    130.39431   -10914.934   -9679.3186    31.311012     102002.7      46.7237      46.7237      46.7237 
  350000    126.22771   -10914.863   -9718.7297    127.24817     102002.7      46.7237      46.7237      46.7237 
  351000     130.9417   -10893.472   -9652.6688    53.802377     102002.7      46.7237      46.7237      46.7237 
  352000    131.51759   -10901.245   -9654.9852   -97.922635     102002.7      46.7237      46.7237      46.7237 
  353000    127.39733   -10881.667   -9674.4505    181.41122     102002.7      46.7237      46.7237      46.7237 
  354000    126.67833   -10927.501   -9727.0977   -227.62407     102002.7      46.7237      46.7237      46.7237 
  355000    133.50837   -10893.458   -9628.3329    193.77632     102002.7      46.7237      46.7237      46.7237 
  356000    130.16199   -10899.333   -9665.9184    242.73425     102002.7      46.7237      46.7237      46.7237 
  357000    127.84698   -10911.232   -9699.7542   -97.187559     102002.7      46.7237      46.7237      46.7237 
  358000    132.42798   -10924.634   -9669.7476    365.50891     102002.7      46.7237      46.7237      46.7237 
  359000    130.91885    -10913.37   -9672.7839    223.94191     102002.7      46.7237      46.7237      46.7237 
  360000    132.38255   -10906.602   -9652.1461    -67.64791     102002.7      46.7237      46.7237      46.7237 
  361000     131.3713   -10878.556   -9633.6825    115.96079     102002.7      46.7237      46.7237      46.7237 
  362000    133.73754   -10911.025   -9643.7284    37.262612     102002.7      46.7237      46.7237      46.7237 
  363000    127.82591   -10927.599   -9716.3212    154.37431     102002.7      46.7237      46.7237      46.7237 
  364000    129.23687   -10949.182   -9724.5339    403.47304     102002.7      46.7237      46.7237      46.7237 
  365000    128.88084   -10898.934   -9677.6596     267.2673     102002.7      46.7237      46.7237      46.7237 
  366000    131.58389   -10949.408   -9702.5197    117.49795     102002.7      46.7237      46.7237      46.7237 
  367000    132.58235    -10912.61   -9656.2603    268.82459     102002.7      46.7237      46.7237      46.7237 
  368000    131.48802   -10927.017   -9681.0367    57.597917     102002.7      46.7237      46.7237      46.7237 
  369000    130.82653   -10943.247   -9703.5357   -31.278471     102002.7      46.7237      46.7237      46.7237 
  370000    132.56177   -10902.347   -9646.1927    472.22111     102002.7      46.7237      46.7237      46.7237 
  371000    127.21852    -10916.19   -9710.6678    -51.70596     102002.7      46.7237      46.7237      46.7237 
  372000    131.77133   -10944.655   -9695.9902   -40.825489     102002.7      46.7237      46.7237      46.7237 
  373000    130.58472   -10903.059   -9665.6384    59.172992     102002.7      46.7237      46.7237      46.7237 
  374000    133.29122   -10910.221   -9647.1537     164.5098     102002.7      46.7237      46.7237      46.7237 
  375000    133.77783   -10878.958   -9611.2803    171.43438     102002.7      46.7237      46.7237      46.7237 
  376000    131.67929   -10886.369   -9638.5768    98.181437     102002.7      46.7237      46.7237      46.7237 
  377000     126.6702   -10918.118   -9717.7916    214.76456     102002.7      46.7237      46.7237      46.7237 
  378000    129.48036    -10905.29   -9678.3348    70.792542     102002.7      46.7237      46.7237      46.7237 
  379000    129.29741   -10903.325   -9678.1031    78.448165     102002.7      46.7237      46.7237      46.7237 
  380000    130.73773   -10902.616   -9663.7461    -183.4192     102002.7      46.7237      46.7237      46.7237 
  381000    128.81192    -10925.24   -9704.6193    188.80075     102002.7      46.7237      46.7237      46.7237 
  382000    134.51417   -10903.646   -9628.9902    240.14414     102002.7      46.7237      46.7237      46.7237 
  383000    129.75947   -10880.768   -9651.1676    109.55612     102002.7      46.7237      46.7237      46.7237 
  384000    128.26692   -10902.536   -9687.0788    144.81151     102002.7      46.7237      46.7237      46.7237 
  385000    129.91975   -10875.607    -9644.488    277.79233     102002.7      46.7237      46.7237      46.7237 
  386000    129.02861   -10870.652   -9647.9775    135.20601     102002.7      46.7237      46.7237      46.7237 
  387000    133.42931   -10918.612   -9654.2366     69.81299     102002.7      46.7237      46.7237      46.7237 
  388000    130.71553   -10925.951   -9687.2916   -7.6347891     102002.7      46.7237      46.7237      46.7237 
  389000    126.44854   -10925.602   -9727.3758    29.512996     102002.7      46.7237      46.7237      46.7237 
  390000    129.29566   -10909.693   -9684.4879     343.4985     102002.7      46.7237      46.7237      46.7237 
  391000     127.9855   -10870.432   -9657.6419    331.96445     102002.7      46.7237      46.7237      46.7237 
  392000    129.26664   -10905.864   -9680.9337    123.36854     102002.7      46.7237      46.7237      46.7237 
  393000    131.52429   -10908.081   -9661.7578    8.8713296     102002.7      46.7237      46.7237      46.7237 
  394000    129.18823    -10896.41   -9672.2224    100.01459     102002.7      46.7237      46.7237      46.7237 
  395000    128.14431    -10918.05   -9703.7547    124.66185     102002.7      46.7237      46.7237      46.7237 
  396000      131.238   -10900.414   -9656.8032    118.58328     102002.7      46.7237      46.7237      46.7237 
  397000    129.62214   -10935.982   -9707.6829   -77.825677     102002.7      46.7237      46.7237      46.7237 
  398000    128.04346   -10887.911   -9674.5722     472.3964     102002.7      46.7237      46.7237      46.7237 
  399000    128.21667   -10914.753   -9699.7723    226.99595     102002.7      46.7237      46.7237      46.7237 
  400000    131.62808   -10896.052   -9648.7446    458.98203     102002.7      46.7237      46.7237      46.7237 
  401000    128.98861   -10882.927   -9660.6319    222.98438     102002.7      46.7237      46.7237      46.7237 
  402000    130.26563   -10918.804    -9684.408   -19.630496     102002.7      46.7237      46.7237      46.7237 
  403000    126.68479   -10918.567   -9718.1028    21.972033     102002.7      46.7237      46.7237      46.7237 
  404000    131.72135   -10891.104   -9642.9135    241.66485     102002.7      46.7237      46.7237      46.7237 
  405000    127.91246   -10926.963   -9714.8648    161.04048     102002.7      46.7237      46.7237      46.7237 
  406000    130.27488   -10916.975    -9682.491    445.71673     102002.7      46.7237      46.7237      46.7237 
  407000    126.19165   -10902.497    -9706.706    330.40754     102002.7      46.7237      46.7237      46.7237 
  408000    128.80715   -10915.838   -9695.2622   -45.470352     102002.7      46.7237      46.7237      46.7237 
  409000    131.13409   -10885.189   -9642.5626    120.98898     102002.7      46.7237      46.7237      46.7237 
  410000    128.71454   -10896.932   -9677.2341    147.04474     102002.7      46.7237      46.7237      46.7237 
  411000    132.17633   -10883.724   -9631.2216    359.09743     102002.7      46.7237      46.7237      46.7237 
  412000    129.98268   -10901.995   -9670.2798    139.24465     102002.7      46.7237      46.7237      46.7237 
  413000    131.76747   -10913.969   -9665.3414   -244.16898     102002.7      46.7237      46.7237      46.7237 
  414000    127.99732   -10911.894   -9698.9917    110.31206     102002.7      46.7237      46.7237      46.7237 
  415000    130.25341   -10871.235   -9636.9543    164.04086     102002.7      46.7237      46.7237      46.7237 
  416000    128.36531   -10895.078   -9678.6888    104.79877     102002.7      46.7237      46.7237      46.7237 
  417000    131.55256   -10890.622   -9644.0308    402.10089     102002.7      46.7237      46.7237      46.7237 
  418000    131.05806   -10904.496   -9662.5904   -102.35268     102002.7      46.7237      46.7237      46.7237 
  419000    125.18896   -10874.298   -9688.0076   -18.016344     102002.7      46.7237      46.7237      46.7237 
  420000    129.96906   -10891.013    -9659.427    22.132835     102002.7      46.7237      46.7237      46.7237 
  421000    127.44275   -10875.992   -9668.3453   -220.23522     102002.7      46.7237      46.7237      46.7237 
  422000    126.54703   -10908.024   -9708.8644    5.3487532     102002.7      46.7237      46.7237      46.7237 
  423000    129.13795   -10923.872   -9700.1616   -62.300665     102002.7      46.7237      46.7237      46.7237 
  424000    131.88627   -10885.278    -9635.524   -24.069382     102002.7      46.7237      46.7237      46.7237 
  425000    131.26794   -10890.327   -9646.4328    6.6884594     102002.7      46.7237      46.7237      46.7237 
  426000    132.04714   -10915.479   -9664.2008    109.61583     102002.7      46.7237      46.7237      46.7237 
  427000    128.42906   -10926.889    -9709.896    236.70823     102002.7      46.7237      46.7237      46.7237 
  428000    130.48622   -10895.028   -9658.5412      74.2735     102002.7      46.7237      46.7237      46.7237 
  429000    130.15394   -10902.453   -9669.1148    393.56639     102002.7      46.7237      46.7237      46.7237 
  430000    126.09739   -10904.531   -9709.6325    438.60724     102002.7      46.7237      46.7237      46.7237 
  431000    129.77683   -10886.348   -9656.5829    135.01766     102002.7      46.7237      46.7237      46.7237 
  432000     130.2396   -10878.635   -9644.4853    420.04648     102002.7      46.7237      46.7237      46.7237 
  433000     131.4079    -10902.19   -9656.9689    336.66366     102002.7      46.7237      46.7237      46.7237 
  434000    128.36361   -10864.125   -9647.7516    590.60259     102002.7      46.7237      46.7237      46.7237 
  435000    129.75207   -10897.511   -9667.9813   -13.438496     102002.7      46.7237      46.7237      46.7237 
  436000    132.72306   -10878.638   -9620.9547    51.471981     102002.7      46.7237      46.7237      46.7237 
  437000    130.71378   -10902.879   -9664.2355    491.09628     102002.7      46.7237      46.7237      46.7237 
  438000    131.42009   -10901.665   -9656.3293    191.50083     102002.7      46.7237      46.7237      46.7237 
  439000    130.45871   -10882.322   -9646.0957    126.98299     102002.7      46.7237      46.7237      46.7237 
  440000    132.35938   -10868.699   -9614.4617    132.91128     102002.7      46.7237      46.7237      46.7237 
  441000    131.99164    -10896.35   -9645.5978    209.20537     102002.7      46.7237      46.7237      46.7237 
  442000    128.39336   -10917.052    -9700.397    520.85661     102002.7      46.7237      46.7237      46.7237 
  443000    128.45497   -10905.078   -9687.8395    126.49728     102002.7      46.7237      46.7237      46.7237 
  444000    131.61451   -10882.801   -9635.6225    143.56259     102002.7      46.7237      46.7237      46.7237 
  445000    128.29345   -10901.922   -9686.2137    77.699192     102002.7      46.7237      46.7237      46.7237 
  446000    131.32778   -10885.091   -9640.6292    77.680792     102002.7      46.7237      46.7237      46.7237 
  447000    125.95258   -10898.182   -9704.6557    68.130145     102002.7      46.7237      46.7237      46.7237 
  448000       129.29    -10906.23   -9681.0789    5.2960692     102002.7      46.7237      46.7237      46.7237 
  449000    127.17427   -10904.296   -9699.1933    268.60017     102002.7      46.7237      46.7237      46.7237 
  450000    127.07429   -10903.889   -9699.7332   -209.42097     102002.7      46.7237      46.7237      46.7237 
  451000    130.54286   -10877.914   -9640.8909    356.79262     102002.7      46.7237      46.7237      46.7237 
  452000    128.66625   -10897.705   -9678.4638    118.15431     102002.7      46.7237      46.7237      46.7237 
  453000    131.43856   -10905.026    -9659.515   -248.75923     102002.7      46.7237      46.7237      46.7237 
  454000    127.66681   -10882.565   -9672.7949    131.15661     102002.7      46.7237      46.7237      46.7237 
  455000    130.48039   -10883.648    -9647.216    57.599766     102002.7      46.7237      46.7237      46.7237 
  456000    128.98669   -10896.555    -9674.278     500.0691     102002.7      46.7237      46.7237      46.7237 
  457000    128.01808   -10861.785    -9648.686    650.46027     102002.7      46.7237      46.7237      46.7237 
  458000    131.67203   -10903.686    -9655.963    191.08048     102002.7      46.7237      46.7237      46.7237 
  459000    128.05704   -10900.136    -9686.668    335.66559     102002.7      46.7237      46.7237      46.7237 
  460000     128.7886   -10905.675   -9685.2745   -120.96811     102002.7      46.7237      46.7237      46.7237 
  461000    128.30569    -10871.91   -9656.0864    313.04215     102002.7      46.7237      46.7237      46.7237 
  462000    131.71313   -10914.148   -9666.0347    98.402343     102002.7      46.7237      46.7237      46.7237 
  463000    126.90356   -10921.532   -9718.9944    47.571405     102002.7      46.7237      46.7237      46.7237 
  464000     126.6279   -10904.509   -9704.5839     93.96024     102002.7      46.7237      46.7237      46.7237 
  465000     131.3656   -10885.344   -9640.5242    221.11536     102002.7      46.7237      46.7237      46.7237 
  466000    128.62005   -10941.168    -9722.365   -17.484755     102002.7      46.7237      46.7237      46.7237 
  467000    129.82909   -10910.436   -9680.1764    201.87666     102002.7      46.7237      46.7237      46.7237 
  468000    124.68711   -10886.538   -9705.0032    560.12069     102002.7      46.7237      46.7237      46.7237 
  469000    132.35059   -10920.618    -9666.464    153.68761     102002.7      46.7237      46.7237      46.7237 
  470000    130.65021    -10912.54   -9674.4994   -172.49447     102002.7      46.7237      46.7237      46.7237 
  471000    126.24086    -10903.42   -9707.1625     51.02858     102002.7      46.7237      46.7237      46.7237 
  472000     129.7317   -10891.794   -9662.4571   -109.83949     102002.7      46.7237      46.7237      46.7237 
  473000    129.62191   -10887.939   -9659.6425     26.94102     102002.7      46.7237      46.7237      46.7237 
  474000    129.42527   -10887.999   -9661.5655     28.51596     102002.7      46.7237      46.7237      46.7237 
  475000    129.23505     -10897.8   -9673.1697    397.97084     102002.7      46.7237      46.7237      46.7237 
  476000    130.40005   -10897.261   -9661.5903    19.580131     102002.7      46.7237      46.7237      46.7237 
  477000    129.61739   -10922.995   -9694.7417    37.490212     102002.7      46.7237      46.7237      46.7237 
  478000    130.41246    -10917.68    -9681.892    282.44522     102002.7      46.7237      46.7237      46.7237 
  479000    132.41253   -10882.681   -9627.9402   -139.54726     102002.7      46.7237      46.7237      46.7237 
  480000     130.8817   -10893.011   -9652.7765    266.18402     102002.7      46.7237      46.7237      46.7237 
  481000    129.36181   -10902.658   -9676.8264   -2.3505009     102002.7      46.7237      46.7237      46.7237 
  482000    129.27726   -10908.817   -9683.7861   -85.256967     102002.7      46.7237      46.7237      46.7237 
  483000     132.9498   -10906.966    -9647.134    293.37583     102002.7      46.7237      46.7237      46.7237 
  484000    131.21448   -10919.811   -9676.4233    307.82948     102002.7      46.7237      46.7237      46.7237 
  485000    130.07911   -10885.927   -9653.2976    252.16468     102002.7      46.7237      46.7237      46.7237 
  486000    129.55816   -10884.504   -9656.8111    233.01022     102002.7      46.7237      46.7237      46.7237 
  487000    128.04911   -10909.356    -9695.963    138.48888     102002.7      46.7237      46.7237      46.7237 
  488000    132.33227   -10904.442   -9650.4617    58.812676     102002.7      46.7237      46.7237      46.7237 
  489000    127.47964   -10881.373   -9673.3767    478.90198     102002.7      46.7237      46.7237      46.7237 
  490000    130.98473   -10895.924    -9654.713    160.37265     102002.7      46.7237      46.7237      46.7237 
  491000     132.2081   -10905.512   -9652.7087    430.70306     102002.7      46.7237      46.7237      46.7237 
  492000    129.09161   -10928.147   -9704.8757    227.73806     102002.7      46.7237      46.7237      46.7237 
  493000    132.16361   -10881.758   -9629.3766    499.28327     102002.7      46.7237      46.7237      46.7237 
  494000    128.07223   -10897.026   -9683.4142    142.60823     102002.7      46.7237      46.7237      46.7237 
  495000    128.58287   -10936.164    -9717.713   -77.713109     102002.7      46.7237      46.7237      46.7237 
  496000    128.40972   -10898.349   -9681.5393    -141.0303     102002.7      46.7237      46.7237      46.7237 
  497000      131.398   -10882.736   -9637.6096    247.99378     102002.7      46.7237      46.7237      46.7237 
  498000    130.27833   -10904.013   -9669.4965    97.012306     102002.7      46.7237      46.7237      46.7237 
  499000    127.11363   -10907.384   -9702.8556   -142.67837     102002.7      46.7237      46.7237      46.7237 
  500000    130.57186   -10913.003   -9675.7049    36.810769     102002.7      46.7237      46.7237      46.7237 
  500500     130.1467   -10887.016   -9653.7466    25.979716     102002.7      46.7237      46.7237      46.7237 
Loop time of 1947.98 on 16 procs for 500000 steps with 3180 atoms

Performance: 22.177 ns/day, 1.082 hours/ns, 256.676 timesteps/s
99.8% CPU use with 16 MPI tasks x no OpenMP threads

MPI task timing breakdown:
Section |  min time  |  avg time  |  max time  |%varavg| %total
---------------------------------------------------------------
Pair    | 854.97     | 1158.3     | 1496.8     | 576.6 | 59.46
Bond    | 152.4      | 174.75     | 205.36     | 126.6 |  8.97
Neigh   | 18.001     | 18.062     | 18.108     |   0.8 |  0.93
Comm    | 210.26     | 579.15     | 905.07     | 880.6 | 29.73
Output  | 0.021986   | 0.022481   | 0.02616    |   0.6 |  0.00
Modify  | 9.6361     | 10.678     | 12         |  25.1 |  0.55
Other   |            | 7.043      |            |       |  0.36

Nlocal:    198.75 ave 242 max 167 min
Histogram: 2 2 1 5 1 1 0 1 2 1
Nghost:    4013.44 ave 4041 max 3972 min
Histogram: 1 1 2 0 1 2 3 0 2 4
Neighs:    11454.4 ave 18957 max 6182 min
Histogram: 5 2 0 2 0 1 2 1 1 2

Total # of neighbors = 183271
Ave neighs/atom = 57.6324
Ave special neighs/atom = 3.62264
Neighbor list builds = 5118
Dangerous builds = 0
Neighbor list info ...
  update every 1 steps, delay 10 steps, check yes
  max neighbors/atom: 2000, page size: 100000
  master list distance cutoff = 16
  ghost atom cutoff = 16
  binsize = 8, bins = 6 6 6
  3 neighbor lists, perpetual/occasional/extra = 3 0 0
  (1) pair buck6d/coul/gauss/dsf, perpetual, skip from (3)
      attributes: half, newton on
      pair build: skip
      stencil: none
      bin: none
  (2) pair lj/cut, perpetual, skip from (3)
      attributes: half, newton on
      pair build: skip
      stencil: none
      bin: none
  (3) neighbor class addition, perpetual
      attributes: half, newton on
      pair build: half/bin/newton
      stencil: half/bin/3d/newton
      bin: standard
Setting up Verlet run ...
  Unit style    : real
  Current step  : 500500
  Time step     : 1
WARNING: Inconsistent image flags (../domain.cpp:786)
Per MPI rank memory allocation (min/avg/max) = 23.17 | 23.4 | 23.44 Mbytes
Step Time TotEng KinEng PotEng E_mol E_pair Temp Pxx Pyy Pzz Pxy Pxz Pyz Cella Cellb Cellc CellAlpha CellBeta CellGamma Volume Press 
  500500       500000   -9653.7466    1233.2695   -10887.016    4402.2527   -15289.269     130.1467   -237.47306    198.69017    116.72204    248.62193   -127.74832   -322.50253      46.7237      46.7237      46.7237           90           90           90     102002.7    25.979716 
  501000       500500    -9764.816    1192.1886   -10957.005    4352.9749    -15309.98    125.81144   -285.14072    7.1139305   -354.05052     28.17425   -504.94106   -151.64799      46.7237      46.7237      46.7237           90           90           90     102002.7   -210.69244 
  502000       501500   -9666.6533    1228.7527   -10895.406    4358.4708   -15253.877    129.67004    311.06884    242.72929   -199.30068     35.91591   -127.42489   -243.05744      46.7237      46.7237      46.7237           90           90           90     102002.7    118.16582 
  503000       502500   -9666.7428    1248.9215   -10915.664    4360.5098   -15276.174    131.79845   -318.47402    394.35311   -240.43027   -9.6210763    38.572849   -170.53722      46.7237      46.7237      46.7237           90           90           90     102002.7   -54.850396 
  504000       503500   -9693.0409    1219.5107   -10912.552    4379.4076   -15291.959    128.69474   -162.32701   -155.69371    -31.61383   -101.29318    3.1670192   -11.765062      46.7237      46.7237      46.7237           90           90           90     102002.7   -116.54485 
  505000       504500   -9675.0505    1211.9331   -10886.984    4364.9893   -15251.973    127.89508    168.85743   -52.158523    180.78383    -112.2147    244.13608    166.15348      46.7237      46.7237      46.7237           90           90           90     102002.7    99.160912 
  506000       505500   -9687.9287    1200.6006   -10888.529    4377.8078   -15266.337    126.69916   -36.030782   -71.316238    150.74738   -58.576848    240.85178    14.297416      46.7237      46.7237      46.7237           90           90           90     102002.7    14.466787 
  507000       506500    -9697.248    1214.1463   -10911.394     4384.471   -15295.865    128.12863   -99.951064   -296.97346   -114.56419   -64.735238   -178.81343    30.899942      46.7237      46.7237      46.7237           90           90           90     102002.7   -170.49624 
  508000       507500   -9676.0696    1216.2652   -10892.335    4412.1663   -15304.501    128.35223   -280.13389   -193.55463    458.47833    241.37596   -49.130057   -156.30959      46.7237      46.7237      46.7237           90           90           90     102002.7   -5.0700611 
  509000       508500   -9661.1758    1225.9219   -10887.098     4386.106   -15273.204    129.37131    281.92011   -7.6989083   -785.82912    303.92591   -4.6712308    210.46073      46.7237      46.7237      46.7237           90           90           90     102002.7   -170.53597 
  510000       509500   -9615.4345    1237.1049   -10852.539    4408.7063   -15261.246    130.55145    208.91798    152.89768    210.91297    37.186286   -170.27181    -84.05129      46.7237      46.7237      46.7237           90           90           90     102002.7    190.90954 
  511000       510500   -9657.4371    1209.7756   -10867.213    4391.0344   -15258.247     127.6674    16.359946    263.00838   -275.16953   -51.168918   -97.978813    283.46967      46.7237      46.7237      46.7237           90           90           90     102002.7    1.3996003 
  512000       511500   -9672.8974    1220.0949   -10892.992    4397.0204   -15290.013    128.75639   -190.33025    25.837929    209.23585    417.88177   -169.51123   -199.86373      46.7237      46.7237      46.7237           90           90           90     102002.7     14.91451 
  513000       512500    -9674.977    1252.7883   -10927.765    4367.3046    -15295.07    132.20652   -167.52175   -232.38505    685.91362   -54.615665   -293.47867   -89.753783      46.7237      46.7237      46.7237           90           90           90     102002.7    95.335606 
  514000       513500   -9655.2581    1258.5198   -10913.778    4356.0519    -15269.83    132.81136    41.999285    182.38287   -149.35072    126.78092    114.26186   -77.628502      46.7237      46.7237      46.7237           90           90           90     102002.7    25.010479 
  515000       514500   -9654.4299    1224.3757   -10878.806    4383.1021   -15261.908    129.20814    410.31962    424.02243    505.46951    90.746802   -159.93113   -88.495864      46.7237      46.7237      46.7237           90           90           90     102002.7    446.60385 
  516000       515500   -9625.2866    1266.3629    -10891.65    4373.5354   -15265.185    133.63904    -76.83988    153.76544    334.88919    158.25733    101.61257   -301.46903      46.7237      46.7237      46.7237           90           90           90     102002.7    137.27158 
  517000       516500   -9679.8802    1219.3613   -10899.241    4381.6743   -15280.916    128.67897   -250.56993    33.272126   -12.037183   -71.372492   -8.6026833   -20.159134      46.7237      46.7237      46.7237           90           90           90     102002.7   -76.444995 
  518000       517500   -9718.6541    1194.5888   -10913.243     4359.068   -15272.311    126.06474    255.44146    108.81583    202.08583    -3.543089    53.402974   -89.959377      46.7237      46.7237      46.7237           90           90           90     102002.7    188.78104 
  519000       518500   -9688.3648    1230.7185   -10919.083    4356.0634   -15275.147    129.87749   -152.72902   -199.88099   -180.05787   -35.215586    422.76037   -304.33281      46.7237      46.7237      46.7237           90           90           90     102002.7   -177.55596 
  520000       519500   -9650.4568    1238.2457   -10888.703     4371.678   -15260.381    130.67184    259.70349     210.8112    95.702813    27.222137    215.84922    45.628843      46.7237      46.7237      46.7237           90           90           90     102002.7    188.73917 
  521000       520500     -9667.16    1255.1256   -10922.286    4364.9873   -15287.273    132.45317    17.842537     28.18596   -125.76845   -148.07474    68.340593   -68.101696      46.7237      46.7237      46.7237           90           90           90     102002.7   -26.579984 
  522000       521500   -9642.6666    1242.6158   -10885.282    4392.8471   -15278.129    131.13301   -393.31074   -56.494418    35.290831   -211.06733    102.59491    170.85367      46.7237      46.7237      46.7237           90           90           90     102002.7   -138.17144 
  523000       522500   -9684.4735    1225.7253   -10910.199     4388.842   -15299.041    129.35056   -427.78246    370.08809    303.02654    121.84463   -294.16731    113.32066      46.7237      46.7237      46.7237           90           90           90     102002.7    81.777392 
  524000       523500   -9684.5623    1224.8357   -10909.398    4370.9687   -15280.367    129.25668    137.09042   -23.781699   -252.31369   -179.92461   -207.68731    91.947242      46.7237      46.7237      46.7237           90           90           90     102002.7    -46.33499 
  525000       524500   -9647.3696    1255.3491   -10902.719    4377.0183   -15279.737    132.47676    227.42793    47.490986   -30.789367    148.00555   -167.84892    533.83052      46.7237      46.7237      46.7237           90           90           90     102002.7    81.376516 
  526000       525500   -9647.2494    1256.3738   -10903.623    4386.5371    -15290.16    132.58489    58.018383    224.71343    19.466831    163.46917   -99.468602   -303.16012      46.7237      46.7237      46.7237           90           90           90     102002.7    100.73288 
  527000       526500   -9681.9396     1217.637   -10899.577    4394.1643   -15293.741    128.49701    -52.56257    93.047799   -623.22186    154.26839    212.92903    97.585458      46.7237      46.7237      46.7237           90           90           90     102002.7   -194.24554 
  528000       527500   -9704.5127    1210.3244   -10914.837    4376.9592   -15291.796    127.72531    323.06831    142.24757   -21.885326   -141.77449   -134.09332   -9.1832378      46.7237      46.7237      46.7237           90           90           90     102002.7    147.81018 
  529000       528500   -9694.0831    1229.1276   -10923.211    4373.2045   -15296.415     129.7096    200.57214   -291.78209   -5.5524851    -58.12803   -71.409545   -94.640455      46.7237      46.7237      46.7237           90           90           90     102002.7   -32.254143 
  530000       529500   -9669.8196    1233.2724   -10903.092    4388.0259   -15291.118    130.14701    -310.8937    180.76282   -407.34989    138.56826   -244.73954    37.679226      46.7237      46.7237      46.7237           90           90           90     102002.7   -179.16026 
  531000       530500   -9719.0025    1191.9392   -10910.942    4377.6524   -15288.594    125.78512    714.75091   -188.46728    471.23514   -170.48442   -54.705646   -188.70024      46.7237      46.7237      46.7237           90           90           90     102002.7    332.50625 
  532000       531500   -9713.6157     1210.937   -10924.553    4356.4792   -15281.032    127.78996     -354.251    51.933401   -251.20323    88.330669    -153.5059    112.17907      46.7237      46.7237      46.7237           90           90           90     102002.7   -184.50694 
  533000       532500   -9671.3894     1232.111     -10903.5    4395.2189   -15298.719    130.02444   -55.590873    54.406849    589.06047   -54.760914   -114.57462   -193.00001      46.7237      46.7237      46.7237           90           90           90     102002.7    195.95882 
  534000       533500   -9664.9851    1233.9048    -10898.89     4364.428   -15263.318    130.21374     202.5458    353.72367    551.46416    32.825617    91.987205    252.17981      46.7237      46.7237      46.7237           90           90           90     102002.7    369.24454 
  535000       534500   -9664.9451    1226.3979   -10891.343     4392.203   -15283.546    129.42154     245.0627    64.248643    482.02146    230.19264    12.869349    372.71433      46.7237      46.7237      46.7237           90           90           90     102002.7     263.7776 
  536000       535500   -9703.1786    1190.4956   -10893.674    4384.5535   -15278.228    125.63277    643.52046   -360.78629    367.24917    109.10056    -142.2234   -105.09463      46.7237      46.7237      46.7237           90           90           90     102002.7    216.66111 
  537000       536500   -9687.2366    1221.9337    -10909.17     4360.372   -15269.542    128.95044    -113.8339   -464.23422    115.38613   -58.559141    43.149634    195.75184      46.7237      46.7237      46.7237           90           90           90     102002.7   -154.22733 
  538000       537500   -9681.0048    1218.4187   -10899.423    4375.1766     -15274.6     128.5795    -105.4561   -103.36281    263.85518    55.394826    45.813218   -92.731441      46.7237      46.7237      46.7237           90           90           90     102002.7     18.34542 
  539000       538500   -9653.4756    1254.8715   -10908.347     4401.208   -15309.555    132.42635    -318.7204    228.05967    21.166319    161.63373   -230.67567    106.84679      46.7237      46.7237      46.7237           90           90           90     102002.7   -23.164802 
  540000       539500      -9666.1    1241.1973   -10907.297    4374.8256   -15282.123    130.98332    446.61456    8.9501188    335.26341   -134.06865    171.02117   -13.251098      46.7237      46.7237      46.7237           90           90           90     102002.7    263.60936 
  541000       540500   -9674.7608    1223.6328   -10898.394     4371.403   -15269.797    129.12974    188.93056     487.4513    193.62832    333.22417    89.493614    111.72261      46.7237      46.7237      46.7237           90           90           90     102002.7     290.0034 
  542000       541500   -9667.5752    1249.5625   -10917.138    4347.3001   -15264.438     131.8661   -312.58479   -42.975595    206.11231   -78.103127   -135.03093   -123.16459      46.7237      46.7237      46.7237           90           90           90     102002.7   -49.816024 
  543000       542500   -9707.4617      1209.44   -10916.902    4357.7276   -15274.629    127.63198   -68.045652   -282.99805    296.98408    40.886565   -244.46628    21.535775      46.7237      46.7237      46.7237           90           90           90     102002.7   -18.019876 
  544000       543500   -9659.8006    1233.9281   -10893.729    4367.6639   -15261.393     130.2162   -267.94386    500.41121    144.62089   -196.32111   -9.9680147   -23.941014      46.7237      46.7237      46.7237           90           90           90     102002.7    125.69608 
  545000       544500   -9672.7214    1230.6099   -10903.331     4368.478   -15271.809    129.86603   -476.37263     418.2272    139.38333   -64.166654    97.736421    107.11004      46.7237      46.7237      46.7237           90           90           90     102002.7    27.079301 
  546000       545500   -9660.5883    1235.1362   -10895.724      4387.05   -15282.774    130.34369    305.51203   -232.48714   -64.695715   -60.942797    8.8276623    99.366674      46.7237      46.7237      46.7237           90           90           90     102002.7    2.7763923 
  547000       546500   -9707.1955    1206.6486   -10913.844    4357.7494   -15271.594     127.3374   -360.99721    366.58172   -560.38451   -67.278844    35.391756    475.47088      46.7237      46.7237      46.7237           90           90           90     102002.7   -184.93333 
  548000       547500     -9660.44    1232.2955   -10892.735    4350.1204   -15242.856    130.04391    362.80723    725.12848    613.55065    160.79384    52.905487   -256.51247      46.7237      46.7237      46.7237           90           90           90     102002.7    567.16212 
  549000       548500    -9681.111    1219.5454   -10900.656    4364.8471   -15265.503     128.6984    76.707921    135.85702     490.4478   -50.816681   -172.92266   -11.895282      46.7237      46.7237      46.7237           90           90           90     102002.7    234.33758 
  550000       549500   -9661.6904     1226.093   -10887.783    4394.7804   -15282.564    129.38937    246.56337    128.24285    415.36426   -2.7553138    191.99442    45.960858      46.7237      46.7237      46.7237           90           90           90     102002.7    263.39016 
  551000       550500   -9667.6189    1233.5514    -10901.17    4378.9945   -15280.165    130.17645    566.47023    129.98828    614.46421    179.49732   -100.12845    -106.4905      46.7237      46.7237      46.7237           90           90           90     102002.7    436.97424 
  552000       551500   -9696.8784    1236.8755   -10933.754    4349.2846   -15283.039    130.52724    216.49872    269.64347    506.98221    94.704299    280.42554   -140.04587      46.7237      46.7237      46.7237           90           90           90     102002.7    331.04147 
  553000       552500   -9683.4604    1214.5777   -10898.038    4392.7719    -15290.81    128.17415    34.796463    781.33009    383.37285   -137.53931    95.453061    150.20031      46.7237      46.7237      46.7237           90           90           90     102002.7    399.83314 
  554000       553500   -9665.5135    1237.8373   -10903.351    4381.8925   -15285.243    130.62874     361.6195    135.79841    211.41871   -97.994617   -61.643834    109.96349      46.7237      46.7237      46.7237           90           90           90     102002.7    236.27887 
  555000       554500    -9675.918    1202.3338   -10878.252    4400.8991   -15279.151    126.88206    102.63526    203.46157    101.18351   -132.78293    19.832517    272.26493      46.7237      46.7237      46.7237           90           90           90     102002.7    135.76011 
[...]
  936000       935500   -9679.1136    1233.6318   -10912.745    4383.9422   -15296.688    130.18493    319.36882   -100.52031    585.02704   -272.30589    152.76161   -3.3856947      46.7237      46.7237      46.7237           90           90           90     102002.7    267.95852 
  937000       936500   -9691.2029    1225.0344   -10916.237    4393.7195   -15309.957    129.27765    130.62843   -88.644947   -495.38203    36.704229    263.10021   -39.630073      46.7237      46.7237      46.7237           90           90           90     102002.7   -151.13285 
  938000       937500   -9673.2399    1221.9559   -10895.196    4378.9119   -15274.108    128.95277    71.557869    529.15902   -453.85047    19.728501   -12.327117   -27.324148      46.7237      46.7237      46.7237           90           90           90     102002.7    48.955474 
  939000       938500   -9681.5135    1225.5352   -10907.049    4378.5738   -15285.623     129.3305    149.31109    173.77348   -85.891156    288.12615    130.77439    90.124483      46.7237      46.7237      46.7237           90           90           90     102002.7    79.064471 
  940000       939500   -9676.9786    1244.4922   -10921.471    4368.3569   -15289.828    131.33103    318.57263   -31.251989   -496.00278    9.0069896    162.33739    136.02562      46.7237      46.7237      46.7237           90           90           90     102002.7   -69.560714 
  941000       940500   -9672.6557    1222.5143    -10895.17    4376.2716   -15271.442    129.01171    474.19878    57.438939   -150.93791    206.79825   -73.649956   -19.143997      46.7237      46.7237      46.7237           90           90           90     102002.7    126.89993 
  942000       941500   -9674.0056    1229.7722   -10903.778    4365.1526    -15268.93    129.77763    642.67325    180.59538    127.36245   -131.07175     320.8832   -114.19932      46.7237      46.7237      46.7237           90           90           90     102002.7    316.87702 
  943000       942500   -9697.1915    1227.6158   -10924.807    4352.3895   -15277.197    129.55007    423.38919   -94.215918   -160.00056    147.71843    2.1624206   -225.94238      46.7237      46.7237      46.7237           90           90           90     102002.7    56.390903 
  944000       943500   -9668.9146    1215.4191   -10884.334    4405.4699   -15289.804    128.26295    -275.3096    108.60373   -165.13889    344.17074   -209.37041    8.7812845      46.7237      46.7237      46.7237           90           90           90     102002.7   -110.61492 
  945000       944500   -9711.1551    1216.6234   -10927.778    4352.3236   -15280.102    128.39004    65.630777    136.42885     85.84591     75.61284    22.355719   -141.22479      46.7237      46.7237      46.7237           90           90           90     102002.7    95.968513 
  946000       945500   -9639.9179    1249.4294   -10889.347    4372.4977   -15261.845    131.85205   -368.35083   -137.81789   -40.847908   -12.411322   -12.721506    64.981153      46.7237      46.7237      46.7237           90           90           90     102002.7   -182.33888 
  947000       946500   -9709.0018    1190.6015   -10899.603    4379.2532   -15278.857    125.64396   -50.699522    532.53693   -98.935147    25.320316   -196.43673   -155.88186      46.7237      46.7237      46.7237           90           90           90     102002.7    127.63409 
  948000       947500   -9697.7377    1231.0212   -10928.759     4352.579   -15281.338    129.90943   -176.56997   -290.40036    710.41458   -224.24125    101.56333    198.65162      46.7237      46.7237      46.7237           90           90           90     102002.7    81.148083 
  949000       948500    -9675.965    1232.5696   -10908.535    4367.8895   -15276.424    130.07284   -525.43356    150.24266    657.78495   -141.75952   -287.52251    128.90675      46.7237      46.7237      46.7237           90           90           90     102002.7    94.198015 
  950000       949500   -9713.4249    1204.0085   -10917.433    4363.0308   -15280.464    127.05879   -228.26617    329.26516    169.60312   0.69543951    317.66314    352.04282      46.7237      46.7237      46.7237           90           90           90     102002.7    90.200702 
  951000       950500   -9657.2546     1259.655    -10916.91    4388.4432   -15305.353    132.93115   -243.18083    266.87285    123.87703   -19.181203   -42.277337   -110.23492      46.7237      46.7237      46.7237           90           90           90     102002.7    49.189683 
  952000       951500   -9680.0174    1225.8846   -10905.902    4390.8459   -15296.748    129.36737     -155.877     763.5809   -82.258531    208.04638     114.2829    166.15725      46.7237      46.7237      46.7237           90           90           90     102002.7    175.14846 
  953000       952500   -9645.9999    1244.6552   -10890.655     4357.839   -15248.494    131.34823   -254.22628    4.5798154    488.59183    106.21044   -14.101934   -122.04061      46.7237      46.7237      46.7237           90           90           90     102002.7    79.648457 
  954000       953500   -9686.4498    1222.7178   -10909.168    4403.3565   -15312.524    129.03318   -243.14005    -189.7041   -346.90344    29.346489    114.68805    61.689802      46.7237      46.7237      46.7237           90           90           90     102002.7   -259.91587 
  955000       954500   -9650.6216    1249.5105   -10900.132    4362.7044   -15262.837    131.86061   -265.38598    373.77943    80.643051    219.04387    150.44036   -9.1671329      46.7237      46.7237      46.7237           90           90           90     102002.7    63.012167 
  956000       955500   -9670.5077    1231.2059   -10901.714    4373.3128   -15275.026    129.92892    296.86051     399.3996   -327.07035   -310.92345     -66.1926   -127.37188      46.7237      46.7237      46.7237           90           90           90     102002.7    123.06325 
  957000       956500   -9688.7752    1231.4352    -10920.21    4376.4915   -15296.702    129.95313   -101.83667    119.41534   -65.886905   -206.04256   -58.737633   -257.13028      46.7237      46.7237      46.7237           90           90           90     102002.7   -16.102743 
  958000       957500   -9714.5326    1214.3665   -10928.899    4385.1015   -15314.001    128.15187   -192.03594    456.00782    268.84922    9.4296572    24.769558     127.1453      46.7237      46.7237      46.7237           90           90           90     102002.7    177.60703 
  959000       958500   -9640.6777     1259.573   -10900.251    4386.5208   -15286.771     132.9225   -307.75812   -593.95225   -191.18766   -93.235057    323.46559    113.97834      46.7237      46.7237      46.7237           90           90           90     102002.7   -364.29934 
  960000       959500   -9711.6965     1222.056   -10933.753    4366.8753   -15300.628    128.96335   -167.58233    45.508702    14.241506    -44.10191   -45.820397    220.69849      46.7237      46.7237      46.7237           90           90           90     102002.7   -35.944042 
  961000       960500   -9667.4647    1227.2748    -10894.74    4393.6171   -15288.357    129.51408    30.776556     229.0953    251.11428   -86.183444    19.549636    79.140892      46.7237      46.7237      46.7237           90           90           90     102002.7    170.32871 
  962000       961500   -9679.8735    1253.3407   -10933.214    4356.4796   -15289.694    132.26481    335.40719    44.616563     124.8368    144.87806   -28.679236    30.391055      46.7237      46.7237      46.7237           90           90           90     102002.7    168.28685 
  963000       962500    -9677.399    1217.0521   -10894.451    4358.2823   -15252.733    128.43528    163.21046     266.6415     290.9596   -196.48245   -400.49925    200.66539      46.7237      46.7237      46.7237           90           90           90     102002.7    240.27052 
  964000       963500    -9690.581    1228.5973   -10919.178    4388.5751   -15307.753    129.65364   -386.27981   -375.24887     132.4543    200.41062   -55.658073    13.073708      46.7237      46.7237      46.7237           90           90           90     102002.7   -209.69146 
  965000       964500   -9662.6639    1218.1336   -10880.797    4372.0859   -15252.883    128.54941    51.808757     392.1878    68.097137    202.91086    215.83073    116.62478      46.7237      46.7237      46.7237           90           90           90     102002.7     170.6979 
  966000       965500   -9658.0129    1238.3684   -10896.381    4384.1222   -15280.504    130.68479   -42.012674   -30.011882    173.81213    46.144135   -78.953163    107.46947      46.7237      46.7237      46.7237           90           90           90     102002.7     33.92919 
  967000       966500   -9688.3222    1218.7803   -10907.102    4369.2663   -15276.369    128.61765   -127.70199    -63.30545   -47.995261    61.929005   -183.12618   -52.520081      46.7237      46.7237      46.7237           90           90           90     102002.7   -79.667568 
  968000       967500   -9703.4866    1204.9252   -10908.412    4379.7657   -15288.177    127.15553    462.62548    111.50458    342.73346   -209.72484    118.04248    104.18587      46.7237      46.7237      46.7237           90           90           90     102002.7    305.62117 
  969000       968500   -9658.0267    1242.8749   -10900.902    4362.3228   -15263.224    131.16035    79.730205    252.99006    55.417601    240.23511   -80.763111   -12.403157      46.7237      46.7237      46.7237           90           90           90     102002.7    129.37929 
  970000       969500   -9660.4515    1221.7055   -10882.157     4382.253    -15264.41    128.92636    303.77172    371.65007   -441.37069    -156.5731    5.5525916   -9.3389593      46.7237      46.7237      46.7237           90           90           90     102002.7    78.017035 
  971000       970500   -9653.9974    1236.2004   -10890.198    4397.0943   -15287.292    130.45599   -239.44694    161.80432    508.95525    14.284912   -52.171893    30.043875      46.7237      46.7237      46.7237           90           90           90     102002.7    143.77088 
  972000       971500   -9661.4466     1233.583    -10895.03    4380.6407    -15275.67    130.17979     -140.651    392.84738   -149.37992   -224.64538    73.832777    96.927952      46.7237      46.7237      46.7237           90           90           90     102002.7    34.272154 
  973000       972500   -9658.6879    1244.7547   -10903.443    4351.9066   -15255.349    131.35873     131.6222    601.87482    60.794178   -18.788881    148.02475    154.48439      46.7237      46.7237      46.7237           90           90           90     102002.7    264.76373 
  974000       973500    -9668.912    1258.0287   -10926.941    4357.8857   -15284.826    132.75953    77.825969    64.627815   -258.36979    110.78981    442.71787   -59.191449      46.7237      46.7237      46.7237           90           90           90     102002.7   -38.638669 
  975000       974500   -9674.1029    1226.9719   -10901.075    4391.4668   -15292.542    129.48212    29.398102       196.91    367.10603   -415.80469   -284.54912   -11.912971      46.7237      46.7237      46.7237           90           90           90     102002.7    197.80471 
  976000       975500   -9642.6396    1262.8464   -10905.486    4354.9675   -15260.454    133.26795    63.097197   -153.80815    959.84633   -3.9984014   -19.237791   -136.57318      46.7237      46.7237      46.7237           90           90           90     102002.7    289.71179 
  977000       976500   -9694.2462    1224.2366   -10918.483    4373.4527   -15291.936    129.19346   -45.626767   -196.48756    174.23185    227.23927   -277.06152   -157.93917      46.7237      46.7237      46.7237           90           90           90     102002.7   -22.627492 
  978000       977500    -9641.009    1271.1029   -10912.112    4362.6506   -15274.762    134.13926    125.47969    215.82117    943.26474    62.334789     36.50892    130.83487      46.7237      46.7237      46.7237           90           90           90     102002.7    428.18854 
  979000       978500   -9677.6596    1228.8027   -10906.462    4382.4284   -15288.891    129.67532    231.27978    86.968118     73.15565    116.44645    229.96944   -62.463363      46.7237      46.7237      46.7237           90           90           90     102002.7    130.46785 
  980000       979500   -9686.2513    1224.4469   -10910.698    4374.2274   -15284.926    129.21566   -53.252455    477.88706   -144.84585    223.81937    51.899004    102.78425      46.7237      46.7237      46.7237           90           90           90     102002.7     93.26292 
  981000       980500   -9647.2325    1244.3646   -10891.597    4366.4487   -15258.046    131.31757    202.09341    295.92888    634.39187    69.608532   -123.68931   -134.59582      46.7237      46.7237      46.7237           90           90           90     102002.7    377.47138 
  982000       981500   -9671.0302    1257.4878   -10928.518    4332.7236   -15261.242    132.70246   -85.810439    71.409877    378.72801   -42.101733    176.21888    121.87678      46.7237      46.7237      46.7237           90           90           90     102002.7    121.44248 
  983000       982500   -9711.5991    1221.0133   -10932.612    4340.9321   -15273.545    128.85331    36.192098   -103.78413   -156.57396    248.02853    35.591941    66.142714      46.7237      46.7237      46.7237           90           90           90     102002.7   -74.721997 
  984000       983500   -9687.1364    1231.9298   -10919.066    4361.1191   -15280.185    130.00532    329.03835   -281.93616    424.24631   -25.434786   -145.63244   -181.61539      46.7237      46.7237      46.7237           90           90           90     102002.7    157.11617 
  985000       984500   -9659.9781      1246.14   -10906.118    4373.8777   -15279.996    131.50492   -205.18466   -315.37007    89.597932    217.82225    -44.71941   -111.24632      46.7237      46.7237      46.7237           90           90           90     102002.7   -143.65226 
  986000       985500   -9650.3818    1243.2622   -10893.644     4415.212   -15308.856    131.20122   -598.64156   -389.72218   -52.685272    238.65643    143.44226    55.067594      46.7237      46.7237      46.7237           90           90           90     102002.7   -347.01634 
  987000       986500   -9700.1958    1227.1941    -10927.39    4378.8282   -15306.218    129.50556    94.457798   -601.78081   -142.46392   -155.41955    250.00062   -122.75764      46.7237      46.7237      46.7237           90           90           90     102002.7   -216.59564 
  988000       987500   -9656.0191    1230.0005    -10886.02    4397.5873   -15283.607    129.80173   -298.89826    27.096176    167.53233   -80.174843    88.561412   -141.67515      46.7237      46.7237      46.7237           90           90           90     102002.7   -34.756582 
  989000       988500   -9685.8338    1233.8014   -10919.635    4373.5746    -15293.21    130.20283    180.14985   -362.71828   -236.66026    188.65582   -114.53277    127.90197      46.7237      46.7237      46.7237           90           90           90     102002.7   -139.74289 
  990000       989500   -9694.3996    1212.7678   -10907.167    4390.3491   -15297.517    127.98316   -198.86772    -233.8827    -122.4755    165.65595    226.06215    117.27479      46.7237      46.7237      46.7237           90           90           90     102002.7   -185.07531 
  991000       990500   -9702.7039    1208.9403   -10911.644    4358.1279   -15269.772    127.57924    -187.9735    89.160073    495.11655   -123.28304    302.44605   -18.512661      46.7237      46.7237      46.7237           90           90           90     102002.7    132.10104 
  992000       991500   -9650.0207    1225.1984   -10875.219    4392.4265   -15267.646    129.29496    29.723622    156.80409   -213.69392   -223.04003   -17.152585    217.30155      46.7237      46.7237      46.7237           90           90           90     102002.7   -9.0554043 
  993000       992500   -9697.0646    1231.1582   -10928.223    4372.5988   -15300.822    129.92389     323.9147      74.7081    160.99177    108.02016    106.50919   -227.02118      46.7237      46.7237      46.7237           90           90           90     102002.7    186.53819 
  994000       993500   -9643.3965     1251.501   -10894.898    4361.2029     -15256.1    132.07067    137.98362    698.35285     147.3602   -118.37818   -49.124919    250.72848      46.7237      46.7237      46.7237           90           90           90     102002.7    327.89889 
  995000       994500   -9663.3643    1232.0891   -10895.453    4376.6242   -15272.078    130.02213     267.8583    -20.67499   -75.923907    264.62844   -140.31797   -189.25755      46.7237      46.7237      46.7237           90           90           90     102002.7    57.086468 
  996000       995500   -9657.4837    1252.8356   -10910.319    4371.6004    -15281.92    132.21151    24.329842    452.36628   -124.16168   -442.26765   -51.140278   -261.31254      46.7237      46.7237      46.7237           90           90           90     102002.7    117.51148 
  997000       996500   -9693.4929    1199.1937   -10892.687    4370.9086   -15263.595    126.55068    403.36605    150.82514    183.86269   -308.08945    391.08107   -64.088289      46.7237      46.7237      46.7237           90           90           90     102002.7    246.01796 
  998000       997500   -9673.3907     1230.175   -10903.566    4393.2952   -15296.861    129.82014   -109.44007    376.12312    -102.5862    80.870868   -104.45286   0.33778064      46.7237      46.7237      46.7237           90           90           90     102002.7    54.698948 
  999000       998500   -9689.9105    1208.6792    -10898.59    4374.0122   -15272.602    127.55169    103.97799    663.82564   -92.123552    5.4505353   -211.85615    108.63702      46.7237      46.7237      46.7237           90           90           90     102002.7    225.22669 
 1000000       999500   -9659.0632    1213.1722   -10872.235    4388.6559   -15260.891    128.02584    712.09131    734.64754    330.11144    78.744126    33.382951   -216.85881      46.7237      46.7237      46.7237           90           90           90     102002.7    592.28343 
 1000500      1000000   -9703.1295    1225.6128   -10928.742    4332.7875    -15261.53    129.33869    30.793346    520.73337   -158.04359   -35.065411    217.60671    124.53618      46.7237      46.7237      46.7237           90           90           90     102002.7    131.16104 
Loop time of 2211.99 on 16 procs for 500000 steps with 3180 atoms

Performance: 19.530 ns/day, 1.229 hours/ns, 226.041 timesteps/s
99.8% CPU use with 16 MPI tasks x no OpenMP threads

MPI task timing breakdown:
Section |  min time  |  avg time  |  max time  |%varavg| %total
---------------------------------------------------------------
Pair    | 1318.1     | 1458.5     | 1652.6     | 234.2 | 65.94
Bond    | 147.5      | 183.77     | 216.02     | 200.4 |  8.31
Neigh   | 17.68      | 17.747     | 17.78      |   0.9 |  0.80
Comm    | 343.16     | 520.11     | 687.54     | 405.6 | 23.51
Output  | 0.1296     | 0.13655    | 0.13709    |   0.5 |  0.01
Modify  | 23.494     | 24.908     | 26.26      |  16.4 |  1.13
Other   |            | 6.781      |            |       |  0.31

Nlocal:    198.75 ave 241 max 155 min
Histogram: 2 2 1 1 2 0 1 4 2 1
Nghost:    4060.31 ave 4112 max 4017 min
Histogram: 3 1 1 4 0 1 1 1 3 1
Neighs:    11465.4 ave 14655 max 6240 min
Histogram: 1 0 0 2 1 2 4 3 1 2

Total # of neighbors = 183447
Ave neighs/atom = 57.6877
Ave special neighs/atom = 3.62264
Neighbor list builds = 5120
Dangerous builds = 0
Total wall time: 1:09:24
