LAMMPS (30 Mar 2018)
Reading data file ...
  orthogonal box = (0 0 0) to (46.7237 46.7237 46.7237)
  2 by 3 by 4 MPI processor grid
  reading atoms ...
  3130 atoms
  scanning bonds ...
  5 = max bonds/atom
  scanning angles ...
  10 = max angles/atom
  scanning dihedrals ...
  32 = max dihedrals/atom
  scanning impropers ...
  3 = max impropers/atom
  reading bonds ...
  2064 bonds
  reading angles ...
  3696 angles
  reading dihedrals ...
  6240 dihedrals
  reading impropers ...
  1008 impropers
Finding 1-2 1-3 1-4 neighbors ...
  special bond factors lj:   0          0          0         
  special bond factors coul: 0          0          0         
  5 = max # of 1-2 neighbors
  8 = max # of 1-3 neighbors
  20 = max # of 1-4 neighbors
  19 = max # of special neighbors
Finding 1-2 1-3 1-4 neighbors ...
  special bond factors lj:   0          0          1         
  special bond factors coul: 1          1          1         
  5 = max # of 1-2 neighbors
  8 = max # of 1-3 neighbors
  19 = max # of special neighbors
WARNING: Using 'neigh_modify every 1 delay 0 check yes' setting during minimization (../min.cpp:168)
Neighbor list info ...
  update every 1 steps, delay 0 steps, check yes
  max neighbors/atom: 2000, page size: 100000
  master list distance cutoff = 16
  ghost atom cutoff = 16
  binsize = 8, bins = 6 6 6
  3 neighbor lists, perpetual/occasional/extra = 3 0 0
  (1) pair buck6d/coul/gauss/dsf, perpetual, skip from (3)
      attributes: half, newton on
      pair build: skip
      stencil: none
      bin: none
  (2) pair lj/cut, perpetual, skip from (3)
      attributes: half, newton on
      pair build: skip
      stencil: none
      bin: none
  (3) neighbor class addition, perpetual
      attributes: half, newton on
      pair build: half/bin/newton
      stencil: half/bin/3d/newton
      bin: standard
Setting up cg style minimization ...
  Unit style    : real
  Current step  : 0
WARNING: Inconsistent image flags (../domain.cpp:786)
Per MPI rank memory allocation (min/avg/max) = 22.97 | 23.34 | 24.52 Mbytes
Step Temp E_pair E_mol TotEng Press 
       0            0   -15215.928    6482.8914   -8733.0362    5967.4506 
     500            0   -15621.314    3739.8177   -11881.496   -2019.6567 
Loop time of 1.87575 on 24 procs for 500 steps with 3130 atoms

97.8% CPU use with 24 MPI tasks x no OpenMP threads

Minimization stats:
  Stopping criterion = max force evaluations
  Energy initial, next-to-last, final = 
         -8733.0362207     -11881.3809346     -11881.4959874
  Force two-norm initial, final = 2575.22 15.991
  Force max component initial, final = 152.358 1.98773
  Final line search alpha, max atom move = 0.00491934 0.00977832
  Iterations, force evaluations = 500 1000

MPI task timing breakdown:
Section |  min time  |  avg time  |  max time  |%varavg| %total
---------------------------------------------------------------
Pair    | 0.73684    | 1.0942     | 1.3985     |  12.6 | 58.33
Bond    | 0.10382    | 0.15765    | 0.20748    |   6.4 |  8.40
Neigh   | 0.01766    | 0.017871   | 0.018223   |   0.2 |  0.95
Comm    | 0.21567    | 0.56945    | 0.9804     |  19.2 | 30.36
Output  | 0          | 0          | 0          |   0.0 |  0.00
Modify  | 0          | 0          | 0          |   0.0 |  0.00
Other   |            | 0.03659    |            |       |  1.95

Nlocal:    130.417 ave 151 max 107 min
Histogram: 2 0 3 3 1 5 5 2 1 2
Nghost:    3470.29 ave 3639 max 3368 min
Histogram: 11 5 0 0 0 0 0 0 0 8
Neighs:    7643.42 ave 10687 max 3580 min
Histogram: 1 2 2 0 5 2 3 3 3 3

Total # of neighbors = 183442
Ave neighs/atom = 58.6077
Ave special neighs/atom = 3.68051
Neighbor list builds = 11
Dangerous builds = 0
Neighbor list info ...
  update every 1 steps, delay 10 steps, check yes
  max neighbors/atom: 2000, page size: 100000
  master list distance cutoff = 16
  ghost atom cutoff = 16
  binsize = 8, bins = 6 6 6
  3 neighbor lists, perpetual/occasional/extra = 3 0 0
  (1) pair buck6d/coul/gauss/dsf, perpetual, skip from (3)
      attributes: half, newton on
      pair build: skip
      stencil: none
      bin: none
  (2) pair lj/cut, perpetual, skip from (3)
      attributes: half, newton on
      pair build: skip
      stencil: none
      bin: none
  (3) neighbor class addition, perpetual
      attributes: half, newton on
      pair build: half/bin/newton
      stencil: half/bin/3d/newton
      bin: standard
Setting up Verlet run ...
  Unit style    : real
  Current step  : 500
  Time step     : 1
WARNING: Inconsistent image flags (../domain.cpp:786)
Per MPI rank memory allocation (min/avg/max) = 22.62 | 22.82 | 23.4 Mbytes
Step Temp PotEng TotEng Press Volume Lx Ly Lz 
     500          110   -11881.496   -10855.531   -1559.8728     102002.7      46.7237      46.7237      46.7237 
    1000    94.598362   -11048.367   -10166.053   -588.40411     102002.7      46.7237      46.7237      46.7237 
    2000    108.56778   -10872.327   -9859.7199   -597.81785     102002.7      46.7237      46.7237      46.7237 
    3000     111.6459    -10930.02   -9888.7033   -486.47311     102002.7      46.7237      46.7237      46.7237 
    4000    108.56552    -10909.18   -9896.5941   -75.515995     102002.7      46.7237      46.7237      46.7237 
    5000    108.73131   -10902.497    -9888.365   -468.73987     102002.7      46.7237      46.7237      46.7237 
    6000    110.23475   -10918.037   -9889.8825   -312.46739     102002.7      46.7237      46.7237      46.7237 
    7000    110.74447   -10910.584   -9877.6755   -380.26811     102002.7      46.7237      46.7237      46.7237 
    8000    112.56768    -10904.36   -9854.4461   -724.45615     102002.7      46.7237      46.7237      46.7237 
    9000    112.26065    -10915.67   -9868.6201   -439.31936     102002.7      46.7237      46.7237      46.7237 
   10000    110.36762   -10893.802   -9864.4085     -608.046     102002.7      46.7237      46.7237      46.7237 
   11000    108.09006   -10901.488   -9893.3369   -624.03472     102002.7      46.7237      46.7237      46.7237 
   12000    108.67806   -10907.465   -9893.8295   -529.53005     102002.7      46.7237      46.7237      46.7237 
   13000    109.53341   -10907.654   -9886.0405   -642.03286     102002.7      46.7237      46.7237      46.7237 
   14000    113.63185   -10918.088   -9858.2493   -244.70183     102002.7      46.7237      46.7237      46.7237 
   15000    111.66302   -10915.058   -9873.5821   -513.32105     102002.7      46.7237      46.7237      46.7237 
   16000    108.66514   -10928.228   -9914.7129   -444.69907     102002.7      46.7237      46.7237      46.7237 
   17000    110.62819   -10914.886   -9883.0617    -366.8539     102002.7      46.7237      46.7237      46.7237 
   18000    111.02273   -10910.347   -9874.8432   -533.72847     102002.7      46.7237      46.7237      46.7237 
   19000     111.8186   -10906.288   -9863.3609    -376.3155     102002.7      46.7237      46.7237      46.7237 
   20000    109.72258   -10910.077   -9886.6995   -338.28614     102002.7      46.7237      46.7237      46.7237 
   21000    109.80828   -10909.567   -9885.3901    -292.8455     102002.7      46.7237      46.7237      46.7237 
   22000    111.25426    -10914.74   -9877.0762   -559.57293     102002.7      46.7237      46.7237      46.7237 
   23000     110.2967   -10901.668   -9872.9359   -285.23068     102002.7      46.7237      46.7237      46.7237 
   24000    111.11398   -10917.029   -9880.6739   -579.73044     102002.7      46.7237      46.7237      46.7237 
   25000    110.73278   -10920.138    -9887.338   -540.67948     102002.7      46.7237      46.7237      46.7237 
   26000    106.17034   -10938.921   -9948.6755    -600.0331     102002.7      46.7237      46.7237      46.7237 
   27000    111.15025   -10927.616   -9890.9223   -454.94589     102002.7      46.7237      46.7237      46.7237 
   28000    113.01675   -10922.768   -9868.6655   -385.91864     102002.7      46.7237      46.7237      46.7237 
   29000    106.44481   -10949.747   -9956.9412   -476.93765     102002.7      46.7237      46.7237      46.7237 
   30000    111.38144    -10907.28   -9868.4301   -545.24259     102002.7      46.7237      46.7237      46.7237 
   31000    112.30685   -10903.073   -9855.5923   -472.98333     102002.7      46.7237      46.7237      46.7237 
   32000    111.59504   -10927.628   -9886.7858   -297.83977     102002.7      46.7237      46.7237      46.7237 
   33000    110.96202   -10933.263   -9898.3253   -235.74818     102002.7      46.7237      46.7237      46.7237 
   34000    109.15425   -10930.967     -9912.89   -524.61341     102002.7      46.7237      46.7237      46.7237 
   35000    111.06503    -10936.38   -9900.4818   -466.07725     102002.7      46.7237      46.7237      46.7237 
   36000    111.58857   -10935.082   -9894.3001   -401.77722     102002.7      46.7237      46.7237      46.7237 
   37000    110.13917   -10920.489    -9893.226   -692.87591     102002.7      46.7237      46.7237      46.7237 
   38000    110.82133   -10881.326      -9847.7    -537.9726     102002.7      46.7237      46.7237      46.7237 
   39000    110.19047   -10904.236   -9876.4943   -630.71328     102002.7      46.7237      46.7237      46.7237 
   40000    107.60135   -10935.731   -9932.1376   -499.67369     102002.7      46.7237      46.7237      46.7237 
   41000    109.19643    -10907.57   -9889.0995   -471.12529     102002.7      46.7237      46.7237      46.7237 
   42000    111.08028   -10917.421   -9881.3803   -766.75413     102002.7      46.7237      46.7237      46.7237 
   43000    107.35543   -10932.235   -9930.9359   -253.24251     102002.7      46.7237      46.7237      46.7237 
   44000     109.3896   -10929.453   -9909.1814   -629.43413     102002.7      46.7237      46.7237      46.7237 
   45000    109.74305   -10907.358   -9883.7893   -533.20929     102002.7      46.7237      46.7237      46.7237 
   46000    106.93809   -10907.752   -9910.3449    -384.3038     102002.7      46.7237      46.7237      46.7237 
   47000    109.32006   -10909.746   -9890.1226   -842.90397     102002.7      46.7237      46.7237      46.7237 
   48000    108.75737   -10924.753    -9910.378   -423.93545     102002.7      46.7237      46.7237      46.7237 
   49000    109.15925   -10903.164   -9885.0406   -643.72385     102002.7      46.7237      46.7237      46.7237 
   50000    106.88645   -10925.138   -9928.2126   -874.49306     102002.7      46.7237      46.7237      46.7237 
   51000    110.06555   -10919.215   -9892.6386   -297.49646     102002.7      46.7237      46.7237      46.7237 
   52000    108.58417   -10922.772   -9910.0128   -705.79344     102002.7      46.7237      46.7237      46.7237 
   53000    109.89583   -10903.681   -9878.6872   -497.53151     102002.7      46.7237      46.7237      46.7237 
   54000    110.60155   -10920.847    -9889.271   -635.19558     102002.7      46.7237      46.7237      46.7237 
   55000    109.85379   -10946.691   -9922.0893   -474.77387     102002.7      46.7237      46.7237      46.7237 
   56000    110.61475   -10923.406   -9891.7073   -471.76422     102002.7      46.7237      46.7237      46.7237 
   57000    111.85661   -10931.959   -9888.6772   -498.44438     102002.7      46.7237      46.7237      46.7237 
   58000    107.91668   -10907.325   -9900.7912   -400.56017     102002.7      46.7237      46.7237      46.7237 
   59000    110.79877   -10911.809    -9878.394   -492.39142     102002.7      46.7237      46.7237      46.7237 
   60000    108.89998   -10896.821   -9881.1163   -411.03369     102002.7      46.7237      46.7237      46.7237 
   61000    111.58267   -10920.126   -9879.3992   -620.36162     102002.7      46.7237      46.7237      46.7237 
   62000     109.3597   -10883.548   -9863.5551   -446.84566     102002.7      46.7237      46.7237      46.7237 
   63000    111.22273   -10904.394   -9867.0242   -286.75987     102002.7      46.7237      46.7237      46.7237 
   64000    109.65855   -10906.952   -9884.1717   -742.95654     102002.7      46.7237      46.7237      46.7237 
   65000     110.4397   -10906.918   -9876.8522   -545.48653     102002.7      46.7237      46.7237      46.7237 
   66000    110.33163   -10940.294    -9911.236   -433.14186     102002.7      46.7237      46.7237      46.7237 
   67000    111.17293   -10925.438   -9888.5331    -411.2418     102002.7      46.7237      46.7237      46.7237 
   68000    108.73878    -10938.32   -9924.1188   -386.29923     102002.7      46.7237      46.7237      46.7237 
   69000    108.54798   -10921.993   -9909.5708   -555.15451     102002.7      46.7237      46.7237      46.7237 
   70000    110.38703   -10911.339    -9881.764   -327.25771     102002.7      46.7237      46.7237      46.7237 
   71000    110.23555    -10924.82   -9896.6577   -621.57192     102002.7      46.7237      46.7237      46.7237 
   72000    107.65693   -10935.192   -9931.0808   -848.59134     102002.7      46.7237      46.7237      46.7237 
   73000    110.39338   -10920.362   -9890.7284   -546.26542     102002.7      46.7237      46.7237      46.7237 
   74000    113.18562   -10905.308   -9849.6303   -387.02997     102002.7      46.7237      46.7237      46.7237 
   75000    110.82003   -10926.581   -9892.9674   -331.29091     102002.7      46.7237      46.7237      46.7237 
   76000    110.04521   -10910.231   -9883.8443   -329.89239     102002.7      46.7237      46.7237      46.7237 
   77000    109.82414   -10895.473   -9871.1485   -909.23212     102002.7      46.7237      46.7237      46.7237 
   78000    109.25794   -10922.048   -9903.0043   -393.86391     102002.7      46.7237      46.7237      46.7237 
   79000    112.59865   -10904.201   -9853.9985    -319.9543     102002.7      46.7237      46.7237      46.7237 
   80000    111.39696   -10909.625   -9870.6305   -606.72856     102002.7      46.7237      46.7237      46.7237 
   81000    110.31824   -10931.152   -9902.2187   -376.64171     102002.7      46.7237      46.7237      46.7237 
   82000     109.6018   -10906.065   -9883.8139   -609.14489     102002.7      46.7237      46.7237      46.7237 
   83000    112.84505   -10929.539   -9877.0381   -476.13086     102002.7      46.7237      46.7237      46.7237 
   84000    111.32262   -10942.859   -9904.5579   -470.77999     102002.7      46.7237      46.7237      46.7237 
   85000    109.02128   -10912.771   -9895.9347   -756.13829     102002.7      46.7237      46.7237      46.7237 
   86000    109.29488   -10919.543   -9900.1543   -413.00519     102002.7      46.7237      46.7237      46.7237 
   87000    111.51764   -10900.245   -9860.1255   -571.68302     102002.7      46.7237      46.7237      46.7237 
   88000    112.36579   -10932.726   -9884.6956    -718.1088     102002.7      46.7237      46.7237      46.7237 
   89000    112.42942   -10922.237    -9873.613   -572.55608     102002.7      46.7237      46.7237      46.7237 
   90000    111.78078   -10919.977   -9877.4028    -438.7615     102002.7      46.7237      46.7237      46.7237 
   91000    109.99775   -10909.111   -9883.1674    -915.7951     102002.7      46.7237      46.7237      46.7237 
   92000    108.56066   -10947.732   -9935.1912   -788.52071     102002.7      46.7237      46.7237      46.7237 
   93000    112.49655   -10920.543   -9871.2924   -390.72394     102002.7      46.7237      46.7237      46.7237 
   94000    110.58092   -10929.774   -9898.3907   -598.32744     102002.7      46.7237      46.7237      46.7237 
   95000    109.78906   -10934.274   -9910.2766   -612.25648     102002.7      46.7237      46.7237      46.7237 
   96000    109.64467   -10926.289   -9903.6383   -817.63253     102002.7      46.7237      46.7237      46.7237 
   97000    111.39443   -10915.908   -9876.9369   -767.77848     102002.7      46.7237      46.7237      46.7237 
   98000     110.6691   -10904.174   -9871.9683   -385.78457     102002.7      46.7237      46.7237      46.7237 
   99000    111.02352   -10914.438   -9878.9271   -795.36474     102002.7      46.7237      46.7237      46.7237 
  100000    107.40908   -10891.647   -9889.8478   -461.02279     102002.7      46.7237      46.7237      46.7237 
  101000    110.06782   -10906.821   -9880.2229   -268.24844     102002.7      46.7237      46.7237      46.7237 
  102000     111.8362   -10914.685   -9871.5943     -725.476     102002.7      46.7237      46.7237      46.7237 
  103000    111.35987   -10903.165   -9864.5168   -543.59709     102002.7      46.7237      46.7237      46.7237 
  104000    111.24201   -10926.195   -9888.6458   -770.51852     102002.7      46.7237      46.7237      46.7237 
  105000    107.66358   -10930.186    -9926.013   -593.04747     102002.7      46.7237      46.7237      46.7237 
  106000    109.44181   -10927.396   -9906.6369   -498.28362     102002.7      46.7237      46.7237      46.7237 
  107000    109.86894    -10930.69   -9905.9478     -721.789     102002.7      46.7237      46.7237      46.7237 
  108000    109.76587    -10942.15   -9918.3691   -696.39234     102002.7      46.7237      46.7237      46.7237 
  109000    111.12715   -10911.593   -9875.1154   -718.13059     102002.7      46.7237      46.7237      46.7237 
  110000    111.60699   -10946.697   -9905.7439   -273.59945     102002.7      46.7237      46.7237      46.7237 
  111000    111.27572   -10891.355   -9853.4913   -624.86522     102002.7      46.7237      46.7237      46.7237 
  112000    108.28069   -10928.212   -9918.2824   -781.63838     102002.7      46.7237      46.7237      46.7237 
  113000    111.63321   -10928.216   -9887.0181   -763.17212     102002.7      46.7237      46.7237      46.7237 
  114000    111.89592   -10918.723   -9875.0752    -704.3968     102002.7      46.7237      46.7237      46.7237 
  115000    107.58946   -10937.045   -9933.5631   -423.46885     102002.7      46.7237      46.7237      46.7237 
  116000     111.6378   -10913.111   -9871.8703   -655.06193     102002.7      46.7237      46.7237      46.7237 
  117000     109.3919    -10912.39   -9892.0963   -972.45936     102002.7      46.7237      46.7237      46.7237 
  118000    112.71156   -10931.558    -9880.302   -551.51244     102002.7      46.7237      46.7237      46.7237 
  119000    111.95796   -10920.361   -9876.1344   -522.84579     102002.7      46.7237      46.7237      46.7237 
  120000    108.84748   -10899.192    -9883.977   -566.34837     102002.7      46.7237      46.7237      46.7237 
  121000    108.89105   -10937.245   -9921.6233     -695.798     102002.7      46.7237      46.7237      46.7237 
  122000    107.00108   -10895.683    -9897.689   -423.39616     102002.7      46.7237      46.7237      46.7237 
  123000    108.70849   -10909.178   -9895.2591   -460.68954     102002.7      46.7237      46.7237      46.7237 
  124000    108.29512   -10931.549   -9921.4856   -307.84934     102002.7      46.7237      46.7237      46.7237 
  125000    111.25729   -10928.825   -9891.1332   -517.28332     102002.7      46.7237      46.7237      46.7237 
  126000    112.27941   -10925.721   -9878.4965   -623.15253     102002.7      46.7237      46.7237      46.7237 
  127000    109.39618   -10924.232   -9903.8984   -634.89994     102002.7      46.7237      46.7237      46.7237 
  128000    110.23551   -10899.979   -9871.8178   -621.94672     102002.7      46.7237      46.7237      46.7237 
  129000    110.28204   -10927.108   -9898.5127   -481.29461     102002.7      46.7237      46.7237      46.7237 
  130000    109.06346   -10957.758   -9940.5283   -711.55727     102002.7      46.7237      46.7237      46.7237 
  131000    107.97884   -10933.522   -9926.4086   -473.12091     102002.7      46.7237      46.7237      46.7237 
  132000    109.73013   -10906.107   -9882.6589   -616.03543     102002.7      46.7237      46.7237      46.7237 
  133000    111.60631   -10896.752   -9855.8054   -515.76219     102002.7      46.7237      46.7237      46.7237 
  134000    107.89432   -10904.607   -9898.2815   -578.78089     102002.7      46.7237      46.7237      46.7237 
  135000    110.77456   -10926.694   -9893.5048   -505.35337     102002.7      46.7237      46.7237      46.7237 
  136000    109.81762   -10923.331   -9899.0667   -597.67861     102002.7      46.7237      46.7237      46.7237 
  137000    106.12659   -10918.126   -9928.2876   -494.64517     102002.7      46.7237      46.7237      46.7237 
  138000    109.85119   -10917.021   -9892.4443   -432.92253     102002.7      46.7237      46.7237      46.7237 
  139000    109.93158   -10942.802   -9917.4749   -618.35845     102002.7      46.7237      46.7237      46.7237 
  140000    113.29846   -10934.173    -9877.443   -653.21818     102002.7      46.7237      46.7237      46.7237 
  141000    112.74339   -10884.017   -9832.4645   -532.81533     102002.7      46.7237      46.7237      46.7237 
  142000    108.21633   -10905.309     -9895.98   -538.54257     102002.7      46.7237      46.7237      46.7237 
  143000    111.14637   -10932.283   -9895.6259   -860.78549     102002.7      46.7237      46.7237      46.7237 
  144000    112.04069   -10911.757   -9866.7584   -664.09648     102002.7      46.7237      46.7237      46.7237 
  145000    111.80908   -10932.567   -9889.7287   -724.77733     102002.7      46.7237      46.7237      46.7237 
  146000    111.09591   -10910.815   -9874.6283   -925.18067     102002.7      46.7237      46.7237      46.7237 
  147000    109.20497   -10928.698   -9910.1482   -600.45882     102002.7      46.7237      46.7237      46.7237 
  148000    110.63591   -10918.263   -9886.3664   -374.92581     102002.7      46.7237      46.7237      46.7237 
  149000    108.85383   -10923.128    -9907.853   -402.48575     102002.7      46.7237      46.7237      46.7237 
  150000    108.05513   -10952.355   -9944.5294   -411.89001     102002.7      46.7237      46.7237      46.7237 
  151000    112.33985    -10926.79   -9879.0014   -580.80696     102002.7      46.7237      46.7237      46.7237 
  152000    106.17937   -10919.483   -9929.1528   -636.40955     102002.7      46.7237      46.7237      46.7237 
  153000    109.73025    -10900.08   -9876.6306   -401.32885     102002.7      46.7237      46.7237      46.7237 
  154000      109.221   -10921.913   -9903.2138   -270.33217     102002.7      46.7237      46.7237      46.7237 
  155000    108.02111   -10915.142   -9907.6337    -322.5073     102002.7      46.7237      46.7237      46.7237 
  156000    108.05847   -10901.188   -9893.3311   -589.96308     102002.7      46.7237      46.7237      46.7237 
  157000    111.66888   -10915.372   -9873.8412   -288.63552     102002.7      46.7237      46.7237      46.7237 
  158000    107.34065   -10916.287   -9915.1255   -357.59644     102002.7      46.7237      46.7237      46.7237 
  159000    108.91787   -10905.488   -9889.6163   -543.35585     102002.7      46.7237      46.7237      46.7237 
  160000    112.16265   -10903.291   -9857.1554   -348.96671     102002.7      46.7237      46.7237      46.7237 
  161000    109.60681   -10913.623   -9891.3257   -256.23773     102002.7      46.7237      46.7237      46.7237 
  162000    110.46661   -10937.465   -9907.1483   -642.59897     102002.7      46.7237      46.7237      46.7237 
  163000    109.38857   -10917.566   -9897.3042   -722.83891     102002.7      46.7237      46.7237      46.7237 
  164000    112.63196   -10911.684   -9861.1711   -559.81454     102002.7      46.7237      46.7237      46.7237 
  165000    111.94461   -10905.288    -9861.186   -594.96635     102002.7      46.7237      46.7237      46.7237 
  166000    111.84069    -10928.58   -9885.4468   -724.79536     102002.7      46.7237      46.7237      46.7237 
  167000    110.92917   -10914.975   -9880.3433   -1061.6571     102002.7      46.7237      46.7237      46.7237 
  168000    111.83113   -10941.831   -9898.7872   -703.42006     102002.7      46.7237      46.7237      46.7237 
  169000    110.55157   -10954.576   -9923.4661   -557.17321     102002.7      46.7237      46.7237      46.7237 
  170000    110.19166   -10896.845   -9869.0924   -535.99953     102002.7      46.7237      46.7237      46.7237 
  171000    110.00093   -10918.699   -9892.7255   -661.39066     102002.7      46.7237      46.7237      46.7237 
  172000    107.75406    -10902.85   -9897.8328   -544.09664     102002.7      46.7237      46.7237      46.7237 
  173000    109.67903   -10924.293    -9901.322   -549.79291     102002.7      46.7237      46.7237      46.7237 
  174000    110.74763   -10884.484   -9851.5463   -548.99611     102002.7      46.7237      46.7237      46.7237 
  175000    109.63963   -10899.202   -9876.5981   -415.52884     102002.7      46.7237      46.7237      46.7237 
  176000    109.08982   -10922.477   -9905.0009    -687.0225     102002.7      46.7237      46.7237      46.7237 
  177000    110.55642   -10919.396   -9888.2416   -636.12509     102002.7      46.7237      46.7237      46.7237 
  178000    110.11839   -10923.037   -9895.9679   -468.52515     102002.7      46.7237      46.7237      46.7237 
  179000    110.94334   -10934.429   -9899.6657    -549.8666     102002.7      46.7237      46.7237      46.7237 
  180000    109.67513    -10933.87   -9910.9346   -645.04895     102002.7      46.7237      46.7237      46.7237 
  181000     110.4566   -10901.612   -9871.3885   -576.19099     102002.7      46.7237      46.7237      46.7237 
  182000    112.24162   -10929.021   -9882.1483    -411.6181     102002.7      46.7237      46.7237      46.7237 
  183000    107.46512   -10922.766   -9920.4432   -553.87125     102002.7      46.7237      46.7237      46.7237 
  184000    110.15234   -10921.074   -9893.6882   -971.50733     102002.7      46.7237      46.7237      46.7237 
  185000    110.75795   -10900.519   -9867.4848   -766.19597     102002.7      46.7237      46.7237      46.7237 
  186000    111.57982   -10936.872   -9896.1722   -605.64423     102002.7      46.7237      46.7237      46.7237 
  187000    110.47017   -10895.412   -9865.0618   -615.62641     102002.7      46.7237      46.7237      46.7237 
  188000    109.69445   -10918.414   -9895.2993   -375.81673     102002.7      46.7237      46.7237      46.7237 
  189000     109.6392   -10902.519   -9879.9189    -779.3555     102002.7      46.7237      46.7237      46.7237 
  190000    110.92998   -10936.708   -9902.0696    -873.8558     102002.7      46.7237      46.7237      46.7237 
  191000    107.75551   -10928.534   -9923.5038   -794.10285     102002.7      46.7237      46.7237      46.7237 
  192000    108.10207   -10895.024   -9886.7612   -305.00379     102002.7      46.7237      46.7237      46.7237 
  193000    108.27536    -10931.58   -9921.7006   -524.49934     102002.7      46.7237      46.7237      46.7237 
  194000    110.78686   -10916.096    -9882.792   -164.62755     102002.7      46.7237      46.7237      46.7237 
  195000    110.45922   -10926.268   -9896.0197   -607.11174     102002.7      46.7237      46.7237      46.7237 
  196000    108.48994   -10909.652   -9897.7711    -476.1592     102002.7      46.7237      46.7237      46.7237 
  197000    110.12428   -10909.956   -9882.8319   -346.46063     102002.7      46.7237      46.7237      46.7237 
  198000    111.22768   -10921.345     -9883.93   -740.25427     102002.7      46.7237      46.7237      46.7237 
  199000    110.74522   -10907.495   -9874.5791   -656.98832     102002.7      46.7237      46.7237      46.7237 
  200000    108.21867   -10906.287   -9896.9365   -552.76074     102002.7      46.7237      46.7237      46.7237 
  201000    106.74047   -10927.715   -9932.1513   -843.59004     102002.7      46.7237      46.7237      46.7237 
  202000    106.98553   -10922.496   -9924.6467   -517.85567     102002.7      46.7237      46.7237      46.7237 
  203000    109.16758   -10928.823   -9910.6221    -639.0581     102002.7      46.7237      46.7237      46.7237 
  204000    109.62724   -10910.907   -9888.4189   -697.90219     102002.7      46.7237      46.7237      46.7237 
  205000    109.95383   -10896.772   -9871.2378   -867.95283     102002.7      46.7237      46.7237      46.7237 
  206000    107.85636   -10903.051   -9897.0794   -625.98379     102002.7      46.7237      46.7237      46.7237 
  207000      109.638   -10893.249   -9870.6604   -713.58081     102002.7      46.7237      46.7237      46.7237 
  208000    109.36001   -10934.073   -9914.0772   -454.99028     102002.7      46.7237      46.7237      46.7237 
  209000    110.69208   -10909.968    -9877.548   -325.68199     102002.7      46.7237      46.7237      46.7237 
  210000    109.13617   -10909.503   -9891.5951     -442.814     102002.7      46.7237      46.7237      46.7237 
  211000    111.65715   -10926.906   -9885.4846   -541.32747     102002.7      46.7237      46.7237      46.7237 
  212000    110.70905   -10924.055   -9891.4764   -618.24401     102002.7      46.7237      46.7237      46.7237 
  213000    110.71278   -10908.053   -9875.4404   -412.41913     102002.7      46.7237      46.7237      46.7237 
  214000    108.60085   -10927.636   -9914.7203   -569.50299     102002.7      46.7237      46.7237      46.7237 
  215000     107.5995   -10914.981   -9911.4051   -474.72288     102002.7      46.7237      46.7237      46.7237 
  216000    107.65871   -10918.365   -9914.2373   -420.82048     102002.7      46.7237      46.7237      46.7237 
  217000    107.47002   -10926.591   -9924.2226   -683.31581     102002.7      46.7237      46.7237      46.7237 
  218000    107.83384   -10917.128   -9911.3665   -396.96621     102002.7      46.7237      46.7237      46.7237 
  219000    111.06098   -10906.705   -9870.8442   -617.68645     102002.7      46.7237      46.7237      46.7237 
  220000    109.93275   -10934.601   -9909.2636   -519.76093     102002.7      46.7237      46.7237      46.7237 
  221000    111.87169   -10881.227   -9837.8044   -381.06494     102002.7      46.7237      46.7237      46.7237 
  222000    110.44681   -10916.441   -9886.3083    -514.3639     102002.7      46.7237      46.7237      46.7237 
  223000    113.67287   -10905.302   -9845.0802   -437.75807     102002.7      46.7237      46.7237      46.7237 
  224000    111.94982   -10914.377   -9870.2257    -705.8068     102002.7      46.7237      46.7237      46.7237 
  225000    109.00693   -10911.935    -9895.232   -412.24903     102002.7      46.7237      46.7237      46.7237 
  226000    108.36883   -10917.349   -9906.5975   -506.39124     102002.7      46.7237      46.7237      46.7237 
  227000    111.51957    -10939.95   -9899.8121   -686.80256     102002.7      46.7237      46.7237      46.7237 
  228000    108.75226   -10907.696   -9893.3689   -651.27318     102002.7      46.7237      46.7237      46.7237 
  229000    108.31215   -10936.838   -9926.6157   -266.27308     102002.7      46.7237      46.7237      46.7237 
  230000     110.8736   -10913.194   -9879.0807   -377.56825     102002.7      46.7237      46.7237      46.7237 
  231000    112.87074   -10890.002   -9837.2614   -188.82944     102002.7      46.7237      46.7237      46.7237 
  232000     112.0197   -10916.837   -9872.0343   -426.11124     102002.7      46.7237      46.7237      46.7237 
  233000     110.4873    -10928.69   -9898.1797   -262.96892     102002.7      46.7237      46.7237      46.7237 
  234000    107.46884   -10919.844   -9917.4872   -421.68211     102002.7      46.7237      46.7237      46.7237 
  235000    111.03482   -10928.069   -9892.4518   -503.85474     102002.7      46.7237      46.7237      46.7237 
  236000    111.95222   -10906.787    -9862.614   -321.42189     102002.7      46.7237      46.7237      46.7237 
  237000    109.03457   -10935.047    -9918.087   -575.31062     102002.7      46.7237      46.7237      46.7237 
  238000    112.53309   -10894.256   -9844.6652   -384.00156     102002.7      46.7237      46.7237      46.7237 
  239000    110.68438   -10935.851    -9903.503   -552.98526     102002.7      46.7237      46.7237      46.7237 
  240000    110.31122   -10917.932   -9889.0643   -920.96587     102002.7      46.7237      46.7237      46.7237 
  241000    109.91638   -10914.144   -9888.9588   -475.95419     102002.7      46.7237      46.7237      46.7237 
  242000    107.34653   -10914.284   -9913.0678   -398.60163     102002.7      46.7237      46.7237      46.7237 
  243000    109.83016   -10916.907   -9892.5263   -593.40567     102002.7      46.7237      46.7237      46.7237 
  244000    111.04069   -10925.991   -9890.3199   -497.48996     102002.7      46.7237      46.7237      46.7237 
  245000    109.27208   -10918.797   -9899.6215   -492.40294     102002.7      46.7237      46.7237      46.7237 
  246000    109.60541   -10917.502   -9895.2171   -343.21019     102002.7      46.7237      46.7237      46.7237 
  247000    111.59034   -10920.198   -9879.3995   -368.37084     102002.7      46.7237      46.7237      46.7237 
  248000    110.82983   -10937.578   -9903.8736   -470.52193     102002.7      46.7237      46.7237      46.7237 
  249000    112.20309   -10914.221   -9867.7082   -602.52582     102002.7      46.7237      46.7237      46.7237 
  250000    112.63461   -10951.141    -9900.603   -690.56714     102002.7      46.7237      46.7237      46.7237 
  251000    109.40286   -10890.118   -9869.7224   -414.48355     102002.7      46.7237      46.7237      46.7237 
  252000    112.29167   -10895.895    -9848.556   -521.53683     102002.7      46.7237      46.7237      46.7237 
  253000    110.22733   -10919.225   -9891.1399   -689.45247     102002.7      46.7237      46.7237      46.7237 
  254000    110.84118   -10897.346   -9863.5354   -577.94773     102002.7      46.7237      46.7237      46.7237 
  255000    108.99158   -10910.462   -9893.9021   -943.20699     102002.7      46.7237      46.7237      46.7237 
  256000    112.17633   -10910.879   -9864.6157   -613.04484     102002.7      46.7237      46.7237      46.7237 
  257000    109.07075   -10907.222    -9889.924   -609.64888     102002.7      46.7237      46.7237      46.7237 
  258000      112.288    -10918.33   -9871.0252   -828.26912     102002.7      46.7237      46.7237      46.7237 
  259000    113.24151   -10915.944   -9859.7456   -756.84527     102002.7      46.7237      46.7237      46.7237 
  260000    111.70287   -10909.814    -9867.966   -862.78498     102002.7      46.7237      46.7237      46.7237 
  261000    109.85617   -10919.998   -9895.3745   -606.67489     102002.7      46.7237      46.7237      46.7237 
  262000    106.84857   -10928.637   -9932.0648    -417.6462     102002.7      46.7237      46.7237      46.7237 
  263000    107.99199   -10917.117   -9909.8803   -480.47075     102002.7      46.7237      46.7237      46.7237 
  264000    109.01417   -10918.609   -9901.8385   -206.55289     102002.7      46.7237      46.7237      46.7237 
  265000    110.96418   -10929.348     -9894.39   -550.01044     102002.7      46.7237      46.7237      46.7237 
  266000    109.40002   -10904.228   -9883.8591   -548.87968     102002.7      46.7237      46.7237      46.7237 
  267000    107.92787   -10935.593   -9928.9544   -277.91149     102002.7      46.7237      46.7237      46.7237 
  268000    111.37866   -10930.765   -9891.9413   -603.60646     102002.7      46.7237      46.7237      46.7237 
  269000    107.58564   -10909.989   -9906.5429   -671.98332     102002.7      46.7237      46.7237      46.7237 
  270000    109.32389   -10925.392   -9905.7326   -488.25891     102002.7      46.7237      46.7237      46.7237 
  271000    109.35234   -10893.473   -9873.5488   -530.73983     102002.7      46.7237      46.7237      46.7237 
  272000    109.54883   -10933.276   -9911.5188   -782.90199     102002.7      46.7237      46.7237      46.7237 
  273000    106.29934   -10933.898   -9942.4489   -788.81351     102002.7      46.7237      46.7237      46.7237 
  274000    110.33307   -10913.505    -9884.433     -667.231     102002.7      46.7237      46.7237      46.7237 
  275000    111.85462   -10914.473   -9871.2102   -980.53187     102002.7      46.7237      46.7237      46.7237 
  276000    110.83827   -10947.361   -9913.5775   -534.62117     102002.7      46.7237      46.7237      46.7237 
  277000    110.88198   -10923.495   -9889.3039   -749.64175     102002.7      46.7237      46.7237      46.7237 
  278000    110.90021   -10925.179   -9890.8176   -503.31585     102002.7      46.7237      46.7237      46.7237 
  279000    107.66112   -10928.322   -9924.1714   -558.95161     102002.7      46.7237      46.7237      46.7237 
  280000    109.98202   -10916.892   -9891.0942   -773.10208     102002.7      46.7237      46.7237      46.7237 
  281000    111.52256   -10888.583    -9848.417   -338.18246     102002.7      46.7237      46.7237      46.7237 
  282000    107.12625   -10896.442   -9897.2807   -659.30794     102002.7      46.7237      46.7237      46.7237 
  283000    110.34172   -10911.046   -9881.8933   -651.77918     102002.7      46.7237      46.7237      46.7237 
  284000    110.93636   -10955.114   -9920.4153   -453.98015     102002.7      46.7237      46.7237      46.7237 
  285000    110.87395   -10915.079   -9880.9628   -691.33622     102002.7      46.7237      46.7237      46.7237 
  286000    110.35745   -10921.185   -9891.8858   -668.77735     102002.7      46.7237      46.7237      46.7237 
  287000    109.23733   -10939.393   -9920.5418   -514.35485     102002.7      46.7237      46.7237      46.7237 
  288000    111.90072   -10932.878    -9889.185   -765.04611     102002.7      46.7237      46.7237      46.7237 
  289000    111.02226    -10932.98   -9897.4801   -727.34719     102002.7      46.7237      46.7237      46.7237 
  290000    111.80181   -10918.205   -9875.4345   -540.70863     102002.7      46.7237      46.7237      46.7237 
  291000    108.94826   -10936.834   -9920.6784   -849.72713     102002.7      46.7237      46.7237      46.7237 
  292000     110.8825   -10898.013    -9863.817   -573.32316     102002.7      46.7237      46.7237      46.7237 
  293000    110.36738   -10926.797   -9897.4057   -671.57806     102002.7      46.7237      46.7237      46.7237 
  294000     110.8742   -10917.887   -9883.7687   -1087.4826     102002.7      46.7237      46.7237      46.7237 
  295000      112.489   -10941.656   -9892.4762   -840.23914     102002.7      46.7237      46.7237      46.7237 
  296000    107.35529   -10953.899   -9952.6012   -720.08924     102002.7      46.7237      46.7237      46.7237 
  297000    109.31862   -10938.756   -9919.1463   -557.74994     102002.7      46.7237      46.7237      46.7237 
  298000    109.15227   -10900.744   -9882.6855   -434.30833     102002.7      46.7237      46.7237      46.7237 
  299000    109.31148   -10935.545   -9916.0015   -681.93918     102002.7      46.7237      46.7237      46.7237 
  300000     111.8665   -10921.764   -9878.3904   -705.69015     102002.7      46.7237      46.7237      46.7237 
  301000    107.10031   -10941.264    -9942.344   -337.45121     102002.7      46.7237      46.7237      46.7237 
  302000    111.88006   -10941.654   -9898.1538   -570.60103     102002.7      46.7237      46.7237      46.7237 
  303000    112.53146   -10935.671   -9886.0956   -554.11159     102002.7      46.7237      46.7237      46.7237 
  304000    108.25626   -10922.028   -9912.3269    -559.8977     102002.7      46.7237      46.7237      46.7237 
  305000    107.68803    -10919.35   -9914.9491   -637.00284     102002.7      46.7237      46.7237      46.7237 
  306000    111.43363   -10930.881   -9891.5447   -596.11237     102002.7      46.7237      46.7237      46.7237 
  307000    111.37112   -10904.166   -9865.4131     -710.994     102002.7      46.7237      46.7237      46.7237 
  308000     112.7081    -10923.82   -9872.5965    -563.1652     102002.7      46.7237      46.7237      46.7237 
  309000    107.84557   -10885.262   -9879.3908   -435.13761     102002.7      46.7237      46.7237      46.7237 
  310000    105.94467   -10931.558    -9943.417   -509.62877     102002.7      46.7237      46.7237      46.7237 
  311000    110.00336   -10922.998    -9897.002   -441.15381     102002.7      46.7237      46.7237      46.7237 
  312000    110.85361   -10899.359   -9865.4329   -339.73762     102002.7      46.7237      46.7237      46.7237 
  313000    108.03358   -10924.152   -9916.5273   -267.75393     102002.7      46.7237      46.7237      46.7237 
  314000    110.63211   -10917.327   -9885.4664   -647.09695     102002.7      46.7237      46.7237      46.7237 
  315000    109.73754   -10913.815   -9890.2983    -820.2972     102002.7      46.7237      46.7237      46.7237 
  316000    109.24249   -10944.717   -9925.8176   -535.02524     102002.7      46.7237      46.7237      46.7237 
  317000    111.78291   -10910.365   -9867.7705   -470.85618     102002.7      46.7237      46.7237      46.7237 
  318000    108.17204   -10937.827   -9928.9117   -291.32985     102002.7      46.7237      46.7237      46.7237 
  319000    108.85679   -10920.351   -9905.0486   -559.64872     102002.7      46.7237      46.7237      46.7237 
  320000    111.45688   -10920.231   -9880.6774   -352.41052     102002.7      46.7237      46.7237      46.7237 
  321000    107.51546   -10907.756    -9904.964    -127.2371     102002.7      46.7237      46.7237      46.7237 
  322000    108.97432   -10925.348   -9908.9497   -568.61031     102002.7      46.7237      46.7237      46.7237 
  323000    110.64563   -10943.988   -9912.0014   -603.95803     102002.7      46.7237      46.7237      46.7237 
  324000    111.56177    -10912.24   -9871.7089   -555.57078     102002.7      46.7237      46.7237      46.7237 
  325000     108.6216   -10863.067    -9849.958   -340.74806     102002.7      46.7237      46.7237      46.7237 
  326000    110.16706   -10931.695   -9904.1722   -473.00343     102002.7      46.7237      46.7237      46.7237 
  327000    107.71999   -10913.328   -9908.6289   -559.37164     102002.7      46.7237      46.7237      46.7237 
  328000    111.36153   -10887.242   -9848.5781   -304.77964     102002.7      46.7237      46.7237      46.7237 
  329000    110.64956   -10907.513   -9875.4897   -44.397094     102002.7      46.7237      46.7237      46.7237 
  330000    108.04783   -10916.516   -9908.7591   -804.33565     102002.7      46.7237      46.7237      46.7237 
  331000    108.68937   -10928.311   -9914.5701   -643.08326     102002.7      46.7237      46.7237      46.7237 
  332000    109.59706   -10914.119    -9891.912   -462.41611     102002.7      46.7237      46.7237      46.7237 
  333000    112.08304   -10937.747   -9892.3539   -727.75334     102002.7      46.7237      46.7237      46.7237 
  334000    111.04004   -10927.791   -9892.1254   -272.75848     102002.7      46.7237      46.7237      46.7237 
  335000    107.72597   -10894.951   -9890.1962   -418.95194     102002.7      46.7237      46.7237      46.7237 
  336000     111.4993   -10889.747   -9849.7982   -626.30957     102002.7      46.7237      46.7237      46.7237 
  337000    111.69482   -10892.847   -9851.0745    -551.4923     102002.7      46.7237      46.7237      46.7237 
  338000    107.00308   -10910.201   -9912.1877   -698.93237     102002.7      46.7237      46.7237      46.7237 
  339000    108.58897   -10917.987   -9905.1828   -629.66938     102002.7      46.7237      46.7237      46.7237 
  340000    111.89403   -10919.229   -9875.5985   -519.47123     102002.7      46.7237      46.7237      46.7237 
  341000    111.44555   -10935.749    -9896.301   -782.23045     102002.7      46.7237      46.7237      46.7237 
  342000    107.70662   -10951.885     -9947.31   -889.46145     102002.7      46.7237      46.7237      46.7237 
  343000    111.22165   -10922.319     -9884.96   -605.95924     102002.7      46.7237      46.7237      46.7237 
  344000    111.34481   -10909.048   -9870.5401   -776.54749     102002.7      46.7237      46.7237      46.7237 
  345000     109.6709   -10908.104   -9885.2088   -495.90455     102002.7      46.7237      46.7237      46.7237 
  346000    109.23235   -10907.121   -9888.3155   -615.63664     102002.7      46.7237      46.7237      46.7237 
  347000    109.74003   -10916.738    -9893.198    -277.8637     102002.7      46.7237      46.7237      46.7237 
  348000     108.9329   -10925.537   -9909.5247    -417.8776     102002.7      46.7237      46.7237      46.7237 
  349000    109.23062   -10916.521   -9897.7317   -665.73172     102002.7      46.7237      46.7237      46.7237 
  350000    109.96146   -10906.146   -9880.5403   -489.33551     102002.7      46.7237      46.7237      46.7237 
  351000    108.03912    -10905.58   -9897.9043   -182.21234     102002.7      46.7237      46.7237      46.7237 
  352000    111.79364   -10936.018   -9893.3238   -613.17838     102002.7      46.7237      46.7237      46.7237 
  353000    115.67546   -10913.191   -9834.2916   -112.74592     102002.7      46.7237      46.7237      46.7237 
  354000    110.79727   -10908.748   -9875.3471    -502.1745     102002.7      46.7237      46.7237      46.7237 
  355000    112.31108   -10913.225    -9865.705   -571.41347     102002.7      46.7237      46.7237      46.7237 
  356000    111.03297   -10921.831   -9886.2317   -572.46333     102002.7      46.7237      46.7237      46.7237 
  357000     106.3878   -10952.297   -9960.0231   -927.41061     102002.7      46.7237      46.7237      46.7237 
  358000    113.36616   -10927.908   -9870.5466   -512.55283     102002.7      46.7237      46.7237      46.7237 
  359000    108.53575   -10932.235   -9919.9266   -578.50845     102002.7      46.7237      46.7237      46.7237 
  360000    108.11051   -10917.027   -9908.6853   -615.91348     102002.7      46.7237      46.7237      46.7237 
  361000    109.11095   -10923.698   -9906.0252   -377.21643     102002.7      46.7237      46.7237      46.7237 
  362000    109.61443   -10878.973   -9856.6039   -602.60142     102002.7      46.7237      46.7237      46.7237 
  363000    112.48423   -10899.975     -9850.84   -705.48522     102002.7      46.7237      46.7237      46.7237 
  364000    109.90513    -10920.68   -9895.5996   -712.49163     102002.7      46.7237      46.7237      46.7237 
  365000    110.47909   -10885.213   -9854.7791   -701.20623     102002.7      46.7237      46.7237      46.7237 
  366000    110.55086    -10916.52   -9885.4167   -457.70277     102002.7      46.7237      46.7237      46.7237 
  367000    110.56361   -10909.953   -9878.7314   -1086.8979     102002.7      46.7237      46.7237      46.7237 
  368000    112.08142   -10907.319   -9861.9406   -518.13414     102002.7      46.7237      46.7237      46.7237 
  369000    111.16405   -10924.949   -9888.1272   -492.13095     102002.7      46.7237      46.7237      46.7237 
  370000    112.80323   -10915.333   -9863.2222   -627.92005     102002.7      46.7237      46.7237      46.7237 
  371000    111.45221   -10917.789    -9878.279   -277.11127     102002.7      46.7237      46.7237      46.7237 
  372000    111.12028   -10911.668   -9875.2546   -384.53899     102002.7      46.7237      46.7237      46.7237 
  373000    109.93009   -10928.705   -9903.3918    -675.5489     102002.7      46.7237      46.7237      46.7237 
  374000    112.48286   -10905.598   -9856.4755   -318.48586     102002.7      46.7237      46.7237      46.7237 
  375000     111.5163    -10918.67   -9878.5623   -455.38275     102002.7      46.7237      46.7237      46.7237 
  376000    109.70862   -10939.076   -9915.8289   -759.38781     102002.7      46.7237      46.7237      46.7237 
  377000    107.77281   -10930.093   -9924.9007   -388.60499     102002.7      46.7237      46.7237      46.7237 
  378000    110.46923   -10906.301   -9875.9596   -657.48432     102002.7      46.7237      46.7237      46.7237 
  379000    107.97609   -10904.959   -9897.8712    -574.4099     102002.7      46.7237      46.7237      46.7237 
  380000    110.16164   -10926.917   -9899.4442   -326.06499     102002.7      46.7237      46.7237      46.7237 
  381000    108.89473   -10917.938   -9902.2821   -510.85182     102002.7      46.7237      46.7237      46.7237 
  382000    111.39589   -10912.376   -9873.3916   -257.78165     102002.7      46.7237      46.7237      46.7237 
  383000    113.23922   -10920.484   -9864.3072   -695.50968     102002.7      46.7237      46.7237      46.7237 
  384000    110.54266   -10922.707   -9891.6809   -710.09682     102002.7      46.7237      46.7237      46.7237 
  385000    110.62549   -10904.696   -9872.8972   -808.96984     102002.7      46.7237      46.7237      46.7237 
  386000    108.90733    -10937.92   -9922.1461   -847.19846     102002.7      46.7237      46.7237      46.7237 
  387000    112.20208   -10896.856   -9850.3525   -556.62529     102002.7      46.7237      46.7237      46.7237 
  388000    107.85795   -10903.771   -9897.7845   -674.23511     102002.7      46.7237      46.7237      46.7237 
  389000    111.22822   -10921.188   -9883.7678   -657.16425     102002.7      46.7237      46.7237      46.7237 
  390000     110.9033   -10938.199   -9903.8093   -888.54577     102002.7      46.7237      46.7237      46.7237 
  391000    108.13048   -10942.054    -9933.526   -454.91186     102002.7      46.7237      46.7237      46.7237 
  392000      108.177   -10910.663    -9901.701   -471.67124     102002.7      46.7237      46.7237      46.7237 
  393000    108.68274   -10938.582   -9924.9034   -492.48911     102002.7      46.7237      46.7237      46.7237 
  394000    108.48281   -10922.227   -9910.4127   -354.93884     102002.7      46.7237      46.7237      46.7237 
  395000    111.36026   -10943.028   -9904.3758   -656.60375     102002.7      46.7237      46.7237      46.7237 
  396000    111.78479   -10906.686   -9864.0743   -382.52696     102002.7      46.7237      46.7237      46.7237 
  397000    111.79027   -10922.703   -9880.0405    -340.6782     102002.7      46.7237      46.7237      46.7237 
  398000    109.13573   -10946.786   -9928.8817   -602.04529     102002.7      46.7237      46.7237      46.7237 
  399000    109.69787   -10920.838   -9897.6913   -585.87402     102002.7      46.7237      46.7237      46.7237 
  400000    110.70534   -10933.941   -9901.3972   -628.88804     102002.7      46.7237      46.7237      46.7237 
  401000    110.31113   -10926.915   -9898.0484   -671.54062     102002.7      46.7237      46.7237      46.7237 
  402000    110.64534   -10927.153   -9895.1687   -530.64734     102002.7      46.7237      46.7237      46.7237 
  403000    107.42926   -10919.327   -9917.3386   -659.91013     102002.7      46.7237      46.7237      46.7237 
  404000    108.75579   -10897.868   -9883.5075   -768.56439     102002.7      46.7237      46.7237      46.7237 
  405000    109.93265   -10904.138   -9878.8017   -677.44603     102002.7      46.7237      46.7237      46.7237 
  406000    110.44277   -10906.571   -9876.4758   -813.98532     102002.7      46.7237      46.7237      46.7237 
  407000    109.79807   -10907.822     -9883.74    -804.0455     102002.7      46.7237      46.7237      46.7237 
  408000    108.55933   -10916.461   -9903.9332   -709.99272     102002.7      46.7237      46.7237      46.7237 
  409000    108.01005    -10929.51   -9922.1048   -767.02153     102002.7      46.7237      46.7237      46.7237 
  410000    109.81142    -10916.14   -9891.9334   -714.39389     102002.7      46.7237      46.7237      46.7237 
  411000    108.59716   -10925.379   -9912.4983   -827.35796     102002.7      46.7237      46.7237      46.7237 
  412000    111.58179   -10936.292   -9895.5742   -621.07729     102002.7      46.7237      46.7237      46.7237 
  413000    109.90884    -10950.56   -9925.4453   -752.52225     102002.7      46.7237      46.7237      46.7237 
  414000     110.3451   -10934.144   -9904.9606   -794.81103     102002.7      46.7237      46.7237      46.7237 
  415000    111.00026   -10917.972   -9882.6774   -580.73086     102002.7      46.7237      46.7237      46.7237 
  416000    110.68458   -10955.532   -9923.1815   -576.51587     102002.7      46.7237      46.7237      46.7237 
  417000     111.8226   -10928.891   -9885.9263    -575.6475     102002.7      46.7237      46.7237      46.7237 
  418000    109.67659    -10909.43   -9886.4819   -360.34909     102002.7      46.7237      46.7237      46.7237 
  419000    111.01048   -10940.917   -9905.5275   -513.55801     102002.7      46.7237      46.7237      46.7237 
  420000    111.03904   -10901.252   -9865.5961   -667.53882     102002.7      46.7237      46.7237      46.7237 
  421000    109.03312   -10907.337   -9890.3896   -690.36308     102002.7      46.7237      46.7237      46.7237 
  422000    111.28988   -10929.323   -9891.3277   -409.42727     102002.7      46.7237      46.7237      46.7237 
  423000    111.63163     -10904.7   -9863.5168   -397.63142     102002.7      46.7237      46.7237      46.7237 
  424000     111.9038   -10917.781   -9874.0591   -553.76702     102002.7      46.7237      46.7237      46.7237 
  425000    109.37178   -10916.755   -9896.6496   -412.95208     102002.7      46.7237      46.7237      46.7237 
  426000    110.47416   -10929.859    -9899.471   -360.88579     102002.7      46.7237      46.7237      46.7237 
  427000    110.22955   -10903.977    -9875.871   -679.84113     102002.7      46.7237      46.7237      46.7237 
  428000    110.92235   -10922.736   -9888.1681    -843.1663     102002.7      46.7237      46.7237      46.7237 
  429000    110.31779   -10925.604   -9896.6747   -573.30898     102002.7      46.7237      46.7237      46.7237 
  430000    111.63525   -10910.615   -9869.3982   -667.94418     102002.7      46.7237      46.7237      46.7237 
  431000    108.98296   -10927.138   -9910.6591   -733.58971     102002.7      46.7237      46.7237      46.7237 
  432000    107.13055   -10880.956   -9881.7545    -323.9599     102002.7      46.7237      46.7237      46.7237 
  433000    111.50333     -10901.9   -9861.9134   -563.76779     102002.7      46.7237      46.7237      46.7237 
  434000    111.00912   -10924.967   -9889.5897    -487.9106     102002.7      46.7237      46.7237      46.7237 
  435000    111.13736   -10908.091   -9871.5183   -445.96616     102002.7      46.7237      46.7237      46.7237 
  436000    112.87628   -10909.836   -9857.0437   -760.58042     102002.7      46.7237      46.7237      46.7237 
  437000    110.81116   -10906.214   -9872.6833   -340.26708     102002.7      46.7237      46.7237      46.7237 
  438000    109.04441   -10922.859   -9905.8072   -463.72959     102002.7      46.7237      46.7237      46.7237 
  439000    113.47557   -10915.404   -9857.0224   -261.27374     102002.7      46.7237      46.7237      46.7237 
  440000    113.52911   -10922.333   -9863.4522   -442.08595     102002.7      46.7237      46.7237      46.7237 
  441000    112.06976   -10912.482    -9867.212   -751.90768     102002.7      46.7237      46.7237      46.7237 
  442000    109.75736   -10896.043    -9872.341   -585.51863     102002.7      46.7237      46.7237      46.7237 
  443000    115.01007   -10904.016   -9831.3221   -475.78926     102002.7      46.7237      46.7237      46.7237 
  444000    110.83487   -10943.752   -9910.0007   -517.46321     102002.7      46.7237      46.7237      46.7237 
  445000    112.04549   -10910.591   -9865.5481   -405.61309     102002.7      46.7237      46.7237      46.7237 
  446000    109.27927   -10907.878   -9888.6355   -774.72453     102002.7      46.7237      46.7237      46.7237 
  447000    110.08672   -10907.779   -9881.0047   -892.39227     102002.7      46.7237      46.7237      46.7237 
  448000    113.61286    -10915.07   -9855.4083   -684.48636     102002.7      46.7237      46.7237      46.7237 
  449000    111.50463   -10926.119   -9886.1201   -767.12183     102002.7      46.7237      46.7237      46.7237 
  450000    108.95104   -10930.228   -9914.0467   -598.24369     102002.7      46.7237      46.7237      46.7237 
  451000     111.9021   -10909.898   -9866.1918   -762.02129     102002.7      46.7237      46.7237      46.7237 
  452000    109.38216   -10903.243   -9883.0404   -666.84279     102002.7      46.7237      46.7237      46.7237 
  453000    111.72741   -10930.173    -9888.097   -350.77861     102002.7      46.7237      46.7237      46.7237 
  454000    108.36127   -10921.563   -9910.8822   -611.41531     102002.7      46.7237      46.7237      46.7237 
  455000    112.76353    -10923.92   -9872.1796   -309.71242     102002.7      46.7237      46.7237      46.7237 
  456000    110.75172   -10911.377   -9878.4007   -394.48704     102002.7      46.7237      46.7237      46.7237 
  457000    109.26602   -10921.792   -9902.6727   -644.15325     102002.7      46.7237      46.7237      46.7237 
  458000    109.79266    -10900.99   -9876.9584   -391.97672     102002.7      46.7237      46.7237      46.7237 
  459000    110.05394   -10931.736   -9905.2675   -673.79991     102002.7      46.7237      46.7237      46.7237 
  460000    108.33525   -10929.588   -9919.1497   -421.47369     102002.7      46.7237      46.7237      46.7237 
  461000    115.68493   -10914.784    -9835.796   -666.72265     102002.7      46.7237      46.7237      46.7237 
  462000    109.22863    -10927.22   -9908.4497   -619.10268     102002.7      46.7237      46.7237      46.7237 
  463000    108.75058   -10906.977   -9892.6657    -485.4295     102002.7      46.7237      46.7237      46.7237 
  464000    110.45981   -10917.214   -9886.9604   -513.82463     102002.7      46.7237      46.7237      46.7237 
  465000    112.41029   -10924.811   -9876.3652   -703.55419     102002.7      46.7237      46.7237      46.7237 
  466000    109.13167   -10922.245   -9904.3788   -494.00993     102002.7      46.7237      46.7237      46.7237 
  467000    111.69056   -10915.776   -9874.0431   -120.88899     102002.7      46.7237      46.7237      46.7237 
  468000    105.23788   -10939.482   -9957.9332   -518.75077     102002.7      46.7237      46.7237      46.7237 
  469000    110.57823   -10925.524   -9894.1659   -406.21671     102002.7      46.7237      46.7237      46.7237 
  470000    112.38279   -10878.775   -9830.5856   -370.51926     102002.7      46.7237      46.7237      46.7237 
  471000    111.58903   -10915.461   -9874.6753   -856.82403     102002.7      46.7237      46.7237      46.7237 
  472000     112.0638   -10923.183   -9877.9695   -434.73763     102002.7      46.7237      46.7237      46.7237 
  473000    110.53782   -10936.083   -9905.1013   -411.11412     102002.7      46.7237      46.7237      46.7237 
  474000     111.4547   -10939.578   -9900.0447   -469.37866     102002.7      46.7237      46.7237      46.7237 
  475000    112.97471   -10931.081   -9877.3708   -642.08755     102002.7      46.7237      46.7237      46.7237 
  476000    109.77412   -10893.007   -9869.1483   -644.62494     102002.7      46.7237      46.7237      46.7237 
  477000    107.06046   -10914.514   -9915.9658   -715.95039     102002.7      46.7237      46.7237      46.7237 
  478000    110.65622   -10907.861    -9875.776   -404.71336     102002.7      46.7237      46.7237      46.7237 
  479000    107.48613    -10908.74   -9906.2222   -399.77955     102002.7      46.7237      46.7237      46.7237 
  480000    113.25398   -10917.199   -9860.8843   -932.58973     102002.7      46.7237      46.7237      46.7237 
  481000    108.84918   -10928.969   -9913.7381   -641.25696     102002.7      46.7237      46.7237      46.7237 
  482000    105.96872   -10948.764   -9960.3983   -885.70857     102002.7      46.7237      46.7237      46.7237 
  483000     110.3835   -10909.858   -9880.3164   -501.46875     102002.7      46.7237      46.7237      46.7237 
  484000    109.92099   -10900.849    -9875.621   -431.89921     102002.7      46.7237      46.7237      46.7237 
  485000    110.41004   -10911.044   -9881.2545    -754.6957     102002.7      46.7237      46.7237      46.7237 
  486000    107.82174   -10936.642   -9930.9939   -433.44598     102002.7      46.7237      46.7237      46.7237 
  487000    108.34911   -10919.179   -9908.6122   -612.93135     102002.7      46.7237      46.7237      46.7237 
  488000    112.40691    -10883.13   -9834.7158   -536.24523     102002.7      46.7237      46.7237      46.7237 
  489000    110.27843   -10928.981   -9900.4189   -445.37742     102002.7      46.7237      46.7237      46.7237 
  490000    110.07022   -10914.962   -9888.3418   -621.17623     102002.7      46.7237      46.7237      46.7237 
  491000    107.55105   -10915.524   -9912.4004   -453.88209     102002.7      46.7237      46.7237      46.7237 
  492000    110.43685   -10912.952   -9882.9127   -387.97567     102002.7      46.7237      46.7237      46.7237 
  493000    108.30074   -10911.678   -9901.5621   -662.10285     102002.7      46.7237      46.7237      46.7237 
  494000    108.77036    -10934.69   -9920.1939   -611.56862     102002.7      46.7237      46.7237      46.7237 
  495000     113.1133   -10927.665   -9872.6628   -617.95715     102002.7      46.7237      46.7237      46.7237 
  496000    109.46067   -10928.216   -9907.2811   -412.93323     102002.7      46.7237      46.7237      46.7237 
  497000    112.05438   -10922.263   -9877.1372   -496.52664     102002.7      46.7237      46.7237      46.7237 
  498000    106.65502   -10935.233   -9940.4667    -622.0213     102002.7      46.7237      46.7237      46.7237 
  499000     111.9779   -10925.802    -9881.389   -492.19259     102002.7      46.7237      46.7237      46.7237 
  500000    108.56805   -10939.093   -9926.4835   -717.39391     102002.7      46.7237      46.7237      46.7237 
  500500    109.31223   -10913.116    -9893.566   -615.98273     102002.7      46.7237      46.7237      46.7237 
Loop time of 821.889 on 24 procs for 500000 steps with 3130 atoms

Performance: 52.562 ns/day, 0.457 hours/ns, 608.355 timesteps/s
97.8% CPU use with 24 MPI tasks x no OpenMP threads

MPI task timing breakdown:
Section |  min time  |  avg time  |  max time  |%varavg| %total
---------------------------------------------------------------
Pair    | 345.05     | 459.31     | 543.17     | 209.9 | 55.89
Bond    | 63.317     | 78.79      | 94.429     |  96.7 |  9.59
Neigh   | 7.4167     | 7.4387     | 7.4557     |   0.5 |  0.91
Comm    | 173.14     | 260.62     | 376.2      | 283.2 | 31.71
Output  | 0.48431    | 0.48469    | 0.48901    |   0.1 |  0.06
Modify  | 4.6384     | 4.9377     | 5.2555     |   7.1 |  0.60
Other   |            | 10.3       |            |       |  1.25

Nlocal:    130.417 ave 162 max 99 min
Histogram: 2 2 2 3 3 3 4 1 1 3
Nghost:    3502.04 ave 3662 max 3396 min
Histogram: 7 8 1 0 0 0 0 0 1 7
Neighs:    7633.25 ave 11632 max 4174 min
Histogram: 2 1 1 5 5 4 3 1 1 1

Total # of neighbors = 183198
Ave neighs/atom = 58.5297
Ave special neighs/atom = 3.68051
Neighbor list builds = 4710
Dangerous builds = 0
Neighbor list info ...
  update every 1 steps, delay 10 steps, check yes
  max neighbors/atom: 2000, page size: 100000
  master list distance cutoff = 16
  ghost atom cutoff = 16
  binsize = 8, bins = 6 6 6
  3 neighbor lists, perpetual/occasional/extra = 3 0 0
  (1) pair buck6d/coul/gauss/dsf, perpetual, skip from (3)
      attributes: half, newton on
      pair build: skip
      stencil: none
      bin: none
  (2) pair lj/cut, perpetual, skip from (3)
      attributes: half, newton on
      pair build: skip
      stencil: none
      bin: none
  (3) neighbor class addition, perpetual
      attributes: half, newton on
      pair build: half/bin/newton
      stencil: half/bin/3d/newton
      bin: standard
Setting up Verlet run ...
  Unit style    : real
  Current step  : 500500
  Time step     : 1
WARNING: Inconsistent image flags (../domain.cpp:786)
Per MPI rank memory allocation (min/avg/max) = 24.37 | 24.58 | 24.66 Mbytes
Step Time TotEng KinEng PotEng E_mol E_pair Temp Pxx Pyy Pzz Pxy Pxz Pyz Cella Cellb Cellc CellAlpha CellBeta CellGamma Volume Press 
  500500       500000    -9893.566    1019.5502   -10913.116    4298.1172   -15211.233    109.31223   -433.97093   -862.75069   -551.22655    82.330734    207.90455   -43.084988      46.7237      46.7237      46.7237           90           90           90     102002.7   -615.98273 
  501000       500500   -9886.2183     1027.639   -10913.857    4289.6613   -15203.519    110.17948   -563.79635   -942.22565   -880.22633    271.60639    -34.49832    165.07811      46.7237      46.7237      46.7237           90           90           90     102002.7   -795.41611 
  502000       501500   -9884.9627    1009.8564   -10894.819    4309.0469   -15203.866     108.2729   -883.33507   -856.23643   -799.18413    10.698193    142.09855    149.75139      46.7237      46.7237      46.7237           90           90           90     102002.7   -846.25188 
  503000       502500   -9917.3862    1008.6847   -10926.071     4294.504   -15220.575    108.14727       -926.6   -891.56947   -898.55275   -94.674998    30.772303   -38.698331      46.7237      46.7237      46.7237           90           90           90     102002.7   -905.57407 
  504000       503500   -9926.4337    1021.5509   -10947.985    4282.6248   -15230.609    109.52674   -363.94728   -1056.7422   -807.98363   -134.39704    22.424792    40.910195      46.7237      46.7237      46.7237           90           90           90     102002.7   -742.89104 
  505000       504500   -9876.5896    1020.4632   -10897.053    4300.2813   -15197.334    109.41012   -557.58361   -1054.1323   -996.59976    185.04064   -19.366158    122.13256      46.7237      46.7237      46.7237           90           90           90     102002.7   -869.43855 
  506000       505500   -9915.2577    1020.4135   -10935.671    4271.0607   -15206.732    109.40479   -832.58469   -804.72419   -723.95496    -31.00619    184.23897    -1.099707      46.7237      46.7237      46.7237           90           90           90     102002.7   -787.08795 
  507000       506500   -9908.5432     1012.756   -10921.299    4271.5919   -15192.891    108.58378   -305.18371   -761.53502   -697.59449    291.03528    214.12199   -256.15056      46.7237      46.7237      46.7237           90           90           90     102002.7   -588.10441 
  508000       507500   -9890.4108    993.72334   -10884.134    4292.5763    -15176.71    106.54317   -725.74275   -527.39027    -55.71861    180.23533   -85.042077    128.29067      46.7237      46.7237      46.7237           90           90           90     102002.7   -436.28388 
  509000       508500   -9889.0884    1016.6929   -10905.781    4289.7547   -15195.536    109.00588   -504.79083   -432.08603   -576.69037    7.2565958     85.21254    131.63664      46.7237      46.7237      46.7237           90           90           90     102002.7   -504.52241 
  510000       509500    -9874.865    1032.2624   -10907.127    4282.7202   -15189.848    110.67518    38.582401   -752.56299    80.195947    3.1529433    199.21451    193.83558      46.7237      46.7237      46.7237           90           90           90     102002.7   -211.26155 
  511000       510500   -9866.4373    1029.9921   -10896.429    4284.5699   -15180.999    110.43177   -909.39248   -375.46105   -504.56296   -181.60468    39.646676   -51.794396      46.7237      46.7237      46.7237           90           90           90     102002.7   -596.47217 
  512000       511500   -9890.4977    1016.2371   -10906.735    4278.0533   -15184.788    108.95701   -229.28869   -316.71641   -722.66111    166.25237    -107.4098    28.651665      46.7237      46.7237      46.7237           90           90           90     102002.7   -422.88874 
  513000       512500   -9887.8495    1005.9789   -10893.828    4304.8724   -15198.701    107.85717   -322.57692   -883.52541   -617.98809    336.98774   -18.578518   -14.231658      46.7237      46.7237      46.7237           90           90           90     102002.7   -608.03014 
  514000       513500   -9891.5391    1016.6222   -10908.161    4301.7452   -15209.906     108.9983   -541.29573   -389.75048   -230.13522   -154.17923    25.627187    397.73063      46.7237      46.7237      46.7237           90           90           90     102002.7   -387.06048 
  515000       514500   -9863.2312      1035.07   -10898.301    4292.7224   -15191.024     110.9762   -331.79487   -397.21381    -426.4367    50.604717    73.241672    180.85186      46.7237      46.7237      46.7237           90           90           90     102002.7   -385.14846 
  516000       515500   -9904.5592    1019.7737   -10924.333    4269.3162   -15193.649    109.33619   -747.24281   -402.72011   -1069.4798    102.34331    253.24264   -29.421917      46.7237      46.7237      46.7237           90           90           90     102002.7   -739.81424 
  517000       516500    -9898.662    1025.9504   -10924.612    4284.0179    -15208.63    109.99843   -560.64645   -187.38473     23.17075   -126.70076    5.3701942     31.41524      46.7237      46.7237      46.7237           90           90           90     102002.7   -241.62014 
  518000       517500   -9899.2149    1012.3117   -10911.527    4283.4666   -15194.993    108.53615   -877.49402   -611.80588     -171.293   -185.52821   -178.18646    18.530419      46.7237      46.7237      46.7237           90           90           90     102002.7   -553.53097 
  519000       518500   -9901.7006    1030.7628   -10932.463    4260.9069    -15193.37     110.5144   -998.28333   -588.31103   -116.16479   -72.018712   -98.032017    99.560668      46.7237      46.7237      46.7237           90           90           90     102002.7   -567.58638 
  520000       519500   -9894.8909     1053.689    -10948.58    4270.7388   -15219.319    112.97246    41.655876   -474.09005   -223.39553    168.60793    71.397668    83.432103      46.7237      46.7237      46.7237           90           90           90     102002.7    -218.6099 
  521000       520500   -9925.3603    1003.6994    -10929.06    4293.0579   -15222.118    107.61277   -819.71909   -729.07515   -589.29927    75.819524   -79.475032   -138.32736      46.7237      46.7237      46.7237           90           90           90     102002.7   -712.69784 
  522000       521500   -9895.0796    1039.9569   -10935.036    4285.1572   -15220.194    111.50016   -800.12382   -677.40037   -1085.3324   -233.85294   -47.464836   -136.99352      46.7237      46.7237      46.7237           90           90           90     102002.7   -854.28553 
  523000       522500   -9886.1092     1031.051    -10917.16    4290.3205   -15207.481     110.5453   -396.49304   -490.57302   -676.69948    33.122694    123.44883    68.370344      46.7237      46.7237      46.7237           90           90           90     102002.7   -521.25518 
  524000       523500   -9917.4783    1023.4669   -10940.945    4281.7774   -15222.723    109.73216   -645.03814    -1177.856   -776.79367    158.86658    45.900086   -118.86154      46.7237      46.7237      46.7237           90           90           90     102002.7    -866.5626 
  525000       524500   -9861.0798    1028.8371   -10889.917    4283.1744   -15173.091    110.30794    -426.2794   -628.32354   -659.19225    99.656974   -72.797759   -19.287601      46.7237      46.7237      46.7237           90           90           90     102002.7   -571.26506 
  526000       525500   -9868.9945    1036.4464   -10905.441     4276.186   -15181.627    111.12377   -714.81272   -555.36403   -503.00786    58.211794   -99.849561    17.371273      46.7237      46.7237      46.7237           90           90           90     102002.7   -591.06154 
  527000       526500   -9912.1757     1005.879   -10918.055    4269.6005   -15187.655    107.84645   -632.06699   -367.24463   -580.86492   -11.733833    163.65427    15.668814      46.7237      46.7237      46.7237           90           90           90     102002.7   -526.72551 
  528000       527500    -9901.273    1002.4046   -10903.678    4295.1674   -15198.845    107.47394    73.836196   -308.68171   -636.58332    127.35652   -29.325656    87.615591      46.7237      46.7237      46.7237           90           90           90     102002.7   -290.47628 
  529000       528500   -9926.8574    1001.5789   -10928.436    4274.7969   -15203.233    107.38542   -637.94452   -269.30134   -833.50478   -30.002456    220.20897    268.87389      46.7237      46.7237      46.7237           90           90           90     102002.7   -580.25021 
  530000       529500   -9903.4655     1027.152   -10930.618    4287.1148   -15217.732    110.12727   -610.90082   -385.76728   -182.22646    132.54534    101.15459   -119.28817      46.7237      46.7237      46.7237           90           90           90     102002.7   -392.96485 
  531000       530500   -9896.3236    1019.7902   -10916.114    4279.6585   -15195.772    109.33796   -807.70553   -518.88991   -573.63775   -55.558467   -56.687315    104.21571      46.7237      46.7237      46.7237           90           90           90     102002.7   -633.41106 
  532000       531500   -9879.3732    1018.0274   -10897.401    4281.8429   -15179.243    109.14896   -821.75799   -790.92685   -908.29206    245.37302   -65.248078    38.717646      46.7237      46.7237      46.7237           90           90           90     102002.7   -840.32563 
  533000       532500   -9882.7304    1026.4826   -10909.213    4287.5999   -15196.813     110.0555   -485.10997   -996.95943   -282.91228   -96.047173   -119.79973    -245.2545      46.7237      46.7237      46.7237           90           90           90     102002.7   -588.32723 
  534000       533500   -9900.6849    1026.5077   -10927.193    4277.3739   -15204.567    110.05818    -629.3022   -567.93161   -726.00291    314.87786    -142.7707    79.197104      46.7237      46.7237      46.7237           90           90           90     102002.7   -641.07891 
  535000       534500   -9892.1795    1037.9525   -10930.132    4293.0874   -15223.219    111.28525   -672.85403   -871.48464   -879.25535    228.07028   -32.515756   -29.932998      46.7237      46.7237      46.7237           90           90           90     102002.7   -807.86468 
  536000       535500   -9885.6582    1018.5455   -10904.204    4294.9548   -15199.159    109.20451   -863.61856   -360.18838   -343.56565     25.59395    12.119986    45.738302      46.7237      46.7237      46.7237           90           90           90     102002.7   -522.45753 
  537000       536500   -9918.3104    1019.0486   -10937.359    4292.8456   -15230.205    109.25845   -855.39919   -864.31787   -523.81523    46.166923    73.788556    98.767447      46.7237      46.7237      46.7237           90           90           90     102002.7    -747.8441 
  538000       537500   -9877.5355    1040.1102   -10917.646    4289.5827   -15207.228    111.51659   -537.11231   -476.95321   -977.16183    52.415337   -170.31357    13.477632      46.7237      46.7237      46.7237           90           90           90     102002.7   -663.74245 
  539000       538500   -9875.9256     1054.526   -10930.452    4268.9438   -15199.395     113.0622   -437.11064   -655.63192   -736.40163    143.91518   -371.82121     52.53325      46.7237      46.7237      46.7237           90           90           90     102002.7   -609.71473 
  540000       539500   -9912.6959     1025.478   -10938.174     4260.653   -15198.827    109.94778   -929.52512   -622.45336   -926.44173    210.81099    196.30122   -243.40485      46.7237      46.7237      46.7237           90           90           90     102002.7   -826.14007 
  541000       540500   -9948.0655     1008.854   -10956.919    4264.2802     -15221.2    108.16542   -264.64107   -586.36203   -451.54231    268.94038    52.365942   -30.979942      46.7237      46.7237      46.7237           90           90           90     102002.7    -434.1818 
  542000       541500   -9898.1691    1027.8171   -10925.986    4270.2299   -15196.216    110.19857   -477.13016   -507.54779   -561.89686     118.1996    -221.4263   -9.1967092      46.7237      46.7237      46.7237           90           90           90     102002.7   -515.52494 
  543000       542500   -9871.6369    1047.7479   -10919.385    4281.2005   -15200.585    112.33547   -330.83771   -630.61229   -437.44921    198.85155   -13.972294   -214.16321      46.7237      46.7237      46.7237           90           90           90     102002.7   -466.29974 
  544000       543500   -9882.0133    1023.9001   -10905.913    4291.8694   -15197.783    109.77861     -251.239    -625.8796   -385.59057    31.273208   -63.859589   -14.250023      46.7237      46.7237      46.7237           90           90           90     102002.7   -420.90306 
  545000       544500   -9871.3393    1029.1118   -10900.451     4290.352   -15190.803    110.33739   -301.46176   -72.434505   -316.56895    93.466736    55.649684    34.338538      46.7237      46.7237      46.7237           90           90           90     102002.7   -230.15507 
  546000       545500   -9942.2002    1006.5077   -10948.708    4253.0854   -15201.793    107.91386     -525.219   -459.26743   -599.02121    180.82036   -35.980432   -39.134569      46.7237      46.7237      46.7237           90           90           90     102002.7   -527.83588 
  547000       546500   -9886.0818    1022.3037   -10908.386    4297.0856   -15205.471    109.60745   -281.25876   -493.69539    -397.4103   -69.856156    175.34067    -4.872588      46.7237      46.7237      46.7237           90           90           90     102002.7   -390.78815 
  548000       547500   -9879.8849    1035.5726   -10915.458    4281.1995   -15196.657    111.03008   -744.28084   -352.02399   -642.64284    29.044379    184.70706   -150.11033      46.7237      46.7237      46.7237           90           90           90     102002.7   -579.64922 
  549000       548500    -9898.171     1023.324   -10921.495    4254.9184   -15176.413    109.71684   -230.31796   -715.90911   -671.20661   -50.372375   -10.310798    75.945871      46.7237      46.7237      46.7237           90           90           90     102002.7   -539.14456 
  550000       549500   -9905.4317    1032.4894   -10937.921    4262.2327   -15200.154    110.69952   -977.01531   -858.03821   -124.75841    27.212812    221.78672   -198.50239      46.7237      46.7237      46.7237           90           90           90     102002.7   -653.27065 
  551000       550500   -9870.9379    1037.3118    -10908.25    4257.0503     -15165.3    111.21656   -642.70448   -579.66433   -479.76575    149.03736   -385.92848    56.317702      46.7237      46.7237      46.7237           90           90           90     102002.7   -567.37819 
  552000       551500   -9907.6106    1003.7142   -10911.325      4278.48   -15189.805    107.61435   -65.669634   -615.80712   -714.79562   -45.474017    33.434697   -194.47591      46.7237      46.7237      46.7237           90           90           90     102002.7   -465.42413 
  553000       552500   -9891.8155    1019.2685   -10911.084     4266.595   -15177.679    109.28202    -932.7048   -205.97638   -638.08732    284.91937   -4.5338555   -75.897594      46.7237      46.7237      46.7237           90           90           90     102002.7   -592.25617 
  554000       553500   -9910.2466    1002.3041   -10912.551     4290.838   -15203.389    107.46317    -806.5242   -949.95793   -669.30349    -85.04166    94.705407   -161.24381      46.7237      46.7237      46.7237           90           90           90     102002.7   -808.59521 
  555000       554500   -9881.5916    1018.4638   -10900.055    4291.8072   -15191.863    109.19575    -1132.463    -496.8689   -563.25788    66.306233    100.69346   -211.53656      46.7237      46.7237      46.7237           90           90           90     102002.7   -730.86325 
[...]
  936000       935500   -9873.8606    1024.9783   -10898.839    4280.6614     -15179.5     109.8942   -227.84714   -447.15744   -348.52168   -245.51761   -60.476584    33.692992      46.7237      46.7237      46.7237           90           90           90     102002.7   -341.17542 
  937000       936500    -9907.401    1013.8428   -10921.244    4265.5073   -15186.751     108.7003   -404.47269   -818.15079   -757.19892     88.77728   -86.576211     100.9675      46.7237      46.7237      46.7237           90           90           90     102002.7    -659.9408 
  938000       937500   -9940.7762    1010.5125   -10951.289    4251.4543   -15202.743    108.34324   -987.02647   -450.00022    -241.9316    116.18223   -155.44465   -28.318868      46.7237      46.7237      46.7237           90           90           90     102002.7   -559.65277 
  939000       938500   -9884.0898    1043.3357   -10927.426    4267.7842    -15195.21    111.86242   -336.72541   -901.46146   -246.68027   -126.21924    141.07187   -40.462838      46.7237      46.7237      46.7237           90           90           90     102002.7   -494.95572 
  940000       939500   -9861.5905    1045.3594    -10906.95     4278.124   -15185.074    112.07939   -342.71621    -1034.942   -501.28518    60.975796   -115.56537    -49.01035      46.7237      46.7237      46.7237           90           90           90     102002.7   -626.31447 
  941000       940500   -9848.7617    1033.2949   -10882.057    4300.5882   -15182.645    110.78588   -697.27767   -358.37504   -732.19616    121.17609    176.86627   -327.68898      46.7237      46.7237      46.7237           90           90           90     102002.7   -595.94962 
  942000       941500   -9889.6536    1005.5392   -10895.193     4277.015   -15172.208    107.81002   -1.8424197   -910.72142   -624.59988    25.479427   -175.71766    71.790017      46.7237      46.7237      46.7237           90           90           90     102002.7    -512.3879 
  943000       942500   -9895.2319    1012.6582    -10907.89    4287.7906   -15195.681     108.5733   -290.26229   -612.70093   -695.09801    40.167219   -78.327253   -130.39811      46.7237      46.7237      46.7237           90           90           90     102002.7   -532.68708 
  944000       943500   -9908.8087    1032.4267   -10941.235    4263.4015   -15204.637     110.6928   -651.80727   -1020.1241   -942.43381   -49.353806   -13.441456   -17.518066      46.7237      46.7237      46.7237           90           90           90     102002.7   -871.45505 
  945000       944500   -9912.0683    1026.0027   -10938.071     4261.431   -15199.502    110.00404   -907.84434   -749.26959   -534.28999    237.60476    70.984969   -48.162508      46.7237      46.7237      46.7237           90           90           90     102002.7   -730.46797 
  946000       945500   -9871.1869    1029.2474   -10900.434    4287.1178   -15187.552    110.35193   -631.58264   -702.76394   -681.20645    218.35287    -8.640105   -164.18606      46.7237      46.7237      46.7237           90           90           90     102002.7   -671.85101 
  947000       946500   -9887.6732      1016.23   -10903.903    4262.8771    -15166.78    108.95625   -419.81586   -857.47484   -446.57572   -117.12233   -23.625171   -33.119535      46.7237      46.7237      46.7237           90           90           90     102002.7   -574.62214 
  948000       947500   -9852.4186    1057.2272   -10909.646    4278.3872   -15188.033    113.35181   -113.00022   -654.29674   -610.53929   -88.704925   -113.64133    275.51991      46.7237      46.7237      46.7237           90           90           90     102002.7   -459.27875 
  949000       948500   -9904.4647    1008.1089   -10912.574    4266.4584   -15179.032    108.08553   -612.01699    -729.9938   -695.51056   -147.99501    461.04222    100.21403      46.7237      46.7237      46.7237           90           90           90     102002.7   -679.17378 
  950000       949500   -9890.3469     1040.341   -10930.688    4265.6959   -15196.384    111.54133   -575.39385   -734.23134    -220.8048   -152.48984    177.43831    18.276313      46.7237      46.7237      46.7237           90           90           90     102002.7   -510.14333 
  951000       950500    -9908.009     1022.869   -10930.878    4248.0686   -15178.947    109.66806   -540.34447   -196.46489    -945.1782    79.175594    152.22142    65.520768      46.7237      46.7237      46.7237           90           90           90     102002.7   -560.66252 
  952000       951500   -9877.4527    1030.5975    -10908.05    4287.0311   -15195.081    110.49668   -501.98275   -460.10091   -700.53437   -126.93974   -159.73589    153.25101      46.7237      46.7237      46.7237           90           90           90     102002.7   -554.20601 
  953000       952500   -9902.8247    1017.8916   -10920.716    4249.6944   -15170.411     109.1344   -342.87238   -381.38875   -393.61752    75.111374    119.29595   -151.38436      46.7237      46.7237      46.7237           90           90           90     102002.7   -372.62622 
  954000       953500   -9878.3737    1046.3381   -10924.712     4267.767   -15192.479    112.18432   -338.57427   -410.43224   -266.10617    77.724644    25.327633   -159.30849      46.7237      46.7237      46.7237           90           90           90     102002.7    -338.3709 
  955000       954500   -9884.7217    1013.8948   -10898.617     4265.246   -15163.863    108.70588   -182.68838   -46.463173   -442.09326    24.728583    88.502475    14.801743      46.7237      46.7237      46.7237           90           90           90     102002.7   -223.74827 
  956000       955500   -9910.9239    1016.2263    -10927.15    4272.4291   -15199.579    108.95585   -827.64821    -405.0202   -602.14563    177.12149     152.5833   -112.15063      46.7237      46.7237      46.7237           90           90           90     102002.7   -611.60468 
  957000       956500   -9894.3605    1032.3196    -10926.68    4271.0779   -15197.758    110.68131   -703.55699   -388.87378   -864.12661    281.66633   -113.44144   -113.90061      46.7237      46.7237      46.7237           90           90           90     102002.7   -652.18579 
  958000       957500   -9862.4227    1027.0477    -10889.47    4282.8182   -15172.289    110.11609    -706.9214   -906.49996   -104.41071   -82.931361    -101.9201    84.691955      46.7237      46.7237      46.7237           90           90           90     102002.7   -572.61069 
  959000       958500   -9911.2086    1021.1562   -10932.365    4248.9859   -15181.351    109.48441   -779.93934   -698.26481   -462.32832   -143.54342   -81.263737   -306.67436      46.7237      46.7237      46.7237           90           90           90     102002.7   -646.84416 
  960000       959500   -9909.1232    1010.7332   -10919.856    4264.7737    -15184.63    108.36691   -314.99304   -341.19157   -301.14761   -45.165379    160.98705   -41.371762      46.7237      46.7237      46.7237           90           90           90     102002.7   -319.11074 
  961000       960500   -9889.1387    1027.3223   -10916.461    4271.2054   -15187.666    110.14553   -699.28084   -667.66046   -15.560117    56.789791      207.153   -42.875921      46.7237      46.7237      46.7237           90           90           90     102002.7   -460.83381 
  962000       961500   -9870.1685    1009.4461   -10879.615    4283.3874   -15163.002    108.22891   -143.88567    -794.0519   -767.39754   -17.190807   -22.959346    103.40997      46.7237      46.7237      46.7237           90           90           90     102002.7   -568.44504 
  963000       962500   -9880.7714    1045.5323   -10926.304    4266.4991   -15192.803    112.09792   -833.43886   -453.56588   -297.57345   -15.035117   -134.72621    85.098204      46.7237      46.7237      46.7237           90           90           90     102002.7   -528.19273 
  964000       963500   -9931.7091    996.08172   -10927.791    4265.2304   -15193.021    106.79603   -443.93625   -453.88907   -951.91742   -289.13179   -179.59759     -81.5525      46.7237      46.7237      46.7237           90           90           90     102002.7   -616.58091 
  965000       964500   -9909.1347    1030.7177   -10939.852    4267.0507   -15206.903    110.50956   -806.66648   -1151.8439   -301.11779    22.545103   -238.63987    116.78763      46.7237      46.7237      46.7237           90           90           90     102002.7   -753.20938 
  966000       965500   -9865.1763    1051.6367   -10916.813    4290.5973    -15207.41    112.75242   -602.87657   -470.98637   -443.46788   -98.747366   -30.243485    -134.0612      46.7237      46.7237      46.7237           90           90           90     102002.7   -505.77694 
  967000       966500   -9876.2187    1025.0404   -10901.259     4295.452   -15196.711    109.90086   -1258.9802   -661.09179   -405.91411    262.76928    24.933451    -158.4228      46.7237      46.7237      46.7237           90           90           90     102002.7   -775.32869 
  968000       967500   -9870.9029    1039.2884   -10910.191      4270.52   -15180.711    111.42849   -111.97448   -493.53141   -505.56989    298.21883    -78.23876   -89.771933      46.7237      46.7237      46.7237           90           90           90     102002.7   -370.35859 
  969000       968500   -9928.4233    1007.0361   -10935.459    4259.1099   -15194.569    107.97052   -626.93427   -557.01739   -488.91999   -298.89036    -66.31028    72.876187      46.7237      46.7237      46.7237           90           90           90     102002.7   -557.62388 
  970000       969500   -9877.3827    1034.7243   -10912.107    4278.3037   -15190.411    110.93914   -291.99815   -658.06311   -187.96761    68.224444   -27.445675     97.80863      46.7237      46.7237      46.7237           90           90           90     102002.7   -379.34296 
  971000       970500   -9876.4991     1038.988   -10915.487    4265.9825    -15181.47    111.39627   -652.14506   -579.20339   -128.74608    199.48052    120.86423   -17.981119      46.7237      46.7237      46.7237           90           90           90     102002.7   -453.36484 
  972000       971500   -9896.2275    1016.1332   -10912.361    4282.5788    -15194.94    108.94587   -1184.3375   -174.90022   -287.15632    109.97689    186.15868   -24.418672      46.7237      46.7237      46.7237           90           90           90     102002.7     -548.798 
  973000       972500    -9884.553    1029.2168    -10913.77    4274.6065   -15188.376    110.34864   -238.85445     -672.471   -416.37742    211.05999    48.921082  -0.54543014      46.7237      46.7237      46.7237           90           90           90     102002.7   -442.56762 
  974000       973500   -9839.3122    1042.2318   -10881.544    4283.7769   -15165.321    111.74406   -599.77658   -579.67434   -200.04652    176.21543    151.28584   -21.573188      46.7237      46.7237      46.7237           90           90           90     102002.7   -459.83248 
  975000       974500   -9875.4021    1030.0782    -10905.48    4280.9523   -15186.433      110.441   -313.65744   -409.68743   -433.99102   -20.228963    39.641705    22.562542      46.7237      46.7237      46.7237           90           90           90     102002.7   -385.77863 
  976000       975500   -9859.0716    1032.8854   -10891.957    4298.7312   -15190.688    110.74197   -470.02209   -374.88818   -477.59421    296.62648    129.20863   -195.12134      46.7237      46.7237      46.7237           90           90           90     102002.7   -440.83483 
  977000       976500   -9897.5991    1021.0331   -10918.632     4278.151   -15196.783    109.47122   -315.72133   -99.385568   -920.64023   -84.426806    258.20153    95.820073      46.7237      46.7237      46.7237           90           90           90     102002.7   -445.24904 
  978000       977500    -9876.578    1035.8265   -10912.404    4254.4931   -15166.898    111.05731   -470.77544   -783.81727   -234.57876    -127.9795   -225.33806     -196.426      46.7237      46.7237      46.7237           90           90           90     102002.7   -496.39049 
  979000       978500   -9875.4215    1047.1723   -10922.594    4269.9585   -15192.552    112.27377   -727.89474   -780.00119   -966.10954    107.13249   -488.56208    19.122441      46.7237      46.7237      46.7237           90           90           90     102002.7   -824.66849 
  980000       979500   -9898.3791    1030.4401   -10928.819    4245.1283   -15173.947     110.4798   -196.43937   -704.91783   -343.83537     150.9694    -234.4151    373.15787      46.7237      46.7237      46.7237           90           90           90     102002.7   -415.06419 
  981000       980500   -9857.7518    1040.2179    -10897.97    4246.1943   -15144.164    111.52814   -1040.0393   -587.30898   -864.76064    28.389142    -162.5414    210.55065      46.7237      46.7237      46.7237           90           90           90     102002.7   -830.70297 
  982000       981500   -9895.0978      1024.61   -10919.708    4279.5967   -15199.304    109.85472   -869.31326   -566.91243   -288.40403   -43.814205    35.698166   -110.31745      46.7237      46.7237      46.7237           90           90           90     102002.7   -574.87658 
  983000       982500   -9920.2347    1012.5455    -10932.78    4257.9031   -15190.683    108.56121   -190.74123   -933.31705    -518.7724   -45.572146   -58.723281   -80.950144      46.7237      46.7237      46.7237           90           90           90     102002.7   -547.61023 
  984000       983500    -9917.266     1014.766   -10932.032     4249.153   -15181.185    108.79929   -628.21341   -202.62313   -527.13315     65.35741   -101.61182   -67.131371      46.7237      46.7237      46.7237           90           90           90     102002.7   -452.65656 
  985000       984500   -9871.6337    1049.9841   -10921.618    4251.2095   -15172.827    112.57523   -136.86236   -1017.0258   -415.22698   -134.31329    25.393933    39.436534      46.7237      46.7237      46.7237           90           90           90     102002.7   -523.03838 
  986000       985500    -9876.665    1050.1036   -10926.769    4251.7918    -15178.56    112.58804    -667.8811    -6.675096   -825.54048   -126.27265   -24.966713    214.85728      46.7237      46.7237      46.7237           90           90           90     102002.7   -500.03223 
  987000       986500   -9912.0043    1016.0311   -10928.035    4259.6662   -15187.702    108.93492   -819.74882   -354.00346   -782.03727    4.6659771   -55.906567   -27.448674      46.7237      46.7237      46.7237           90           90           90     102002.7   -651.92985 
  988000       987500   -9868.1181    1057.6344   -10925.753     4266.824   -15192.577    113.39547   -572.26911   -505.18963   -174.95988    60.649375   -133.06951    5.6217387      46.7237      46.7237      46.7237           90           90           90     102002.7   -417.47287 
  989000       988500   -9846.0194    1044.9415   -10890.961    4293.9039   -15184.865    112.03458    -783.5976   -671.55234   -574.56514    216.56821    51.856325    201.91698      46.7237      46.7237      46.7237           90           90           90     102002.7   -676.57169 
  990000       989500   -9902.2907    1011.2413   -10913.532     4261.857   -15175.389    108.42138   -540.75137   -727.83089   -179.37235   -85.090836    187.91889   -404.14923      46.7237      46.7237      46.7237           90           90           90     102002.7   -482.65154 
  991000       990500   -9886.1944    1011.6535   -10897.848    4259.0409   -15156.889    108.46557   -420.03337   -196.36919   -347.79331     202.2326    12.876808   -54.575825      46.7237      46.7237      46.7237           90           90           90     102002.7   -321.39863 
  992000       991500   -9864.0484    1044.6737   -10908.722    4267.8974    -15176.62    112.00588   -612.92952   -814.90074   -671.39161   -104.93179    30.036231    102.41953      46.7237      46.7237      46.7237           90           90           90     102002.7   -699.74062 
  993000       992500   -9917.8176    1007.5022    -10925.32    4293.0363   -15218.356    108.02049   -825.96034   -368.99482   -735.54875   -129.66248   -43.377804    179.02568      46.7237      46.7237      46.7237           90           90           90     102002.7   -643.50131 
  994000       993500   -9896.3943    1026.5507   -10922.945    4271.0821   -15194.027    110.06279   -770.49249   -283.27394   -713.97723   -202.04617   -159.52387   -108.44551      46.7237      46.7237      46.7237           90           90           90     102002.7   -589.24789 
  995000       994500   -9901.2928    1018.1116   -10919.404    4251.6954     -15171.1    109.15799   -591.52362   -257.11668   -416.89613   -302.75959    4.2906388    46.073966      46.7237      46.7237      46.7237           90           90           90     102002.7   -421.84548 
  996000       995500   -9853.5256    1042.8551   -10896.381    4281.2072   -15177.588    111.81089   -606.74034    127.50591   -618.83191    -161.1407   -67.940605   -21.167905      46.7237      46.7237      46.7237           90           90           90     102002.7   -366.02211 
  997000       996500   -9905.2606    1028.7153   -10933.976    4244.9414   -15178.917    110.29488   -888.13988   -86.521461    328.33641   -35.655791   -183.47612    78.226178      46.7237      46.7237      46.7237           90           90           90     102002.7   -215.44164 
  998000       997500   -9903.4825    1031.2211   -10934.704    4260.7064    -15195.41    110.56354   -381.70393   -755.17364    -588.1947    2.7695085   -81.675213    -28.52364      46.7237      46.7237      46.7237           90           90           90     102002.7   -575.02409 
  999000       998500   -9898.1982    1020.3928   -10918.591    4265.9513   -15184.542    109.40257   -977.12513   -683.35452   -402.24148    191.23365    108.37731   -173.78852      46.7237      46.7237      46.7237           90           90           90     102002.7   -687.57371 
 1000000       999500   -9862.8899    1042.8522   -10905.742    4277.6969   -15183.439    111.81058   -743.88116   -750.01499   -655.14051     38.74434   -226.60171    126.36455      46.7237      46.7237      46.7237           90           90           90     102002.7   -716.34555 
 1000500      1000000   -9897.0761    1036.2134   -10933.289    4264.3946   -15197.684    111.09879   -375.57402   -426.06741   -535.32855    -52.43749   -18.042985    121.10246      46.7237      46.7237      46.7237           90           90           90     102002.7   -445.65666 
Loop time of 940.647 on 24 procs for 500000 steps with 3130 atoms

Performance: 45.926 ns/day, 0.523 hours/ns, 531.549 timesteps/s
98.0% CPU use with 24 MPI tasks x no OpenMP threads

MPI task timing breakdown:
Section |  min time  |  avg time  |  max time  |%varavg| %total
---------------------------------------------------------------
Pair    | 458.91     | 554.76     | 644.41     | 207.9 | 58.98
Bond    | 55.671     | 82.871     | 117.37     | 194.5 |  8.81
Neigh   | 7.4487     | 7.4704     | 7.4862     |   0.5 |  0.79
Comm    | 176.11     | 271.06     | 384.53     | 357.4 | 28.82
Output  | 0.54527    | 0.59185    | 0.59403    |   1.3 |  0.06
Modify  | 13.09      | 13.441     | 14.117     |   7.9 |  1.43
Other   |            | 10.44      |            |       |  1.11

Nlocal:    130.417 ave 163 max 110 min
Histogram: 2 5 4 3 2 3 2 0 1 2
Nghost:    3482.71 ave 3604 max 3405 min
Histogram: 3 8 4 1 0 0 0 2 3 3
Neighs:    7639 ave 9724 max 4279 min
Histogram: 1 1 2 1 2 3 4 2 5 3

Total # of neighbors = 183336
Ave neighs/atom = 58.5738
Ave special neighs/atom = 3.68051
Neighbor list builds = 4714
Dangerous builds = 0
Total wall time: 0:29:24
