LAMMPS (30 Mar 2018)
Reading data file ...
  orthogonal box = (0 0 0) to (46.7237 46.7237 46.7237)
  2 by 2 by 4 MPI processor grid
  reading atoms ...
  1882 atoms
  scanning bonds ...
  5 = max bonds/atom
  scanning angles ...
  10 = max angles/atom
  scanning dihedrals ...
  32 = max dihedrals/atom
  scanning impropers ...
  3 = max impropers/atom
  reading bonds ...
  2064 bonds
  reading angles ...
  3696 angles
  reading dihedrals ...
  6240 dihedrals
  reading impropers ...
  1008 impropers
Finding 1-2 1-3 1-4 neighbors ...
  special bond factors lj:   0          0          0         
  special bond factors coul: 0          0          0         
  5 = max # of 1-2 neighbors
  8 = max # of 1-3 neighbors
  20 = max # of 1-4 neighbors
  19 = max # of special neighbors
Finding 1-2 1-3 1-4 neighbors ...
  special bond factors lj:   0          0          1         
  special bond factors coul: 1          1          1         
  5 = max # of 1-2 neighbors
  8 = max # of 1-3 neighbors
  19 = max # of special neighbors
WARNING: Using 'neigh_modify every 1 delay 0 check yes' setting during minimization (../min.cpp:168)
Neighbor list info ...
  update every 1 steps, delay 0 steps, check yes
  max neighbors/atom: 2000, page size: 100000
  master list distance cutoff = 16
  ghost atom cutoff = 16
  binsize = 8, bins = 6 6 6
  3 neighbor lists, perpetual/occasional/extra = 3 0 0
  (1) pair buck6d/coul/gauss/dsf, perpetual, skip from (3)
      attributes: half, newton on
      pair build: skip
      stencil: none
      bin: none
  (2) pair lj/cut, perpetual, skip from (3)
      attributes: half, newton on
      pair build: skip
      stencil: none
      bin: none
  (3) neighbor class addition, perpetual
      attributes: half, newton on
      pair build: half/bin/newton
      stencil: half/bin/3d/newton
      bin: standard
Setting up cg style minimization ...
  Unit style    : real
  Current step  : 0
WARNING: Inconsistent image flags (../domain.cpp:786)
Per MPI rank memory allocation (min/avg/max) = 22.9 | 23.36 | 23.8 Mbytes
Step Temp E_pair E_mol TotEng Press 
       0            0   -11946.673    6482.8914   -5463.7819    6137.3507 
     503            0   -12025.224    3729.3069   -8295.9167   -610.00022 
Loop time of 2.9095 on 16 procs for 503 steps with 1882 atoms

99.8% CPU use with 16 MPI tasks x no OpenMP threads

Minimization stats:
  Stopping criterion = max force evaluations
  Energy initial, next-to-last, final = 
        -5463.78185807     -8295.86325939     -8295.91665774
  Force two-norm initial, final = 2576.48 11.4549
  Force max component initial, final = 152.272 1.73671
  Final line search alpha, max atom move = 0.00386158 0.00670642
  Iterations, force evaluations = 503 1000

MPI task timing breakdown:
Section |  min time  |  avg time  |  max time  |%varavg| %total
---------------------------------------------------------------
Pair    | 1.2373     | 1.6944     | 2.0756     |  19.7 | 58.24
Bond    | 0.29242    | 0.36032    | 0.43002    |   6.9 | 12.38
Neigh   | 0.019627   | 0.019734   | 0.019849   |   0.1 |  0.68
Comm    | 0.41946    | 0.78637    | 1.2438     |  28.3 | 27.03
Output  | 0          | 0          | 0          |   0.0 |  0.00
Modify  | 0          | 0          | 0          |   0.0 |  0.00
Other   |            | 0.04871    |            |       |  1.67

Nlocal:    117.625 ave 143 max 100 min
Histogram: 3 0 4 1 2 2 2 1 0 1
Nghost:    2334.25 ave 2350 max 2313 min
Histogram: 2 1 1 1 1 0 3 3 1 3
Neighs:    11456.2 ave 14828 max 7620 min
Histogram: 4 0 1 1 1 1 2 2 1 3

Total # of neighbors = 183300
Ave neighs/atom = 97.3964
Ave special neighs/atom = 6.12115
Neighbor list builds = 14
Dangerous builds = 0
Neighbor list info ...
  update every 1 steps, delay 10 steps, check yes
  max neighbors/atom: 2000, page size: 100000
  master list distance cutoff = 16
  ghost atom cutoff = 16
  binsize = 8, bins = 6 6 6
  3 neighbor lists, perpetual/occasional/extra = 3 0 0
  (1) pair buck6d/coul/gauss/dsf, perpetual, skip from (3)
      attributes: half, newton on
      pair build: skip
      stencil: none
      bin: none
  (2) pair lj/cut, perpetual, skip from (3)
      attributes: half, newton on
      pair build: skip
      stencil: none
      bin: none
  (3) neighbor class addition, perpetual
      attributes: half, newton on
      pair build: half/bin/newton
      stencil: half/bin/3d/newton
      bin: standard
Setting up Verlet run ...
  Unit style    : real
  Current step  : 503
  Time step     : 1
WARNING: Inconsistent image flags (../domain.cpp:786)
Per MPI rank memory allocation (min/avg/max) = 22.55 | 22.62 | 22.68 Mbytes
Step Temp PotEng TotEng Press Volume Lx Ly Lz 
     503          130   -8295.9167   -7567.0192   -283.34649     102002.7      46.7237      46.7237      46.7237 
    1000    116.83206   -7670.5854   -7015.5193   -936.00741     102002.7      46.7237      46.7237      46.7237 
    2000    136.07999   -7544.3231   -6781.3357    -850.4906     102002.7      46.7237      46.7237      46.7237 
    3000    126.40495   -7507.1818   -6798.4414   -938.36516     102002.7      46.7237      46.7237      46.7237 
    4000    129.71829   -7559.8093   -6832.4913   -657.12168     102002.7      46.7237      46.7237      46.7237 
    5000    131.77403   -7524.3566   -6785.5123   -909.04251     102002.7      46.7237      46.7237      46.7237 
    6000    131.62388   -7542.9697   -6804.9672    -900.6781     102002.7      46.7237      46.7237      46.7237 
    7000    128.61579    -7542.344   -6821.2076   -501.49716     102002.7      46.7237      46.7237      46.7237 
    8000    130.50098   -7534.9451   -6803.2386   -909.06221     102002.7      46.7237      46.7237      46.7237 
    9000     127.3129   -7511.8621   -6798.0309   -851.17543     102002.7      46.7237      46.7237      46.7237 
   10000    130.79164   -7578.9414   -6845.6052   -799.01147     102002.7      46.7237      46.7237      46.7237 
   11000    132.21028   -7549.3591   -6808.0688   -735.84192     102002.7      46.7237      46.7237      46.7237 
   12000    127.23079   -7546.2392   -6832.8684   -548.33651     102002.7      46.7237      46.7237      46.7237 
   13000    131.44598    -7520.429   -6783.4241   -999.23218     102002.7      46.7237      46.7237      46.7237 
   14000    131.27542   -7555.9005   -6819.8518   -720.75887     102002.7      46.7237      46.7237      46.7237 
   15000    134.24458   -7554.9665   -6802.2701   -800.81198     102002.7      46.7237      46.7237      46.7237 
   16000    133.04062   -7546.4335   -6800.4875   -1171.6376     102002.7      46.7237      46.7237      46.7237 
   17000     131.5907   -7518.9615   -6781.1452    -867.9974     102002.7      46.7237      46.7237      46.7237 
   18000    128.53654   -7534.0302   -6813.3382   -937.46473     102002.7      46.7237      46.7237      46.7237 
   19000    129.67085   -7538.3958   -6811.3438   -776.31788     102002.7      46.7237      46.7237      46.7237 
   20000     130.4967   -7536.3324     -6804.65   -637.26598     102002.7      46.7237      46.7237      46.7237 
   21000    125.96915   -7536.1219    -6829.825   -819.09055     102002.7      46.7237      46.7237      46.7237 
   22000    126.98536    -7499.056   -6787.0613   -903.66678     102002.7      46.7237      46.7237      46.7237 
   23000    133.03843   -7541.0327    -6795.099   -786.76955     102002.7      46.7237      46.7237      46.7237 
   24000    127.20525   -7524.1293   -6810.9017   -702.47705     102002.7      46.7237      46.7237      46.7237 
   25000    125.53329   -7542.3147   -6838.4616   -734.07796     102002.7      46.7237      46.7237      46.7237 
   26000     130.2883    -7524.147    -6793.633   -870.31688     102002.7      46.7237      46.7237      46.7237 
   27000    133.78604   -7538.6248   -6788.4994   -587.29392     102002.7      46.7237      46.7237      46.7237 
   28000    129.67129   -7544.6531   -6817.5987    -779.0867     102002.7      46.7237      46.7237      46.7237 
   29000    126.97801   -7546.8253   -6834.8718   -341.92917     102002.7      46.7237      46.7237      46.7237 
   30000    131.05072    -7545.023   -6810.2342   -771.37794     102002.7      46.7237      46.7237      46.7237 
   31000    126.76751   -7552.8828   -6842.1095   -729.58671     102002.7      46.7237      46.7237      46.7237 
   32000    130.92518   -7523.8621   -6789.7772   -806.41897     102002.7      46.7237      46.7237      46.7237 
   33000    128.44036   -7533.8964   -6813.7437   -762.94251     102002.7      46.7237      46.7237      46.7237 
   34000    125.80662   -7538.7204   -6833.3348   -865.39993     102002.7      46.7237      46.7237      46.7237 
   35000    135.86759   -7534.2907   -6772.4942   -901.27553     102002.7      46.7237      46.7237      46.7237 
   36000    133.32998   -7546.1879   -6798.6196   -737.19852     102002.7      46.7237      46.7237      46.7237 
   37000    132.70474   -7536.5551   -6792.4924   -818.74248     102002.7      46.7237      46.7237      46.7237 
   38000    127.45249   -7525.4932   -6810.8794   -878.84603     102002.7      46.7237      46.7237      46.7237 
   39000    125.21993   -7528.7402   -6826.6441   -889.05218     102002.7      46.7237      46.7237      46.7237 
   40000    126.70112   -7511.8459   -6801.4449    -656.4137     102002.7      46.7237      46.7237      46.7237 
   41000    127.41604   -7523.3045    -6808.895   -962.12914     102002.7      46.7237      46.7237      46.7237 
   42000    132.39951   -7542.9295   -6800.5782   -1008.6833     102002.7      46.7237      46.7237      46.7237 
   43000    127.15408   -7548.0196   -6835.0789   -763.09521     102002.7      46.7237      46.7237      46.7237 
   44000    128.32246   -7503.9025   -6784.4108   -1222.1351     102002.7      46.7237      46.7237      46.7237 
   45000    131.20853   -7549.5044   -6813.8308   -608.58413     102002.7      46.7237      46.7237      46.7237 
   46000    129.14566   -7546.0174   -6821.9101   -867.02269     102002.7      46.7237      46.7237      46.7237 
   47000    130.56519   -7534.6403   -6802.5738   -901.76738     102002.7      46.7237      46.7237      46.7237 
   48000    129.81325    -7510.762   -6782.9116   -1154.8931     102002.7      46.7237      46.7237      46.7237 
   49000     132.5438   -7518.1866   -6775.0263   -869.20395     102002.7      46.7237      46.7237      46.7237 
   50000    133.58101   -7526.9549   -6777.9791   -972.88979     102002.7      46.7237      46.7237      46.7237 
   51000    128.08829   -7540.5315   -6822.3527   -741.02891     102002.7      46.7237      46.7237      46.7237 
   52000     130.3427   -7544.5795   -6813.7605   -453.93791     102002.7      46.7237      46.7237      46.7237 
   53000    132.16062   -7555.6084   -6814.5965   -1001.5894     102002.7      46.7237      46.7237      46.7237 
   54000    130.68102   -7568.3421   -6835.6262   -1119.2475     102002.7      46.7237      46.7237      46.7237 
   55000    128.53341   -7532.1987   -6811.5242   -1110.9505     102002.7      46.7237      46.7237      46.7237 
   56000    128.26315   -7559.7029   -6840.5438   -600.47068     102002.7      46.7237      46.7237      46.7237 
   57000     132.0405   -7523.2963   -6782.9579   -1136.6005     102002.7      46.7237      46.7237      46.7237 
   58000    128.20586   -7537.1144   -6818.2765   -1235.3885     102002.7      46.7237      46.7237      46.7237 
   59000    127.45438   -7541.0675   -6826.4431   -943.28064     102002.7      46.7237      46.7237      46.7237 
   60000    132.23337   -7556.4329   -6815.0132   -1208.8551     102002.7      46.7237      46.7237      46.7237 
   61000    129.60871   -7523.0665    -6796.363   -1021.6837     102002.7      46.7237      46.7237      46.7237 
   62000    127.21873   -7545.3292    -6832.026   -971.99562     102002.7      46.7237      46.7237      46.7237 
   63000    128.45657   -7542.5062   -6822.2626   -764.75046     102002.7      46.7237      46.7237      46.7237 
   64000    134.97768    -7527.102   -6770.2952   -628.92002     102002.7      46.7237      46.7237      46.7237 
   65000    127.54199   -7537.3437    -6822.228   -596.36755     102002.7      46.7237      46.7237      46.7237 
   66000    129.58576   -7560.0643   -6833.4894   -688.24235     102002.7      46.7237      46.7237      46.7237 
   67000     127.1247   -7530.9781   -6818.2022   -824.56968     102002.7      46.7237      46.7237      46.7237 
   68000    130.27806   -7557.1869   -6826.7304   -866.19689     102002.7      46.7237      46.7237      46.7237 
   69000    126.15513   -7528.8527    -6821.513   -988.92898     102002.7      46.7237      46.7237      46.7237 
   70000    129.22407   -7533.1512   -6808.6043   -943.17911     102002.7      46.7237      46.7237      46.7237 
   71000    129.78263   -7544.9087     -6817.23   -732.70384     102002.7      46.7237      46.7237      46.7237 
   72000    133.57195   -7549.1241    -6800.199    -968.1466     102002.7      46.7237      46.7237      46.7237 
   73000    131.93157   -7518.7803   -6779.0527   -1121.0276     102002.7      46.7237      46.7237      46.7237 
   74000     129.2937   -7524.7969   -6799.8596   -667.71224     102002.7      46.7237      46.7237      46.7237 
   75000    130.35478   -7535.9735   -6805.0868    -573.1082     102002.7      46.7237      46.7237      46.7237 
   76000    129.74286   -7558.8653   -6831.4096   -597.48791     102002.7      46.7237      46.7237      46.7237 
   77000    125.70338   -7537.5784   -6832.7717   -731.09334     102002.7      46.7237      46.7237      46.7237 
   78000    129.25063   -7529.1613   -6804.4654   -850.73247     102002.7      46.7237      46.7237      46.7237 
   79000    133.07481   -7560.1501   -6814.0124   -972.11224     102002.7      46.7237      46.7237      46.7237 
   80000    128.57706   -7565.1888   -6844.2696    -807.4304     102002.7      46.7237      46.7237      46.7237 
   81000    129.93047   -7524.3691   -6795.8615    -1109.665     102002.7      46.7237      46.7237      46.7237 
   82000    126.89448   -7546.2044   -6834.7192   -951.53504     102002.7      46.7237      46.7237      46.7237 
   83000    127.92831   -7532.2538   -6814.9721   -761.63742     102002.7      46.7237      46.7237      46.7237 
   84000    133.43422   -7512.1397   -6763.9869   -764.22257     102002.7      46.7237      46.7237      46.7237 
   85000    131.12259   -7532.5539   -6797.3622    -462.9889     102002.7      46.7237      46.7237      46.7237 
   86000    126.33904   -7538.7424   -6830.3716   -1023.9213     102002.7      46.7237      46.7237      46.7237 
   87000    130.62984   -7524.4022   -6791.9732   -804.18291     102002.7      46.7237      46.7237      46.7237 
   88000     126.0541   -7546.0168   -6839.2436   -852.04476     102002.7      46.7237      46.7237      46.7237 
   89000    132.09392   -7521.2164   -6780.5785   -490.45463     102002.7      46.7237      46.7237      46.7237 
   90000    129.99753   -7569.3444   -6840.4608   -340.54214     102002.7      46.7237      46.7237      46.7237 
   91000      130.511   -7521.6885   -6789.9259   -1007.9545     102002.7      46.7237      46.7237      46.7237 
   92000    129.15994   -7529.4621   -6805.2747   -631.22797     102002.7      46.7237      46.7237      46.7237 
   93000    131.38563   -7559.1734   -6822.5068   -1016.5074     102002.7      46.7237      46.7237      46.7237 
   94000    131.60222    -7511.495    -6773.614   -1071.4946     102002.7      46.7237      46.7237      46.7237 
   95000    128.41466    -7542.377   -6822.3683   -849.27715     102002.7      46.7237      46.7237      46.7237 
   96000    129.76114   -7541.4547   -6813.8965   -667.95737     102002.7      46.7237      46.7237      46.7237 
   97000    132.91696   -7558.1494   -6812.8968   -749.76997     102002.7      46.7237      46.7237      46.7237 
   98000    132.67322   -7532.1898   -6788.3038   -616.61229     102002.7      46.7237      46.7237      46.7237 
   99000    129.37213   -7551.2597   -6825.8826   -1014.8911     102002.7      46.7237      46.7237      46.7237 
  100000    132.99938   -7535.3991   -6789.6843   -673.48363     102002.7      46.7237      46.7237      46.7237 
  101000    132.65881   -7549.5458   -6805.7406   -850.09019     102002.7      46.7237      46.7237      46.7237 
  102000    128.24289   -7527.6318   -6808.5863   -794.62019     102002.7      46.7237      46.7237      46.7237 
  103000    128.92273   -7518.7219   -6795.8645     -729.628     102002.7      46.7237      46.7237      46.7237 
  104000    127.33765   -7557.8237   -6843.8538   -365.40968     102002.7      46.7237      46.7237      46.7237 
  105000    128.21531   -7523.9367   -6805.0458   -953.35278     102002.7      46.7237      46.7237      46.7237 
  106000    131.20447   -7522.2822   -6786.6314   -718.92392     102002.7      46.7237      46.7237      46.7237 
  107000    132.32171   -7541.3126   -6799.3975    -619.9105     102002.7      46.7237      46.7237      46.7237 
  108000    125.22043   -7536.9701   -6834.8712    -639.4429     102002.7      46.7237      46.7237      46.7237 
  109000    128.44448   -7518.9241   -6798.7483   -602.76471     102002.7      46.7237      46.7237      46.7237 
  110000    130.90391   -7510.3095   -6776.3439   -634.18905     102002.7      46.7237      46.7237      46.7237 
  111000    128.37113   -7528.3477   -6808.5831   -783.60802     102002.7      46.7237      46.7237      46.7237 
  112000    132.10732   -7528.5857   -6787.8727   -827.23225     102002.7      46.7237      46.7237      46.7237 
  113000     127.5803   -7546.1712   -6830.8408   -1012.7637     102002.7      46.7237      46.7237      46.7237 
  114000    131.63757   -7546.1035   -6808.0243   -1031.6214     102002.7      46.7237      46.7237      46.7237 
  115000    128.47276   -7511.0754    -6790.741   -729.52308     102002.7      46.7237      46.7237      46.7237 
  116000    133.37454   -7554.8215   -6807.0033   -1016.4978     102002.7      46.7237      46.7237      46.7237 
  117000    130.56603   -7531.8483   -6799.7771   -792.32284     102002.7      46.7237      46.7237      46.7237 
  118000    126.33573   -7529.9731   -6821.6208   -657.37394     102002.7      46.7237      46.7237      46.7237 
  119000    129.04367   -7517.1592   -6793.6238   -931.50579     102002.7      46.7237      46.7237      46.7237 
  120000    128.07302   -7542.5323   -6824.4392    -706.4634     102002.7      46.7237      46.7237      46.7237 
  121000    127.75403   -7514.8337   -6798.5291   -925.01943     102002.7      46.7237      46.7237      46.7237 
  122000    127.73471   -7542.5167   -6826.3205   -631.54556     102002.7      46.7237      46.7237      46.7237 
  123000    131.97328   -7519.7006   -6779.7391   -540.72881     102002.7      46.7237      46.7237      46.7237 
  124000    126.17155   -7539.0159   -6831.5842   -1044.6555     102002.7      46.7237      46.7237      46.7237 
  125000    131.82376   -7550.8645   -6811.7414   -995.78279     102002.7      46.7237      46.7237      46.7237 
  126000    126.22313   -7534.7236   -6827.0027   -833.83787     102002.7      46.7237      46.7237      46.7237 
  127000    127.11284   -7533.4508   -6820.7413   -769.35844     102002.7      46.7237      46.7237      46.7237 
  128000    130.44869   -7534.1941   -6802.7809   -806.20532     102002.7      46.7237      46.7237      46.7237 
  129000    136.81845   -7528.1807   -6761.0529   -602.61413     102002.7      46.7237      46.7237      46.7237 
  130000    128.83954   -7543.6976   -6821.3067   -551.44329     102002.7      46.7237      46.7237      46.7237 
  131000    129.50488   -7533.3839   -6807.2625   -885.31911     102002.7      46.7237      46.7237      46.7237 
  132000    132.30322   -7508.6265   -6766.8151   -383.35345     102002.7      46.7237      46.7237      46.7237 
  133000    131.03294   -7534.3845   -6799.6955   -949.28638     102002.7      46.7237      46.7237      46.7237 
  134000    127.54085   -7538.9725   -6823.8633   -709.46449     102002.7      46.7237      46.7237      46.7237 
  135000    131.00549   -7522.3058   -6787.7707   -837.73901     102002.7      46.7237      46.7237      46.7237 
  136000    126.02851    -7527.458   -6820.8283   -898.09201     102002.7      46.7237      46.7237      46.7237 
  137000    129.30793   -7547.1541    -6822.137   -583.50661     102002.7      46.7237      46.7237      46.7237 
  138000    131.03951   -7537.9921   -6803.2662   -1119.3163     102002.7      46.7237      46.7237      46.7237 
  139000    130.20833   -7539.7339   -6809.6683   -757.08091     102002.7      46.7237      46.7237      46.7237 
  140000    130.45502   -7551.3479   -6819.8991   -867.13113     102002.7      46.7237      46.7237      46.7237 
  141000     131.6645   -7533.7682   -6795.5381   -528.46785     102002.7      46.7237      46.7237      46.7237 
  142000    127.22709   -7552.0139   -6838.6638   -944.56926     102002.7      46.7237      46.7237      46.7237 
  143000    130.47225   -7531.7103    -6800.165   -922.15468     102002.7      46.7237      46.7237      46.7237 
  144000    129.65223   -7526.3152   -6799.3676   -1063.7821     102002.7      46.7237      46.7237      46.7237 
  145000    129.71034   -7566.8588   -6839.5855   -1078.7764     102002.7      46.7237      46.7237      46.7237 
  146000    132.58157    -7544.011   -6800.6389    -860.2891     102002.7      46.7237      46.7237      46.7237 
  147000    131.13382   -7583.2431   -6847.9884   -1122.1159     102002.7      46.7237      46.7237      46.7237 
  148000    125.70086   -7534.0355   -6829.2429   -1123.6479     102002.7      46.7237      46.7237      46.7237 
  149000    131.21384   -7539.5106   -6803.8072   -586.60678     102002.7      46.7237      46.7237      46.7237 
  150000    131.41855   -7547.7873   -6810.9361   -1012.8963     102002.7      46.7237      46.7237      46.7237 
  151000    131.57457   -7538.5185   -6800.7925    -787.9984     102002.7      46.7237      46.7237      46.7237 
  152000    130.35559   -7561.0143   -6830.1231      -1267.2     102002.7      46.7237      46.7237      46.7237 
  153000     129.1139    -7535.231   -6811.3018   -1006.0601     102002.7      46.7237      46.7237      46.7237 
  154000    132.26639   -7543.7451   -6802.1402   -788.49233     102002.7      46.7237      46.7237      46.7237 
  155000    125.39821   -7539.9917   -6836.8961   -959.93578     102002.7      46.7237      46.7237      46.7237 
  156000    128.17831   -7545.0152   -6826.3317   -1139.3766     102002.7      46.7237      46.7237      46.7237 
  157000    129.28331   -7514.1192   -6789.2401   -886.25434     102002.7      46.7237      46.7237      46.7237 
  158000    129.02908   -7495.7494   -6772.2958    -848.3635     102002.7      46.7237      46.7237      46.7237 
  159000    123.95095     -7532.83   -6837.8489   -905.99078     102002.7      46.7237      46.7237      46.7237 
  160000    129.94903    -7534.167   -6805.5553   -792.76328     102002.7      46.7237      46.7237      46.7237 
  161000    133.09722   -7538.6358   -6792.3725   -931.48742     102002.7      46.7237      46.7237      46.7237 
  162000    125.43966    -7554.806   -6851.4779   -1022.7281     102002.7      46.7237      46.7237      46.7237 
  163000    125.14585    -7523.945   -6822.2643   -1053.2571     102002.7      46.7237      46.7237      46.7237 
  164000    134.19951   -7539.1534   -6786.7096   -974.98681     102002.7      46.7237      46.7237      46.7237 
  165000     129.2757   -7541.0575   -6816.2211   -740.62014     102002.7      46.7237      46.7237      46.7237 
  166000    129.56975   -7565.6071    -6839.122    -882.6299     102002.7      46.7237      46.7237      46.7237 
  167000    130.51849   -7545.4787   -6813.6741    -746.4944     102002.7      46.7237      46.7237      46.7237 
  168000    130.18575   -7526.3175   -6796.3785   -831.35038     102002.7      46.7237      46.7237      46.7237 
  169000    126.74627   -7546.6074   -6835.9532   -866.75264     102002.7      46.7237      46.7237      46.7237 
  170000    126.97477   -7535.5225   -6823.5872   -761.04861     102002.7      46.7237      46.7237      46.7237 
  171000    131.64246    -7529.431   -6791.3244   -765.23313     102002.7      46.7237      46.7237      46.7237 
  172000    127.72157   -7531.2272   -6815.1046   -902.87574     102002.7      46.7237      46.7237      46.7237 
  173000    127.54104   -7547.9753    -6832.865   -889.59812     102002.7      46.7237      46.7237      46.7237 
  174000    131.67197   -7512.3635   -6774.0915   -1074.9669     102002.7      46.7237      46.7237      46.7237 
  175000    130.87794   -7538.5671   -6804.7471   -993.37301     102002.7      46.7237      46.7237      46.7237 
  176000     131.4493   -7546.4361   -6809.4125   -856.46647     102002.7      46.7237      46.7237      46.7237 
  177000    132.29923   -7526.0337   -6784.2446   -586.65828     102002.7      46.7237      46.7237      46.7237 
  178000    129.66199   -7548.8568   -6821.8545   -1182.5233     102002.7      46.7237      46.7237      46.7237 
  179000    131.21124    -7519.382   -6783.6932   -1003.4451     102002.7      46.7237      46.7237      46.7237 
  180000    132.07406   -7567.2281   -6826.7015   -749.07014     102002.7      46.7237      46.7237      46.7237 
  181000    128.54245   -7529.0325   -6808.3074   -951.84084     102002.7      46.7237      46.7237      46.7237 
  182000    128.04963   -7551.2542   -6833.2922   -580.28336     102002.7      46.7237      46.7237      46.7237 
  183000    127.03485   -7547.4509   -6835.1787   -591.87548     102002.7      46.7237      46.7237      46.7237 
  184000    133.62262   -7533.0938   -6783.8846   -468.54947     102002.7      46.7237      46.7237      46.7237 
  185000    130.32703   -7561.4898   -6830.7587   -973.86273     102002.7      46.7237      46.7237      46.7237 
  186000    133.13597   -7519.2026    -6772.722    -522.9309     102002.7      46.7237      46.7237      46.7237 
  187000    128.35555   -7510.9641   -6791.2869   -824.72648     102002.7      46.7237      46.7237      46.7237 
  188000    126.91888   -7557.8012   -6846.1792   -535.46985     102002.7      46.7237      46.7237      46.7237 
  189000    130.32347    -7533.053   -6802.3419   -534.16628     102002.7      46.7237      46.7237      46.7237 
  190000    132.80842   -7532.7953   -6788.1512    -798.5525     102002.7      46.7237      46.7237      46.7237 
  191000    129.37349   -7540.8591   -6815.4744   -804.18596     102002.7      46.7237      46.7237      46.7237 
  192000    131.95306   -7499.5588   -6759.7107   -723.51088     102002.7      46.7237      46.7237      46.7237 
  193000    131.88465   -7530.8962   -6791.4317   -805.23426     102002.7      46.7237      46.7237      46.7237 
  194000    129.91445   -7514.4044   -6785.9866   -736.23368     102002.7      46.7237      46.7237      46.7237 
  195000    130.58268   -7551.0936   -6818.9291   -688.19438     102002.7      46.7237      46.7237      46.7237 
  196000    130.36445    -7545.975    -6815.034   -437.13052     102002.7      46.7237      46.7237      46.7237 
  197000    131.38452   -7519.7785   -6783.1182   -792.38397     102002.7      46.7237      46.7237      46.7237 
  198000    130.90249   -7555.6045   -6821.6469   -623.54042     102002.7      46.7237      46.7237      46.7237 
  199000    128.37517   -7535.9754   -6816.1882   -944.61698     102002.7      46.7237      46.7237      46.7237 
  200000    131.99492   -7537.8703   -6797.7875   -914.39684     102002.7      46.7237      46.7237      46.7237 
  201000    128.76154   -7542.7128   -6820.7592   -866.87509     102002.7      46.7237      46.7237      46.7237 
  202000     135.4266   -7533.2597   -6773.9358   -993.78909     102002.7      46.7237      46.7237      46.7237 
  203000    125.90339   -7529.0198   -6823.0916   -622.99635     102002.7      46.7237      46.7237      46.7237 
  204000     126.1023   -7538.1347   -6831.0913    -834.6936     102002.7      46.7237      46.7237      46.7237 
  205000    131.11289   -7529.7423    -6794.605   -907.08633     102002.7      46.7237      46.7237      46.7237 
  206000    132.83425   -7537.1585   -6792.3697     -1053.25     102002.7      46.7237      46.7237      46.7237 
  207000    129.73821   -7555.0994   -6827.6698     -957.021     102002.7      46.7237      46.7237      46.7237 
  208000    132.03898   -7527.0141   -6786.6843   -756.72048     102002.7      46.7237      46.7237      46.7237 
  209000    133.07108   -7542.1076   -6795.9909   -636.98564     102002.7      46.7237      46.7237      46.7237 
  210000    129.40985   -7522.1495   -6796.5609   -508.90565     102002.7      46.7237      46.7237      46.7237 
  211000    129.30503   -7523.0158    -6798.015   -774.11241     102002.7      46.7237      46.7237      46.7237 
  212000    132.01038   -7544.4107   -6804.2412   -627.39835     102002.7      46.7237      46.7237      46.7237 
  213000    132.17265   -7541.8862   -6800.8069   -1024.5862     102002.7      46.7237      46.7237      46.7237 
  214000    132.46174   -7526.9633   -6784.2631   -827.90487     102002.7      46.7237      46.7237      46.7237 
  215000    128.78861   -7535.0195   -6812.9141   -852.46089     102002.7      46.7237      46.7237      46.7237 
  216000    127.85853   -7528.4114   -6811.5209   -1003.0692     102002.7      46.7237      46.7237      46.7237 
  217000    132.41597   -7535.2706    -6792.827   -899.06893     102002.7      46.7237      46.7237      46.7237 
  218000    132.33466   -7520.7088   -6778.7211   -1053.4868     102002.7      46.7237      46.7237      46.7237 
  219000    128.03811   -7520.4515   -6802.5542   -1013.9851     102002.7      46.7237      46.7237      46.7237 
  220000    129.13162   -7545.8381   -6821.8095   -790.14165     102002.7      46.7237      46.7237      46.7237 
  221000    131.67403   -7559.6139   -6821.3303   -759.27274     102002.7      46.7237      46.7237      46.7237 
  222000    125.61017   -7502.4353   -6798.1511    -793.3471     102002.7      46.7237      46.7237      46.7237 
  223000    127.69681   -7561.1633   -6845.1796   -984.93958     102002.7      46.7237      46.7237      46.7237 
  224000     128.5719   -7535.9731   -6815.0828   -1077.2429     102002.7      46.7237      46.7237      46.7237 
  225000    128.91258   -7563.7763   -6840.9758   -1068.6986     102002.7      46.7237      46.7237      46.7237 
  226000    129.00871   -7530.1323   -6806.7929   -1010.9231     102002.7      46.7237      46.7237      46.7237 
  227000    133.80174   -7529.8889   -6779.6754   -812.62038     102002.7      46.7237      46.7237      46.7237 
  228000    131.14739   -7561.7803   -6826.4495   -1143.9857     102002.7      46.7237      46.7237      46.7237 
  229000    129.31326   -7533.9682   -6808.9213   -618.25194     102002.7      46.7237      46.7237      46.7237 
  230000    127.11933   -7508.9931   -6796.2473   -812.42089     102002.7      46.7237      46.7237      46.7237 
  231000    127.99006   -7528.4783   -6810.8503   -966.88666     102002.7      46.7237      46.7237      46.7237 
  232000    126.53252   -7512.6064   -6803.1507   -998.94423     102002.7      46.7237      46.7237      46.7237 
  233000    128.99604   -7546.1526   -6822.8842   -876.98418     102002.7      46.7237      46.7237      46.7237 
  234000    135.52035   -7551.7837   -6791.9342   -809.86501     102002.7      46.7237      46.7237      46.7237 
  235000    135.53228   -7530.1872   -6770.2707   -956.86349     102002.7      46.7237      46.7237      46.7237 
  236000    127.21201   -7538.0561   -6824.7906   -782.75606     102002.7      46.7237      46.7237      46.7237 
  237000    128.65736   -7530.2724    -6808.903   -946.12381     102002.7      46.7237      46.7237      46.7237 
  238000    132.81285   -7523.1541   -6778.4852   -932.77589     102002.7      46.7237      46.7237      46.7237 
  239000    127.61156   -7524.9509   -6809.4452   -666.41424     102002.7      46.7237      46.7237      46.7237 
  240000    135.16709   -7524.2602   -6766.3913   -667.06306     102002.7      46.7237      46.7237      46.7237 
  241000    127.01544   -7528.5633      -6816.4   -896.33709     102002.7      46.7237      46.7237      46.7237 
  242000    129.15749   -7545.6222   -6821.4486   -915.66354     102002.7      46.7237      46.7237      46.7237 
  243000    132.81497   -7525.9646   -6781.2838   -832.01321     102002.7      46.7237      46.7237      46.7237 
  244000     130.5865   -7537.9301   -6805.7442   -535.92937     102002.7      46.7237      46.7237      46.7237 
  245000    130.00424   -7543.2315   -6814.3103   -906.87789     102002.7      46.7237      46.7237      46.7237 
  246000    131.42885   -7524.4133   -6787.5044   -729.76856     102002.7      46.7237      46.7237      46.7237 
  247000    134.66276   -7516.6418   -6761.6007   -926.19061     102002.7      46.7237      46.7237      46.7237 
  248000    130.85776   -7519.0319    -6785.325   -466.64415     102002.7      46.7237      46.7237      46.7237 
  249000    130.82935   -7537.7333   -6804.1857   -774.96255     102002.7      46.7237      46.7237      46.7237 
  250000    125.87884   -7531.0167   -6825.2262    -776.7227     102002.7      46.7237      46.7237      46.7237 
  251000    129.06787   -7531.9122   -6808.2411   -963.62938     102002.7      46.7237      46.7237      46.7237 
  252000      133.133   -7509.0574   -6762.5936    -867.9589     102002.7      46.7237      46.7237      46.7237 
  253000    131.50188   -7518.3295   -6781.0111   -854.96306     102002.7      46.7237      46.7237      46.7237 
  254000    128.82907   -7521.4035   -6799.0713   -992.57273     102002.7      46.7237      46.7237      46.7237 
  255000    129.35425   -7547.2712   -6821.9944   -1141.3786     102002.7      46.7237      46.7237      46.7237 
  256000    129.33237   -7558.1364   -6832.9822   -1014.1273     102002.7      46.7237      46.7237      46.7237 
  257000    127.68173    -7525.586   -6809.6868   -837.60874     102002.7      46.7237      46.7237      46.7237 
  258000    131.53634   -7555.1252   -6817.6136    -1108.286     102002.7      46.7237      46.7237      46.7237 
  259000    132.44935   -7509.1513   -6766.5205   -857.23402     102002.7      46.7237      46.7237      46.7237 
  260000    130.44262   -7532.0874   -6800.7083   -1137.0508     102002.7      46.7237      46.7237      46.7237 
  261000    128.29688   -7556.5525   -6837.2042   -1032.4921     102002.7      46.7237      46.7237      46.7237 
  262000    131.51866   -7546.4037   -6808.9912   -1042.9602     102002.7      46.7237      46.7237      46.7237 
  263000    132.75329   -7529.3832   -6785.0482    -816.8424     102002.7      46.7237      46.7237      46.7237 
  264000    129.22631   -7548.1541   -6823.5946   -872.32858     102002.7      46.7237      46.7237      46.7237 
  265000     129.1702   -7531.4054   -6807.1605   -899.16433     102002.7      46.7237      46.7237      46.7237 
  266000    131.20416   -7550.8283   -6815.1792   -878.21676     102002.7      46.7237      46.7237      46.7237 
  267000    132.61303   -7554.7012   -6811.1527   -653.41535     102002.7      46.7237      46.7237      46.7237 
  268000    127.50439   -7559.1373   -6844.2325    -691.6375     102002.7      46.7237      46.7237      46.7237 
  269000    129.64038   -7513.7445   -6786.8634   -781.34535     102002.7      46.7237      46.7237      46.7237 
  270000    128.96553   -7507.7039   -6784.6066   -633.16127     102002.7      46.7237      46.7237      46.7237 
  271000    129.29301   -7541.8938   -6816.9604   -1121.0454     102002.7      46.7237      46.7237      46.7237 
  272000    128.39185   -7505.5295   -6785.6487   -880.51273     102002.7      46.7237      46.7237      46.7237 
  273000     127.2104   -7544.5298   -6831.2733   -772.76809     102002.7      46.7237      46.7237      46.7237 
  274000    130.81389   -7518.6027   -6785.1418   -891.62881     102002.7      46.7237      46.7237      46.7237 
  275000    128.69951   -7523.9547    -6802.349   -781.17646     102002.7      46.7237      46.7237      46.7237 
  276000    122.93095     -7528.63   -6839.3679   -1013.7875     102002.7      46.7237      46.7237      46.7237 
  277000    131.06294    -7539.698   -6804.8407   -1002.0751     102002.7      46.7237      46.7237      46.7237 
  278000    131.55291   -7542.9707   -6805.3662   -748.11762     102002.7      46.7237      46.7237      46.7237 
  279000    129.91072   -7528.5636   -6800.1667   -918.34822     102002.7      46.7237      46.7237      46.7237 
  280000    132.16813   -7513.3184   -6772.2644   -979.32987     102002.7      46.7237      46.7237      46.7237 
  281000    124.65566   -7542.8447   -6843.9125   -933.69022     102002.7      46.7237      46.7237      46.7237 
  282000    131.09564   -7531.8473   -6796.8067   -884.38777     102002.7      46.7237      46.7237      46.7237 
  283000    128.33074   -7557.6152   -6838.0771   -706.38706     102002.7      46.7237      46.7237      46.7237 
  284000    134.33375   -7535.3393   -6782.1429    -1069.882     102002.7      46.7237      46.7237      46.7237 
  285000    128.46251   -7542.7288   -6822.4518   -882.09445     102002.7      46.7237      46.7237      46.7237 
  286000    127.51341   -7547.5081   -6832.5526   -852.72588     102002.7      46.7237      46.7237      46.7237 
  287000    129.08707   -7575.0366   -6851.2579   -969.03218     102002.7      46.7237      46.7237      46.7237 
  288000    128.00797   -7549.1743   -6831.4459   -886.55212     102002.7      46.7237      46.7237      46.7237 
  289000    129.85076   -7539.5935   -6811.5328   -993.98726     102002.7      46.7237      46.7237      46.7237 
  290000    127.90652   -7516.4143   -6799.2547   -827.57166     102002.7      46.7237      46.7237      46.7237 
  291000    130.18697   -7532.1601   -6802.2143   -1064.5926     102002.7      46.7237      46.7237      46.7237 
  292000    128.07086   -7508.3932   -6790.3122   -609.26204     102002.7      46.7237      46.7237      46.7237 
  293000    127.23432   -7534.3809   -6820.9904    -895.3727     102002.7      46.7237      46.7237      46.7237 
  294000    131.11495   -7518.3179    -6783.169   -999.57196     102002.7      46.7237      46.7237      46.7237 
  295000    126.66073   -7541.0485    -6830.874   -1044.9785     102002.7      46.7237      46.7237      46.7237 
  296000    130.00627   -7547.4193   -6818.4867   -941.24855     102002.7      46.7237      46.7237      46.7237 
  297000    134.88964   -7530.0437   -6773.7304   -619.86758     102002.7      46.7237      46.7237      46.7237 
  298000    131.24963   -7518.5952   -6782.6912    -676.6551     102002.7      46.7237      46.7237      46.7237 
  299000    131.73876   -7530.4949   -6791.8484   -617.53656     102002.7      46.7237      46.7237      46.7237 
  300000    132.62268   -7535.1903   -6791.5877   -585.79211     102002.7      46.7237      46.7237      46.7237 
  301000    132.07282   -7530.5127   -6789.9931   -840.13385     102002.7      46.7237      46.7237      46.7237 
  302000    128.77414   -7539.0228   -6816.9986   -636.29538     102002.7      46.7237      46.7237      46.7237 
  303000    132.31373   -7521.8703        -6780   -465.35766     102002.7      46.7237      46.7237      46.7237 
  304000    134.46606   -7540.6975   -6786.7593   -564.95983     102002.7      46.7237      46.7237      46.7237 
  305000    129.47272    -7535.687   -6809.7459    -344.8786     102002.7      46.7237      46.7237      46.7237 
  306000    131.26115   -7543.4667   -6807.4981   -870.29341     102002.7      46.7237      46.7237      46.7237 
  307000     128.8277   -7515.9167   -6793.5923   -623.31721     102002.7      46.7237      46.7237      46.7237 
  308000    131.99698   -7553.9913   -6813.8969   -678.91152     102002.7      46.7237      46.7237      46.7237 
  309000    130.05129   -7545.2548   -6816.0697   -707.94942     102002.7      46.7237      46.7237      46.7237 
  310000    124.40073   -7521.9749    -6824.472   -668.25367     102002.7      46.7237      46.7237      46.7237 
  311000    126.56627   -7508.8136   -6799.1687   -421.97359     102002.7      46.7237      46.7237      46.7237 
  312000    125.97901   -7539.3772    -6833.025   -606.74068     102002.7      46.7237      46.7237      46.7237 
  313000      128.508   -7532.4473   -6811.9153   -787.20209     102002.7      46.7237      46.7237      46.7237 
  314000    125.94339   -7547.0868   -6840.9343   -429.02802     102002.7      46.7237      46.7237      46.7237 
  315000    131.99858     -7525.89   -6785.7867   -905.52218     102002.7      46.7237      46.7237      46.7237 
  316000    125.86927   -7544.2432   -6838.5063   -787.22324     102002.7      46.7237      46.7237      46.7237 
  317000    130.05831   -7543.9117   -6814.6873   -825.63749     102002.7      46.7237      46.7237      46.7237 
  318000    130.27534   -7515.0179   -6784.5766   -753.66867     102002.7      46.7237      46.7237      46.7237 
  319000      127.302   -7539.5216   -6825.7515   -986.70487     102002.7      46.7237      46.7237      46.7237 
  320000    127.57818   -7530.4703   -6815.1518   -865.41308     102002.7      46.7237      46.7237      46.7237 
  321000    133.18538    -7535.415   -6788.6574   -887.11238     102002.7      46.7237      46.7237      46.7237 
  322000    127.12217   -7530.6676   -6817.9058   -837.52644     102002.7      46.7237      46.7237      46.7237 
  323000     129.0378   -7515.7813   -6792.2788   -1165.4633     102002.7      46.7237      46.7237      46.7237 
  324000    129.40621   -7526.4011   -6800.8329   -766.63895     102002.7      46.7237      46.7237      46.7237 
  325000     131.1596   -7536.0757   -6800.6764   -639.03111     102002.7      46.7237      46.7237      46.7237 
  326000    128.70955   -7549.8147   -6828.1526   -542.24821     102002.7      46.7237      46.7237      46.7237 
  327000    128.01382    -7515.918   -6798.1569   -721.32701     102002.7      46.7237      46.7237      46.7237 
  328000    129.56957   -7519.1686   -6792.6845   -904.94581     102002.7      46.7237      46.7237      46.7237 
  329000    127.70236     -7548.21   -6832.1951   -599.74179     102002.7      46.7237      46.7237      46.7237 
  330000    129.71207   -7519.9058   -6792.6227   -636.83151     102002.7      46.7237      46.7237      46.7237 
  331000    127.29177   -7544.5371   -6830.8245   -712.56758     102002.7      46.7237      46.7237      46.7237 
  332000     127.9141   -7521.3632   -6804.1612   -875.57792     102002.7      46.7237      46.7237      46.7237 
  333000    127.98601    -7545.146   -6827.5407   -552.47684     102002.7      46.7237      46.7237      46.7237 
  334000    130.34404   -7544.2464   -6813.4199   -737.45683     102002.7      46.7237      46.7237      46.7237 
  335000    129.90452   -7543.1829   -6814.8208   -638.53651     102002.7      46.7237      46.7237      46.7237 
  336000    129.35104   -7527.3812   -6802.1223   -382.77921     102002.7      46.7237      46.7237      46.7237 
  337000    132.12638   -7528.6143   -6787.7944   -433.03156     102002.7      46.7237      46.7237      46.7237 
  338000    126.97593   -7518.4014   -6806.4596   -446.57857     102002.7      46.7237      46.7237      46.7237 
  339000    127.55163   -7535.1425   -6819.9728   -925.22858     102002.7      46.7237      46.7237      46.7237 
  340000    130.98919    -7522.347   -6787.9032   -1139.5115     102002.7      46.7237      46.7237      46.7237 
  341000    129.09814   -7515.4322   -6791.5913   -600.87286     102002.7      46.7237      46.7237      46.7237 
  342000    132.28082   -7553.3652   -6811.6794   -799.06999     102002.7      46.7237      46.7237      46.7237 
  343000    125.10514    -7546.822   -6845.3696   -469.63486     102002.7      46.7237      46.7237      46.7237 
  344000    133.10476   -7544.1067   -6797.8011   -881.26963     102002.7      46.7237      46.7237      46.7237 
  345000     126.6082   -7530.0816   -6820.2016   -688.56328     102002.7      46.7237      46.7237      46.7237 
  346000    132.90829   -7540.7394   -6795.5355   -584.98355     102002.7      46.7237      46.7237      46.7237 
  347000     128.7863   -7542.1442   -6820.0518   -840.66278     102002.7      46.7237      46.7237      46.7237 
  348000    130.93306   -7533.6812   -6799.5521    -635.5432     102002.7      46.7237      46.7237      46.7237 
  349000    129.79874   -7551.1055   -6823.3365   -691.20072     102002.7      46.7237      46.7237      46.7237 
  350000    129.65774   -7529.9277   -6802.9493    -668.7574     102002.7      46.7237      46.7237      46.7237 
  351000    132.47088   -7527.4643   -6784.7128   -680.28221     102002.7      46.7237      46.7237      46.7237 
  352000    132.25631   -7506.0685   -6764.5201   -829.04396     102002.7      46.7237      46.7237      46.7237 
  353000    129.34576   -7531.2449   -6806.0157   -974.47466     102002.7      46.7237      46.7237      46.7237 
  354000    132.33803   -7534.5525   -6792.5459   -1179.0059     102002.7      46.7237      46.7237      46.7237 
  355000    129.26325   -7545.0837   -6820.3171   -1068.4682     102002.7      46.7237      46.7237      46.7237 
  356000    131.13899   -7548.0084   -6812.7247    -938.9625     102002.7      46.7237      46.7237      46.7237 
  357000    130.01385   -7530.0761    -6801.101   -748.40218     102002.7      46.7237      46.7237      46.7237 
  358000    127.14975   -7571.9099   -6858.9935    -974.0447     102002.7      46.7237      46.7237      46.7237 
  359000    127.91044   -7511.7047   -6794.5232   -679.90259     102002.7      46.7237      46.7237      46.7237 
  360000    130.84398   -7535.4671   -6801.8375   -692.26629     102002.7      46.7237      46.7237      46.7237 
  361000    127.83614   -7546.3074   -6829.5425    -747.2222     102002.7      46.7237      46.7237      46.7237 
  362000    135.13733   -7547.8813   -6790.1793   -544.60119     102002.7      46.7237      46.7237      46.7237 
  363000    126.92596   -7536.3468   -6824.6852   -966.06634     102002.7      46.7237      46.7237      46.7237 
  364000    131.03998   -7531.8577   -6797.1291   -554.24199     102002.7      46.7237      46.7237      46.7237 
  365000    126.58024   -7525.3559   -6815.6327   -822.63499     102002.7      46.7237      46.7237      46.7237 
  366000    131.89656   -7549.1573    -6809.626   -472.50621     102002.7      46.7237      46.7237      46.7237 
  367000    134.96919    -7524.103   -6767.3438   -769.52951     102002.7      46.7237      46.7237      46.7237 
  368000    129.19445   -7537.7342   -6813.3534   -476.47454     102002.7      46.7237      46.7237      46.7237 
  369000    125.99868   -7547.6428   -6841.1803    -484.8987     102002.7      46.7237      46.7237      46.7237 
  370000    129.11851   -7523.4704   -6799.5154   -731.26232     102002.7      46.7237      46.7237      46.7237 
  371000    128.63944   -7524.5111   -6803.2422   -655.57506     102002.7      46.7237      46.7237      46.7237 
  372000     130.8327   -7524.4996   -6790.9333   -702.35195     102002.7      46.7237      46.7237      46.7237 
  373000    133.87865   -7531.7632   -6781.1184   -595.11492     102002.7      46.7237      46.7237      46.7237 
  374000    130.96045    -7544.283   -6810.0003   -721.50593     102002.7      46.7237      46.7237      46.7237 
  375000    131.36716   -7555.4419   -6818.8789   -473.74489     102002.7      46.7237      46.7237      46.7237 
  376000    129.86782   -7525.5685   -6797.4121   -543.13359     102002.7      46.7237      46.7237      46.7237 
  377000    128.10403   -7517.6398   -6799.3728    -1002.189     102002.7      46.7237      46.7237      46.7237 
  378000    128.35618   -7532.9473   -6813.2665   -739.94141     102002.7      46.7237      46.7237      46.7237 
  379000    129.48435   -7517.9335   -6791.9272    -739.8074     102002.7      46.7237      46.7237      46.7237 
  380000    127.10749    -7548.812   -6836.1326   -710.38406     102002.7      46.7237      46.7237      46.7237 
  381000     130.6736    -7539.644   -6806.9697   -759.34453     102002.7      46.7237      46.7237      46.7237 
  382000     130.0942   -7545.3042   -6815.8786   -784.00461     102002.7      46.7237      46.7237      46.7237 
  383000    130.95922   -7516.9915   -6782.7158   -551.36045     102002.7      46.7237      46.7237      46.7237 
  384000    127.03589   -7507.3831   -6795.1051   -766.17803     102002.7      46.7237      46.7237      46.7237 
  385000    131.90468   -7538.1921   -6798.6153   -867.37173     102002.7      46.7237      46.7237      46.7237 
  386000    129.85268   -7537.0507   -6808.9792   -724.28245     102002.7      46.7237      46.7237      46.7237 
  387000     128.4606   -7555.9921   -6835.7259   -688.96172     102002.7      46.7237      46.7237      46.7237 
  388000    132.05467   -7541.7952   -6801.3774   -773.63987     102002.7      46.7237      46.7237      46.7237 
  389000    130.81392   -7539.3437   -6805.8827   -706.43043     102002.7      46.7237      46.7237      46.7237 
  390000    127.69238   -7523.0654   -6807.1065   -811.89154     102002.7      46.7237      46.7237      46.7237 
  391000     130.6292   -7546.8625   -6814.4372   -792.38033     102002.7      46.7237      46.7237      46.7237 
  392000    129.04981   -7528.7483   -6805.1784    -691.3466     102002.7      46.7237      46.7237      46.7237 
  393000    134.67298     -7532.91   -6777.8116    -472.4001     102002.7      46.7237      46.7237      46.7237 
  394000    131.86041   -7513.2114   -6773.8828    -743.0393     102002.7      46.7237      46.7237      46.7237 
  395000    129.76475   -7515.9603   -6788.3819    -705.1189     102002.7      46.7237      46.7237      46.7237 
  396000    129.67691   -7526.3394   -6799.2535   -1098.1607     102002.7      46.7237      46.7237      46.7237 
  397000     129.7584   -7529.9339   -6802.3911   -707.95774     102002.7      46.7237      46.7237      46.7237 
  398000    130.81116   -7528.1657   -6794.7201   -594.29822     102002.7      46.7237      46.7237      46.7237 
  399000    129.89021   -7535.2532   -6806.9713   -797.89812     102002.7      46.7237      46.7237      46.7237 
  400000    127.39915   -7540.9609   -6826.6462   -483.93264     102002.7      46.7237      46.7237      46.7237 
  401000    132.88433   -7520.5405   -6775.4708    -778.6039     102002.7      46.7237      46.7237      46.7237 
  402000    127.19827   -7533.8619   -6820.6734   -202.02485     102002.7      46.7237      46.7237      46.7237 
  403000    129.63637   -7528.7636    -6801.905   -554.49148     102002.7      46.7237      46.7237      46.7237 
  404000    128.48012   -7519.2603   -6798.8846    -672.2376     102002.7      46.7237      46.7237      46.7237 
  405000    127.44136   -7543.9218   -6829.3704   -657.55644     102002.7      46.7237      46.7237      46.7237 
  406000    128.87974   -7533.5512   -6810.9349    -663.2295     102002.7      46.7237      46.7237      46.7237 
  407000    130.27843   -7560.6415   -6830.1829   -652.71177     102002.7      46.7237      46.7237      46.7237 
  408000    125.92411   -7528.4703    -6822.426   -1056.2312     102002.7      46.7237      46.7237      46.7237 
  409000    132.17393     -7532.32   -6791.2335   -653.52067     102002.7      46.7237      46.7237      46.7237 
  410000    132.93648   -7527.9194   -6782.5574   -681.70442     102002.7      46.7237      46.7237      46.7237 
  411000    126.21725   -7523.6024   -6815.9144   -889.71407     102002.7      46.7237      46.7237      46.7237 
  412000     126.4242   -7538.6733    -6829.825   -1092.3246     102002.7      46.7237      46.7237      46.7237 
  413000    131.26395   -7539.8801   -6803.8958   -930.75416     102002.7      46.7237      46.7237      46.7237 
  414000    132.77352   -7509.3615   -6764.9132   -1006.5432     102002.7      46.7237      46.7237      46.7237 
  415000    127.54172   -7515.0983   -6799.9842   -1189.5574     102002.7      46.7237      46.7237      46.7237 
  416000    130.11039   -7530.8687   -6801.3522   -928.94489     102002.7      46.7237      46.7237      46.7237 
  417000    127.43836   -7561.2619   -6846.7273   -734.03707     102002.7      46.7237      46.7237      46.7237 
  418000     129.0454   -7537.7853   -6814.2402   -977.65427     102002.7      46.7237      46.7237      46.7237 
  419000     129.1424   -7507.6663   -6783.5773   -732.74417     102002.7      46.7237      46.7237      46.7237 
  420000     128.7147   -7526.7989   -6805.1079   -918.58644     102002.7      46.7237      46.7237      46.7237 
  421000    131.08211   -7542.0263   -6807.0616   -714.45289     102002.7      46.7237      46.7237      46.7237 
  422000    134.02812    -7521.496   -6770.0132   -1073.1546     102002.7      46.7237      46.7237      46.7237 
  423000    128.75198   -7550.8705   -6828.9705   -823.49057     102002.7      46.7237      46.7237      46.7237 
  424000    133.37444   -7540.9998   -6793.1821   -958.50062     102002.7      46.7237      46.7237      46.7237 
  425000    131.99153    -7551.676   -6811.6122   -931.92683     102002.7      46.7237      46.7237      46.7237 
  426000    129.39512   -7538.9116   -6813.4056   -854.48123     102002.7      46.7237      46.7237      46.7237 
  427000    132.31863   -7551.2197   -6809.3219   -780.32457     102002.7      46.7237      46.7237      46.7237 
  428000    124.78114   -7541.6541   -6842.0183    -775.8949     102002.7      46.7237      46.7237      46.7237 
  429000    127.66967   -7552.1148   -6836.2833   -965.26418     102002.7      46.7237      46.7237      46.7237 
  430000    131.18292   -7539.1861   -6803.6561   -860.06512     102002.7      46.7237      46.7237      46.7237 
  431000    128.44976    -7518.691   -6798.4856   -631.08667     102002.7      46.7237      46.7237      46.7237 
  432000    129.07653   -7522.0461   -6798.3264   -1137.2683     102002.7      46.7237      46.7237      46.7237 
  433000    134.07336   -7517.5182   -6765.7818   -515.66371     102002.7      46.7237      46.7237      46.7237 
  434000    131.09518   -7535.6627   -6800.6247   -1055.4822     102002.7      46.7237      46.7237      46.7237 
  435000    125.70152    -7519.633   -6814.8367   -816.10379     102002.7      46.7237      46.7237      46.7237 
  436000    130.42516   -7531.3749   -6800.0936   -678.36189     102002.7      46.7237      46.7237      46.7237 
  437000    130.65328   -7538.8497   -6806.2893   -574.04315     102002.7      46.7237      46.7237      46.7237 
  438000    126.09164   -7547.8577    -6840.874    -734.6308     102002.7      46.7237      46.7237      46.7237 
  439000    127.67769   -7528.7934   -6812.9169   -610.72392     102002.7      46.7237      46.7237      46.7237 
  440000    131.42287   -7551.2275   -6814.3521   -1008.5323     102002.7      46.7237      46.7237      46.7237 
  441000     131.7203   -7512.5503   -6774.0073   -1115.6047     102002.7      46.7237      46.7237      46.7237 
  442000    132.00104   -7565.0846   -6824.9675   -633.92374     102002.7      46.7237      46.7237      46.7237 
  443000    130.33444   -7530.7853   -6800.0127   -825.01701     102002.7      46.7237      46.7237      46.7237 
  444000    132.52373   -7516.0979   -6773.0501   -920.65955     102002.7      46.7237      46.7237      46.7237 
  445000    126.06972   -7523.2677   -6816.4069   -880.07016     102002.7      46.7237      46.7237      46.7237 
  446000    126.79024   -7501.9816   -6791.0809   -1216.6107     102002.7      46.7237      46.7237      46.7237 
  447000    131.74163   -7541.4373   -6802.7747   -1140.4824     102002.7      46.7237      46.7237      46.7237 
  448000    130.60267   -7526.0835   -6793.8069   -658.70817     102002.7      46.7237      46.7237      46.7237 
  449000    130.74722   -7530.7413   -6797.6542   -1327.3136     102002.7      46.7237      46.7237      46.7237 
  450000    127.36519   -7553.3207   -6839.1964   -738.13777     102002.7      46.7237      46.7237      46.7237 
  451000    130.14696   -7534.4978   -6804.7763   -554.02389     102002.7      46.7237      46.7237      46.7237 
  452000    125.85923   -7524.2777   -6818.5971   -1018.5013     102002.7      46.7237      46.7237      46.7237 
  453000    131.17882   -7506.4272   -6770.9201    -603.6882     102002.7      46.7237      46.7237      46.7237 
  454000    134.62244   -7529.5313   -6774.7163   -1006.7814     102002.7      46.7237      46.7237      46.7237 
  455000    128.01664   -7523.5306   -6805.7536   -896.33647     102002.7      46.7237      46.7237      46.7237 
  456000     127.0135    -7515.763   -6803.6105   -1183.7585     102002.7      46.7237      46.7237      46.7237 
  457000    134.34907   -7522.9509   -6769.6685   -595.08315     102002.7      46.7237      46.7237      46.7237 
  458000    131.30943   -7530.1451   -6793.9058   -573.24884     102002.7      46.7237      46.7237      46.7237 
  459000    126.03074   -7552.8596   -6846.2174   -791.92032     102002.7      46.7237      46.7237      46.7237 
  460000    131.03506   -7524.7308   -6790.0298   -727.19394     102002.7      46.7237      46.7237      46.7237 
  461000    127.18923   -7540.6156   -6827.4778   -492.02123     102002.7      46.7237      46.7237      46.7237 
  462000    128.47022   -7536.8912    -6816.571    -603.3032     102002.7      46.7237      46.7237      46.7237 
  463000    128.35166   -7511.1614    -6791.506   -777.87913     102002.7      46.7237      46.7237      46.7237 
  464000    134.33945   -7523.5828   -6770.3545   -182.10055     102002.7      46.7237      46.7237      46.7237 
  465000    128.99623   -7529.5695   -6806.3001   -674.74695     102002.7      46.7237      46.7237      46.7237 
  466000    133.12178   -7513.5822   -6767.1812   -590.40041     102002.7      46.7237      46.7237      46.7237 
  467000    130.06601    -7537.734   -6808.4664   -539.88129     102002.7      46.7237      46.7237      46.7237 
  468000     128.1605   -7492.8167   -6774.2331   -609.09652     102002.7      46.7237      46.7237      46.7237 
  469000    128.04235   -7508.4377   -6790.5165   -526.16491     102002.7      46.7237      46.7237      46.7237 
  470000    127.76149   -7541.0293   -6824.6829   -660.66763     102002.7      46.7237      46.7237      46.7237 
  471000    129.64928   -7535.9438   -6809.0128   -850.83355     102002.7      46.7237      46.7237      46.7237 
  472000    128.83818   -7512.8059   -6790.4227   -569.76459     102002.7      46.7237      46.7237      46.7237 
  473000     127.0544   -7541.2337   -6828.8519   -763.10436     102002.7      46.7237      46.7237      46.7237 
  474000    126.22368   -7543.4249   -6835.7009   -670.94851     102002.7      46.7237      46.7237      46.7237 
  475000    127.44842   -7520.0721    -6805.481   -624.99689     102002.7      46.7237      46.7237      46.7237 
  476000    128.51985   -7523.3174    -6802.719    -536.2009     102002.7      46.7237      46.7237      46.7237 
  477000     131.1231   -7524.0339   -6788.8393     -577.308     102002.7      46.7237      46.7237      46.7237 
  478000     126.5209   -7522.2771   -6812.8866   -565.69081     102002.7      46.7237      46.7237      46.7237 
  479000    125.77503   -7539.3922   -6834.1837   -846.40361     102002.7      46.7237      46.7237      46.7237 
  480000    127.43934   -7550.2796   -6835.7395   -840.19753     102002.7      46.7237      46.7237      46.7237 
  481000    131.71274   -7539.5004   -6800.9998    -1041.766     102002.7      46.7237      46.7237      46.7237 
  482000    128.47574   -7511.6536   -6791.3024   -851.83862     102002.7      46.7237      46.7237      46.7237 
  483000    130.70416    -7542.146   -6809.3003   -1063.4354     102002.7      46.7237      46.7237      46.7237 
  484000    132.72057   -7526.5428   -6782.3914   -975.45111     102002.7      46.7237      46.7237      46.7237 
  485000    128.62011   -7543.2444   -6822.0838   -899.69717     102002.7      46.7237      46.7237      46.7237 
  486000    130.68264   -7526.5109   -6793.7859   -716.46225     102002.7      46.7237      46.7237      46.7237 
  487000    129.48016    -7554.485   -6828.5023   -810.66788     102002.7      46.7237      46.7237      46.7237 
  488000    127.75866   -7517.3097   -6800.9792   -721.54608     102002.7      46.7237      46.7237      46.7237 
  489000    129.08524   -7532.5265    -6808.758    -757.7421     102002.7      46.7237      46.7237      46.7237 
  490000    128.97665   -7516.3383   -6793.1786   -703.40932     102002.7      46.7237      46.7237      46.7237 
  491000    129.54291   -7537.8387    -6811.504   -520.53829     102002.7      46.7237      46.7237      46.7237 
  492000    130.31601    -7523.261   -6792.5916   -773.45311     102002.7      46.7237      46.7237      46.7237 
  493000    130.27821   -7526.6285   -6796.1712   -913.88467     102002.7      46.7237      46.7237      46.7237 
  494000    131.22005   -7520.5089   -6784.7707   -546.73908     102002.7      46.7237      46.7237      46.7237 
  495000    126.68646   -7524.4703   -6814.1515   -496.43497     102002.7      46.7237      46.7237      46.7237 
  496000    127.69962   -7541.8623   -6825.8629   -700.88525     102002.7      46.7237      46.7237      46.7237 
  497000    124.86975   -7551.9377    -6851.805   -646.87552     102002.7      46.7237      46.7237      46.7237 
  498000    126.22352   -7543.6273   -6835.9042   -1027.0854     102002.7      46.7237      46.7237      46.7237 
  499000    129.60993   -7544.4181   -6817.7077   -884.86594     102002.7      46.7237      46.7237      46.7237 
  500000    127.42126   -7507.7463   -6793.3076   -1100.0427     102002.7      46.7237      46.7237      46.7237 
  500503    131.83219   -7511.3777   -6772.2074   -901.65201     102002.7      46.7237      46.7237      46.7237 
Loop time of 1277.67 on 16 procs for 500000 steps with 1882 atoms

Performance: 33.812 ns/day, 0.710 hours/ns, 391.338 timesteps/s
99.8% CPU use with 16 MPI tasks x no OpenMP threads

MPI task timing breakdown:
Section |  min time  |  avg time  |  max time  |%varavg| %total
---------------------------------------------------------------
Pair    | 606.43     | 725.49     | 831.38     | 225.3 | 56.78
Bond    | 143.35     | 173.96     | 201.33     | 184.1 | 13.62
Neigh   | 6.383      | 6.4065     | 6.4349     |   0.7 |  0.50
Comm    | 273.8      | 357.42     | 449.53     | 260.0 | 27.97
Output  | 0.020458   | 0.020848   | 0.023698   |   0.5 |  0.00
Modify  | 7.0043     | 9.049      | 10.51      |  41.8 |  0.71
Other   |            | 5.316      |            |       |  0.42

Nlocal:    117.625 ave 162 max 80 min
Histogram: 1 2 2 3 1 2 2 1 1 1
Nghost:    2380.69 ave 2421 max 2340 min
Histogram: 2 1 1 3 0 3 1 3 1 1
Neighs:    11456.3 ave 17194 max 6581 min
Histogram: 1 0 2 3 4 1 4 0 0 1

Total # of neighbors = 183301
Ave neighs/atom = 97.3969
Ave special neighs/atom = 6.12115
Neighbor list builds = 4573
Dangerous builds = 0
Neighbor list info ...
  update every 1 steps, delay 10 steps, check yes
  max neighbors/atom: 2000, page size: 100000
  master list distance cutoff = 16
  ghost atom cutoff = 16
  binsize = 8, bins = 6 6 6
  3 neighbor lists, perpetual/occasional/extra = 3 0 0
  (1) pair buck6d/coul/gauss/dsf, perpetual, skip from (3)
      attributes: half, newton on
      pair build: skip
      stencil: none
      bin: none
  (2) pair lj/cut, perpetual, skip from (3)
      attributes: half, newton on
      pair build: skip
      stencil: none
      bin: none
  (3) neighbor class addition, perpetual
      attributes: half, newton on
      pair build: half/bin/newton
      stencil: half/bin/3d/newton
      bin: standard
Setting up Verlet run ...
  Unit style    : real
  Current step  : 500503
  Time step     : 1
WARNING: Inconsistent image flags (../domain.cpp:786)
Per MPI rank memory allocation (min/avg/max) = 22.88 | 23.22 | 23.35 Mbytes
Step Time TotEng KinEng PotEng E_mol E_pair Temp Pxx Pyy Pzz Pxy Pxz Pyz Cella Cellb Cellc CellAlpha CellBeta CellGamma Volume Press 
  500503       500000   -6772.2074    739.17039   -7511.3777    4444.7856   -11956.163    131.83219   -1093.2277   -701.11806   -910.61031    149.25759   -65.090064     217.3409      46.7237      46.7237      46.7237           90           90           90     102002.7   -901.65201 
  501000       500497   -6761.1033    752.60209   -7513.7054    4417.3309   -11931.036    134.22775   -974.36623    -1199.736   -1246.1635    141.84522    213.33574    12.874419      46.7237      46.7237      46.7237           90           90           90     102002.7   -1140.0886 
  502000       501497   -6804.2126    724.05809   -7528.2707    4420.1439   -11948.415    129.13689   -633.85162    -1063.609   -1321.1071    98.855889    32.256349    7.2825127      46.7237      46.7237      46.7237           90           90           90     102002.7   -1006.1892 
  503000       502497   -6779.1025    743.33973   -7522.4423    4425.2458   -11947.688     132.5758   -633.74596   -1099.0979   -543.41542    24.502819    187.95628   -235.26765      46.7237      46.7237      46.7237           90           90           90     102002.7   -758.75309 
  504000       503497   -6791.8318    730.15615    -7521.988    4405.3578   -11927.346    130.22448   -1195.8548   -1053.1309   -613.45096    116.80737   -14.049409    10.847536      46.7237      46.7237      46.7237           90           90           90     102002.7   -954.14554 
  505000       504497   -6790.4336    716.27766   -7506.7112     4447.275   -11953.986    127.74924   -492.44266   -534.63219    -573.5254    110.63485      73.5931     -318.339      46.7237      46.7237      46.7237           90           90           90     102002.7   -533.53341 
  506000       505497   -6809.1257     728.5398   -7537.6655    4413.1939   -11950.859    129.93621   -897.43617   -1495.7889   -981.29158   -17.589298    120.31367    35.234811      46.7237      46.7237      46.7237           90           90           90     102002.7   -1124.8389 
  507000       506497   -6806.4968     714.0119   -7520.5087    4411.3296   -11931.838    127.34513   -1256.8362   -682.28664   -857.87117   -197.73205    207.93357   -88.117212      46.7237      46.7237      46.7237           90           90           90     102002.7   -932.33133 
  508000       507497   -6848.7914    714.77608   -7563.5675     4374.136   -11937.703    127.48143   -1075.4381   -860.11743   -1073.0224    89.986959   -107.44108   -20.477663      46.7237      46.7237      46.7237           90           90           90     102002.7   -1002.8593 
  509000       508497   -6794.1566    739.53069   -7533.6873    4403.5418   -11937.229    131.89645   -1404.6435   -897.69184   -877.86234   -44.685975    123.63941    15.418027      46.7237      46.7237      46.7237           90           90           90     102002.7   -1060.0659 
  510000       509497   -6805.8145    727.72771   -7533.5422    4407.7167   -11941.259    129.79137    -1127.351   -685.06636   -891.27291    99.696944    46.644079   -38.503393      46.7237      46.7237      46.7237           90           90           90     102002.7   -901.23008 
  511000       510497   -6785.4223    729.46966    -7514.892    4400.6912   -11915.583    130.10205   -601.79068   -1270.0686   -1029.6575    3.3519675    105.08962    188.94937      46.7237      46.7237      46.7237           90           90           90     102002.7   -967.17225 
  512000       511497   -6800.0792    742.04786   -7542.1271    4393.8721   -11935.999    132.34539   -1028.7595   -42.032198   -978.06019   -33.128697     232.6482    169.60423      46.7237      46.7237      46.7237           90           90           90     102002.7   -682.95062 
  513000       512497    -6832.821    719.08297    -7551.904    4392.1177   -11944.022    128.24957   -935.79576   -1239.3318   -503.93583   -66.219358    185.42486     133.0865      46.7237      46.7237      46.7237           90           90           90     102002.7   -893.02115 
  514000       513497   -6829.0691     710.9647   -7540.0338    4395.9135   -11935.947    126.80166   -967.42708   -653.71961   -814.99262   -78.092634   -3.6936133    1.8044383      46.7237      46.7237      46.7237           90           90           90     102002.7   -812.04644 
  515000       514497   -6812.3553    731.77823   -7544.1335    4381.3347   -11925.468    130.51379   -895.96731   -1041.3188   -744.21454    361.50675   -61.323132    16.867591      46.7237      46.7237      46.7237           90           90           90     102002.7   -893.83355 
  516000       515497    -6801.101    725.78848   -7526.8895     4422.988   -11949.878     129.4455    -1110.029   -586.77436   -1166.4276   -102.49831   -211.70348    329.10602      46.7237      46.7237      46.7237           90           90           90     102002.7   -954.41032 
  517000       516497   -6774.8326     740.2241   -7515.0567    4418.8812   -11933.938    132.02012   -675.14922   -1350.2963   -803.28848    90.866143    197.44182    91.231486      46.7237      46.7237      46.7237           90           90           90     102002.7   -942.91134 
  518000       517497   -6819.0649    719.00442   -7538.0693    4394.1631   -11932.232    128.23556   -691.38804   -613.23687   -688.39782   -84.369135   -16.040435    78.639271      46.7237      46.7237      46.7237           90           90           90     102002.7   -664.34091 
  519000       518497   -6792.2111     747.0524   -7539.2635     4413.821   -11953.085    133.23796   -575.12056   -741.11911   -759.59385    385.61762   -206.22961   -5.6116446      46.7237      46.7237      46.7237           90           90           90     102002.7   -691.94451 
  520000       519497   -6814.1154    733.27478   -7547.3902    4389.3661   -11936.756     130.7807   -951.57829   -1210.9413   -794.83077    148.56766   -73.603492   -169.75263      46.7237      46.7237      46.7237           90           90           90     102002.7   -985.78344 
  521000       520497   -6789.8575     748.2489   -7538.1065    4386.2652   -11924.372    133.45136   -548.31712   -899.79429   -723.03087   -66.153929   -135.32972    149.31188      46.7237      46.7237      46.7237           90           90           90     102002.7   -723.71409 
  522000       521497   -6816.3955    709.38695   -7525.7824    4400.0751   -11925.857    126.52027   -1033.5068   -856.44241   -771.01024    101.48003    95.283305   -25.304592      46.7237      46.7237      46.7237           90           90           90     102002.7   -886.98647 
  523000       522497   -6808.2225    730.72223   -7538.9447    4393.7143   -11932.659    130.32545   -810.09803   -392.40585   -1115.4098    42.913829   -114.61793   -178.47898      46.7237      46.7237      46.7237           90           90           90     102002.7    -772.6379 
  524000       523497   -6814.4879    742.59436   -7557.0823    4376.5135   -11933.596    132.44286   -708.42541   -499.84611    -828.4777    12.202447    104.67113    109.70676      46.7237      46.7237      46.7237           90           90           90     102002.7   -678.91641 
  525000       524497   -6795.7901    744.19181   -7539.9819    4410.4955   -11950.477    132.72777    -595.8435   -813.06155   -764.78291   -289.03961   -75.354595   -100.53884      46.7237      46.7237      46.7237           90           90           90     102002.7   -724.56265 
  526000       525497   -6815.5901    737.46981   -7553.0599    4376.9469   -11930.007    131.52889   -960.17219   -414.79035    -1181.575   -256.26772    40.658868   -192.15487      46.7237      46.7237      46.7237           90           90           90     102002.7   -852.17919 
  527000       526497   -6788.7218    728.12861   -7516.8504    4437.4673   -11954.318    129.86287   -720.73053   -706.66651   -985.57797    199.45236      22.9787   -127.93484      46.7237      46.7237      46.7237           90           90           90     102002.7     -804.325 
  528000       527497   -6813.4558    720.69948   -7534.1553    4402.4142   -11936.569    128.53787   -415.62716   -995.41796   -385.18789    54.593599   -166.87886    72.976118      46.7237      46.7237      46.7237           90           90           90     102002.7   -598.74434 
  529000       528497   -6798.9196    726.41078   -7525.3304    4388.9297    -11914.26    129.55649   -888.94905   -573.65491   -306.20689   -209.08207     130.9629   -1.2530742      46.7237      46.7237      46.7237           90           90           90     102002.7   -589.60362 
  530000       529497    -6789.084    770.35627   -7559.4402    4394.0492   -11953.489    137.39424   -800.57783   -703.56616   -817.75271   -154.59317     126.7131   -188.33447      46.7237      46.7237      46.7237           90           90           90     102002.7   -773.96557 
  531000       530497   -6816.7186    720.40581   -7537.1244    4421.4955    -11958.62     128.4855    -777.9365   -1699.7017   -893.31967    215.85164   -121.21223   -59.982707      46.7237      46.7237      46.7237           90           90           90     102002.7   -1123.6526 
  532000       531497   -6804.6114    733.21225   -7537.8237    4395.9246   -11933.748    130.76955   -432.96287   -1410.9754   -198.27123    -189.4908    86.279798    303.80243      46.7237      46.7237      46.7237           90           90           90     102002.7   -680.73649 
  533000       532497   -6839.4221    706.61286    -7546.035     4388.512   -11934.547     126.0255   -973.63561   -1018.3801   -1146.9766   -175.68781    12.207232    70.267852      46.7237      46.7237      46.7237           90           90           90     102002.7   -1046.3308 
  534000       533497   -6819.3523    707.54332   -7526.8956    4419.9784   -11946.874    126.19145   -439.19469   -1006.5157    -615.3657   -113.74709    183.15125   -105.50256      46.7237      46.7237      46.7237           90           90           90     102002.7   -687.02538 
  535000       534497   -6813.3673    717.88714   -7531.2545    4409.7035   -11940.958    128.03629   -909.18989   -467.45256   -368.78066   -118.14943    -7.236099    166.93585      46.7237      46.7237      46.7237           90           90           90     102002.7    -581.8077 
  536000       535497   -6811.2672    738.36887   -7549.6361    4377.4389   -11927.075    131.68924   -425.15213   -907.82503   -763.95387   -42.796971      27.6875    157.22413      46.7237      46.7237      46.7237           90           90           90     102002.7   -698.97701 
  537000       536497   -6794.7803    749.84102   -7544.6213    4407.3715   -11951.993    133.73531   -553.24323    -750.5762   -1242.6392    20.725926     85.27909   -208.26764      46.7237      46.7237      46.7237           90           90           90     102002.7   -848.81954 
  538000       537497   -6848.2855    716.71172   -7564.9973    4371.8977   -11936.895    127.82665    -926.8284   -529.13039   -264.29192    192.97146   -207.39341    79.841151      46.7237      46.7237      46.7237           90           90           90     102002.7   -573.41691 
  539000       538497   -6799.6844    722.66814   -7522.3526    4412.4103   -11934.763    128.88899    -231.1592   -946.88358   -727.96858   -11.472056    61.808941    168.70571      46.7237      46.7237      46.7237           90           90           90     102002.7   -635.33712 
  540000       539497   -6821.9383    713.07585   -7535.0142    4408.6889   -11943.703    127.17819     -916.462   -1263.0469    -799.1272    210.86019    83.505456   -214.76642      46.7237      46.7237      46.7237           90           90           90     102002.7    -992.8787 
  541000       540497   -6800.4482    741.29137   -7541.7396    4413.4561   -11955.196    132.21047   -450.98955    -1102.932    -512.0561   -73.921016   -105.68558    15.247953      46.7237      46.7237      46.7237           90           90           90     102002.7   -688.65923 
  542000       541497   -6792.6417    749.22488   -7541.8665    4389.7516   -11931.618    133.62542   -741.88954   -307.54949    -985.0771    180.75434    -110.5806    1.2172094      46.7237      46.7237      46.7237           90           90           90     102002.7   -678.17204 
  543000       542497   -6822.2958    732.70909   -7555.0049    4400.8543   -11955.859    130.67981   -1126.6148   -1049.5003   -1274.8893    140.66698     193.3619   -108.97194      46.7237      46.7237      46.7237           90           90           90     102002.7   -1150.3348 
  544000       543497    -6800.183     735.6912   -7535.8742    4404.0445   -11939.919    131.21167    -1147.795   -1118.6167   -1238.2509    72.821463    -47.86004    122.18041      46.7237      46.7237      46.7237           90           90           90     102002.7   -1168.2209 
  545000       544497    -6830.519    723.47933   -7553.9983    4383.6398   -11937.638    129.03366   -917.69791   -887.29757    -1095.464   -12.101336   -325.24547    122.31811      46.7237      46.7237      46.7237           90           90           90     102002.7   -966.81983 
  546000       545497   -6818.0126    721.52973   -7539.5424    4392.4714   -11932.014    128.68595   -909.57739   -731.02579   -875.96901   -113.71268    134.68902    459.94534      46.7237      46.7237      46.7237           90           90           90     102002.7    -838.8574 
  547000       546497   -6792.6495     725.8893   -7518.5388    4410.0016    -11928.54    129.46349   -600.96385   -908.10161   -768.99792     206.7004   -51.834082    326.97767      46.7237      46.7237      46.7237           90           90           90     102002.7   -759.35446 
  548000       547497   -6798.0428    729.69771   -7527.7405    4410.5237   -11938.264    130.14272   -666.83475   -684.41001   -1139.2333   -55.637035   -273.58137     56.40221      46.7237      46.7237      46.7237           90           90           90     102002.7   -830.15935 
  549000       548497   -6834.0649    704.47502   -7538.5399    4405.3761   -11943.916    125.64422   -1014.6932   -999.32825   -975.89943   -457.04035   -16.393252   -206.55768      46.7237      46.7237      46.7237           90           90           90     102002.7    -996.6403 
  550000       549497   -6801.8501    714.35016   -7516.2003    4425.5453   -11941.746    127.40546   -897.99234   -922.49794   -784.35989    113.13675     68.17375   -135.47007      46.7237      46.7237      46.7237           90           90           90     102002.7   -868.28339 
  551000       550497   -6810.7339    739.41146   -7550.1454     4370.423   -11920.568    131.87519   -380.10519    -1289.159   -629.90435   -296.84417   -72.448819    21.186037      46.7237      46.7237      46.7237           90           90           90     102002.7   -766.38953 
  552000       551497   -6802.0366    738.78993   -7540.8265    4390.9836    -11931.81    131.76433   -966.75166   -1247.0184   -175.11898   -69.894286   -10.474168    1.7275183      46.7237      46.7237      46.7237           90           90           90     102002.7   -796.29636 
  553000       552497   -6801.0894    721.89326   -7522.9826    4407.5052   -11930.488    128.75079   -1253.6219   -1023.1769   -1079.1862    389.47526   -112.24547    177.11383      46.7237      46.7237      46.7237           90           90           90     102002.7   -1118.6617 
  554000       553497    -6823.506    714.51222   -7538.0183    4400.8061   -11938.824    127.43437   -907.27274   -900.38442   -1009.0942   -6.2707859   -304.19429     -81.9451      46.7237      46.7237      46.7237           90           90           90     102002.7   -938.91712 
  555000       554497   -6786.6552    731.61717   -7518.2724    4408.7814   -11927.054    130.48506   -988.78841   -1029.9349   -601.01573   -97.142956    25.617312    104.32998      46.7237      46.7237      46.7237           90           90           90     102002.7   -873.24636 
[...]
  936000       935497   -6758.0306    751.90543   -7509.9361     4406.335   -11916.271     134.1035   -724.91115   -1297.1977   -1079.5564    269.82345    44.635714      81.1517      46.7237      46.7237      46.7237           90           90           90     102002.7   -1033.8884 
  937000       936497   -6812.6894    715.20021   -7527.8896    4395.3178   -11923.207    127.55707   -589.98113   -1025.3932   -1086.4714   -124.19804   -10.273148   -12.744046      46.7237      46.7237      46.7237           90           90           90     102002.7   -900.61526 
  938000       937497   -6801.1719    743.77236   -7544.9442    4418.5352   -11963.479    132.65296   -1064.7814   -466.49349   -1111.8048    54.519716     62.72511   -16.612469      46.7237      46.7237      46.7237           90           90           90     102002.7   -881.02656 
  939000       938497   -6798.1151    726.84244   -7524.9576    4404.3782   -11929.336    129.63348   -920.99558   -780.59748   -1164.5953    40.478251    256.87555    227.07823      46.7237      46.7237      46.7237           90           90           90     102002.7   -955.39611 
  940000       939497   -6825.5693    723.93736   -7549.5067    4398.3383   -11947.845    129.11535   -868.94876   -1360.1207     -1007.47   -247.29934    -150.0202    -31.77824      46.7237      46.7237      46.7237           90           90           90     102002.7   -1078.8465 
  941000       940497   -6791.1467    743.27835   -7534.4251    4412.4358   -11946.861    132.56485   -685.20299   -630.63776   -613.57527   -71.024405    80.686775    105.62445      46.7237      46.7237      46.7237           90           90           90     102002.7   -643.13867 
  942000       941497   -6780.9663    751.12542   -7532.0917     4409.392   -11941.484    133.96439    -585.6101   -1231.6031   -1028.2512   -29.175758   -168.91863   -244.36872      46.7237      46.7237      46.7237           90           90           90     102002.7   -948.48814 
  943000       942497   -6820.8204    726.89489   -7547.7153    4402.1007   -11949.816    129.64284   -272.70949   -672.58912   -893.66653    162.09733    133.12906    274.95137      46.7237      46.7237      46.7237           90           90           90     102002.7   -612.98838 
  944000       943497   -6814.9349    719.54829   -7534.4832     4395.077    -11929.56    128.33256   -668.81125   -853.57837   -1212.6338    78.581837    290.11986    35.296691      46.7237      46.7237      46.7237           90           90           90     102002.7   -911.67448 
  945000       944497    -6813.014    723.65027   -7536.6643    4413.5188   -11950.183    129.06415   -1023.5162   -643.59663   -1134.3983    -9.670908     6.064252    -231.0033      46.7237      46.7237      46.7237           90           90           90     102002.7   -933.83704 
  946000       945497   -6791.1009    735.15852   -7526.2594    4403.6784   -11929.938    131.11667   -649.46876   -866.47109   -835.81187    94.482704    63.768448   -89.424199      46.7237      46.7237      46.7237           90           90           90     102002.7   -783.91724 
  947000       946497   -6802.7804    730.91728   -7533.6977    4399.0717   -11932.769    130.36023   -1137.4218   -1049.2651   -720.77349   -71.933786    172.50206    263.66802      46.7237      46.7237      46.7237           90           90           90     102002.7   -969.15344 
  948000       947497   -6814.8762    734.97064   -7549.8468    4381.3872   -11931.234    131.08316   -903.49171   -760.47857   -895.33834   -245.59447    12.315931    72.064582      46.7237      46.7237      46.7237           90           90           90     102002.7   -853.10287 
  949000       948497   -6808.1689    719.97182   -7528.1407    4407.9728   -11936.113    128.40809   -993.85067   -1262.4761   -385.57492   -131.31456   -96.610686    238.62263      46.7237      46.7237      46.7237           90           90           90     102002.7   -880.63389 
  950000       949497   -6786.9039    736.96642   -7523.8703    4417.9924   -11941.863    131.43911   -688.46878    -837.2133    -964.0215    238.46558   -82.216183    111.47343      46.7237      46.7237      46.7237           90           90           90     102002.7   -829.90119 
  951000       950497   -6803.7005    705.69831   -7509.3988    4421.9887   -11931.388    125.86239   -1098.2609   -1038.3738   -700.25625    -159.4277    43.004153   -153.19457      46.7237      46.7237      46.7237           90           90           90     102002.7   -945.63032 
  952000       951497   -6853.6359    709.39193   -7563.0279    4366.5189   -11929.547    126.52115   -745.43345    66.071663   -519.31053    269.38816   -55.693133    142.96515      46.7237      46.7237      46.7237           90           90           90     102002.7   -399.55744 
  953000       952497   -6803.8368    730.50095   -7534.3377    4397.2176   -11931.555    130.28598   -473.66847   -1070.0059   -491.45724   -122.24071    84.066978   -270.91147      46.7237      46.7237      46.7237           90           90           90     102002.7    -678.3772 
  954000       953497   -6835.7106    715.55408   -7551.2647    4387.8662   -11939.131    127.62018    -1244.061   -1005.3485   -194.94973   -286.59029    224.48609    -22.96601      46.7237      46.7237      46.7237           90           90           90     102002.7   -814.78641 
  955000       954497   -6800.9677    724.44126    -7525.409    4397.9329   -11923.342    129.20523   -592.65986   -734.35164   -566.19371    -170.0452    267.60376   -198.87557      46.7237      46.7237      46.7237           90           90           90     102002.7    -631.0684 
  956000       955497   -6838.0845    726.65592   -7564.7404    4363.5474   -11928.288    129.60021   -1085.2308   -782.76281   -1122.1037    -85.69493   -87.656516    90.774521      46.7237      46.7237      46.7237           90           90           90     102002.7   -996.69912 
  957000       956497   -6813.3701    722.41874   -7535.7888    4392.0717   -11927.861    128.84451   -569.62586    -1115.098    -1519.248   -22.537893    83.226905   -110.53768      46.7237      46.7237      46.7237           90           90           90     102002.7   -1067.9906 
  958000       957497   -6795.2874    723.73221   -7519.0196    4403.8543   -11922.874    129.07877   -953.82408   -764.53043   -637.95771   -117.45306   -125.75154   -82.421911      46.7237      46.7237      46.7237           90           90           90     102002.7   -785.43741 
  959000       958497   -6811.3035    732.87336   -7544.1768    4385.2345   -11929.411     130.7091   -764.40338   -699.98311   -1091.5515    -92.53509    234.63362    329.85088      46.7237      46.7237      46.7237           90           90           90     102002.7   -851.97932 
  960000       959497   -6751.6439    753.60926   -7505.2532     4420.304   -11925.557    134.40738   -705.77627   -848.64056   -909.39467   -160.45025   -224.67021    111.06853      46.7237      46.7237      46.7237           90           90           90     102002.7    -821.2705 
  961000       960497   -6805.2621    729.85125   -7535.1133    4401.4945   -11936.608    130.17011   -446.42426   -1110.1897   -653.90533   -370.62582   -8.0070132    64.829112      46.7237      46.7237      46.7237           90           90           90     102002.7   -736.83976 
  962000       961497   -6784.4028    726.47337   -7510.8761    4403.4106   -11914.287    129.56766   -601.23176   -833.88101   -512.79203   -116.95281    203.78052   -206.06446      46.7237      46.7237      46.7237           90           90           90     102002.7    -649.3016 
  963000       962497   -6768.5747    744.38482   -7512.9595    4413.6878   -11926.647    132.76219   -692.38431   -958.57401   -697.05844    97.118493   -143.46436    45.966939      46.7237      46.7237      46.7237           90           90           90     102002.7   -782.67225 
  964000       963497   -6799.5884    736.93482   -7536.5232    4394.6819   -11931.205    131.43347   -902.56207   -574.81787   -708.97681   -160.33356   -253.29489    40.328455      46.7237      46.7237      46.7237           90           90           90     102002.7   -728.78558 
  965000       964497   -6804.3468    721.97865   -7526.3254    4407.0373   -11933.363    128.76602   -651.87396   -912.03678   -715.53975    67.900581    474.92447   -328.29378      46.7237      46.7237      46.7237           90           90           90     102002.7   -759.81683 
  966000       965497   -6800.3001    727.94096   -7528.2411    4414.0644   -11942.306     129.8294   -278.87243   -357.22086   -725.22204   -167.45514   -58.664054    184.31274      46.7237      46.7237      46.7237           90           90           90     102002.7   -453.77178 
  967000       966497   -6817.8384    723.64002   -7541.4784    4375.4172   -11916.896    129.06232   -884.22146   -810.42966   -462.30542    97.429887   -217.97237   -157.82489      46.7237      46.7237      46.7237           90           90           90     102002.7   -718.98551 
  968000       967497   -6813.8958    726.05328   -7539.9491     4410.614   -11950.563    129.49273   -1643.2538   -452.14291   -808.33662    25.339723    23.854348    113.21456      46.7237      46.7237      46.7237           90           90           90     102002.7   -967.91111 
  969000       968497   -6780.2079    737.90587   -7518.1138    4417.1841   -11935.298    131.60666   -241.91205   -1155.8429   -713.00008   -104.55524    158.58112    110.00613      46.7237      46.7237      46.7237           90           90           90     102002.7     -703.585 
  970000       969497   -6831.0834    707.62085   -7538.7043    4416.5469   -11955.251    126.20528   -650.41098    -741.2717   -718.64494    41.784819   -197.05334    116.75061      46.7237      46.7237      46.7237           90           90           90     102002.7   -703.44254 
  971000       970497   -6795.5748    745.20562   -7540.7804    4389.9516   -11930.732    132.90858   -1140.7548   -558.23747    32.549047   -28.260527   -84.575754   -289.04686      46.7237      46.7237      46.7237           90           90           90     102002.7   -555.48109 
  972000       971497   -6790.0899    727.01043   -7517.1003    4417.2077   -11934.308    129.66344    -792.1266   -692.69045   -825.28501   -52.334411   -169.46159    164.79815      46.7237      46.7237      46.7237           90           90           90     102002.7   -770.03402 
  973000       972497   -6801.6486    717.67847   -7519.3271    4421.7476   -11941.075    127.99907   -813.88004   -749.13171   -596.16365    158.46139    355.25525     199.9271      46.7237      46.7237      46.7237           90           90           90     102002.7   -719.72513 
  974000       973497   -6822.5158    723.20658   -7545.7224    4397.7424   -11943.465    128.98502    -512.8069   -799.14387   -488.39459   -56.012619    283.09942    194.43005      46.7237      46.7237      46.7237           90           90           90     102002.7   -600.11512 
  975000       974497   -6792.2645    740.27521   -7532.5397    4416.0908   -11948.631    132.02924    -470.0005   -718.34491   -956.01087    187.77472      205.485   -319.47917      46.7237      46.7237      46.7237           90           90           90     102002.7   -714.78543 
  976000       975497   -6794.1507    727.09014   -7521.2409    4413.2598   -11934.501    129.67766     126.5086   -512.16121   -469.14145   -50.697137    48.119214    73.580127      46.7237      46.7237      46.7237           90           90           90     102002.7   -284.93136 
  977000       976497   -6825.5751    714.36485   -7539.9399    4374.0032   -11913.943    127.40808   -663.00225   -746.27459   -591.09529   -69.317631   -205.05678   -118.11114      46.7237      46.7237      46.7237           90           90           90     102002.7   -666.79071 
  978000       977497   -6808.7203    735.51143   -7544.2317    4397.5697   -11941.801    131.17961   -1037.1235   -1011.0443   -325.69555   -114.40061   -33.881657   -428.99386      46.7237      46.7237      46.7237           90           90           90     102002.7   -791.28776 
  979000       978497   -6777.9088    758.79456   -7536.7034    4390.5559   -11927.259    135.33219   -458.75271   -389.59455   -998.40156    195.61893   -131.66489   -97.505648      46.7237      46.7237      46.7237           90           90           90     102002.7   -615.58294 
  980000       979497   -6806.1763    711.34319   -7517.5195    4416.7665   -11934.286    126.86917   -283.69197   -770.78842   -709.96343    140.37956   -26.947296   -39.678159      46.7237      46.7237      46.7237           90           90           90     102002.7   -588.14794 
  981000       980497   -6814.5997    729.97214   -7544.5718    4384.4392   -11929.011    130.19167   -310.35877   -756.07428     -105.843    56.400756   -25.520631    129.90342      46.7237      46.7237      46.7237           90           90           90     102002.7   -390.75868 
  982000       981497   -6823.9332    718.91843   -7542.8516    4403.1447   -11945.996    128.22022   -651.32523   -820.20711    -377.4883   -16.198393   -31.399981   -165.91001      46.7237      46.7237      46.7237           90           90           90     102002.7   -616.34022 
  983000       982497   -6818.5364    711.90177   -7530.4382    4399.0258   -11929.464    126.96879   -553.70964   -1043.8038    -688.7265   -14.247917    180.32384    250.33847      46.7237      46.7237      46.7237           90           90           90     102002.7   -762.07998 
  984000       983497   -6773.5547    751.32275   -7524.8774    4405.5106   -11930.388    133.99958    -483.1795    -712.0953   -545.74602   -3.6587351   -66.568268   -36.724038      46.7237      46.7237      46.7237           90           90           90     102002.7   -580.34027 
  985000       984497   -6808.0855    720.23408   -7528.3196    4383.8004    -11912.12    128.45487   -901.02804    391.47405   -741.21129    66.199304   -28.562732   -46.605559      46.7237      46.7237      46.7237           90           90           90     102002.7   -416.92176 
  986000       985497   -6791.1958    712.20416   -7503.3999     4425.509   -11928.909    127.02272   -702.53069   -1349.1021   -1133.3032    197.63948    147.64314    138.77505      46.7237      46.7237      46.7237           90           90           90     102002.7   -1061.6453 
  987000       986497   -6830.9977    716.11828    -7547.116    4370.7002   -11917.816    127.72081   -557.07722   -802.86002   -141.15707   -158.55651    133.38535    35.630524      46.7237      46.7237      46.7237           90           90           90     102002.7   -500.36477 
  988000       987497   -6806.5763    731.54476    -7538.121    4379.1902   -11917.311    130.47215   -591.48162    -388.2795    -295.3279   -142.93961    158.63786   -12.284407      46.7237      46.7237      46.7237           90           90           90     102002.7   -425.02967 
  989000       988497   -6797.1137    740.73036    -7537.844    4386.9506   -11924.795    132.11041   -881.45081   -533.28289   -399.42028   -75.919626   -113.67473    115.97715      46.7237      46.7237      46.7237           90           90           90     102002.7   -604.71799 
  990000       989497   -6807.5066    734.57911   -7542.0857    4390.2949   -11932.381    131.01333   -630.09676   -387.45637     90.49878   -98.607438     263.9995   -117.00064      46.7237      46.7237      46.7237           90           90           90     102002.7   -309.01811 
  991000       990497   -6781.4037    745.77646   -7527.1801    4391.5181   -11918.698    133.01039   -607.40749   -995.21073   -767.93781    2.3155302   -258.04725   -78.972056      46.7237      46.7237      46.7237           90           90           90     102002.7   -790.18534 
  992000       991497   -6801.9979    742.47938   -7544.4773    4383.3262   -11927.803    132.42235    -341.5346   -433.12198   -640.94105    12.631458    121.18862   -232.86552      46.7237      46.7237      46.7237           90           90           90     102002.7   -471.86588 
  993000       992497   -6818.3652    698.38434   -7516.7496    4395.1503     -11911.9    124.55793   -676.46511   -750.65012   -1020.3256     196.1668    9.4103141   -132.19627      46.7237      46.7237      46.7237           90           90           90     102002.7   -815.81361 
  994000       993497   -6820.9791    731.70021   -7552.6793    4383.3327   -11936.012    130.49987   -560.35402   -648.65778   -1115.1104    122.26842    -195.7502    -8.637754      46.7237      46.7237      46.7237           90           90           90     102002.7   -774.70739 
  995000       994497   -6795.7767    744.76365   -7540.5403    4388.8421   -11929.382    132.82976   -260.21807    -982.4717   -747.79886   -297.61279     145.8541   -289.45519      46.7237      46.7237      46.7237           90           90           90     102002.7   -663.49621 
  996000       995497   -6808.7793    706.59747   -7515.3767    4419.8581   -11935.235    126.02276   -902.51891   -538.30335   -651.58429   -148.56309   -63.991133   -128.81015      46.7237      46.7237      46.7237           90           90           90     102002.7   -697.46885 
  997000       996497   -6831.7319    720.23631   -7551.9682    4380.9249   -11932.893    128.45527    -715.5734   -640.78291   -1119.5027    -197.4374    106.27098    21.689038      46.7237      46.7237      46.7237           90           90           90     102002.7   -825.28633 
  998000       997497   -6764.0278    743.76629   -7507.7941    4434.6458    -11942.44    132.65188   -510.45193   -457.97852   -818.96941   -352.41418   -192.71966   -72.177085      46.7237      46.7237      46.7237           90           90           90     102002.7   -595.79995 
  999000       998497   -6812.0224    728.38113   -7540.4035    4386.0236   -11926.427    129.90791   -767.03525   -781.78483   -1119.3387   -106.21776    100.55499    25.065172      46.7237      46.7237      46.7237           90           90           90     102002.7   -889.38626 
 1000000       999497   -6788.2693    742.14233   -7530.4117    4415.9324   -11946.344    132.36224   -916.46841   -740.72065   -815.04161    -56.28404   -25.083421    33.535416      46.7237      46.7237      46.7237           90           90           90     102002.7   -824.07689 
 1000503      1000000   -6825.1157    726.27937   -7551.3951    4387.2863   -11938.681    129.53306   -863.79693   -641.85908   -765.32516   -123.63795   -121.38626    20.462724      46.7237      46.7237      46.7237           90           90           90     102002.7   -756.99372 
Loop time of 1561.95 on 16 procs for 500000 steps with 1882 atoms

Performance: 27.658 ns/day, 0.868 hours/ns, 320.112 timesteps/s
99.8% CPU use with 16 MPI tasks x no OpenMP threads

MPI task timing breakdown:
Section |  min time  |  avg time  |  max time  |%varavg| %total
---------------------------------------------------------------
Pair    | 559.93     | 829.44     | 1085.6     | 666.2 | 53.10
Bond    | 165.71     | 183.27     | 201.13     | 114.1 | 11.73
Neigh   | 6.7232     | 6.7597     | 6.7988     |   1.0 |  0.43
Comm    | 243.84     | 513.96     | 798.57     | 908.3 | 32.90
Output  | 0.10186    | 0.10686    | 0.1073     |   0.4 |  0.01
Modify  | 22.057     | 23.047     | 24.891     |  20.2 |  1.48
Other   |            | 5.374      |            |       |  0.34

Nlocal:    117.625 ave 171 max 86 min
Histogram: 3 3 1 2 1 2 2 1 0 1
Nghost:    2381.81 ave 2413 max 2320 min
Histogram: 1 0 1 0 4 0 3 0 3 4
Neighs:    11460.2 ave 20069 max 5546 min
Histogram: 2 6 0 0 1 2 1 3 0 1

Total # of neighbors = 183363
Ave neighs/atom = 97.4299
Ave special neighs/atom = 6.12115
Neighbor list builds = 4658
Dangerous builds = 0
Total wall time: 0:47:22
