LAMMPS (30 Mar 2018)
Reading data file ...
  orthogonal box = (0 0 0) to (46.7237 46.7237 46.7237)
  2 by 2 by 4 MPI processor grid
  reading atoms ...
  1731 atoms
  scanning bonds ...
  5 = max bonds/atom
  scanning angles ...
  10 = max angles/atom
  scanning dihedrals ...
  32 = max dihedrals/atom
  scanning impropers ...
  3 = max impropers/atom
  reading bonds ...
  2064 bonds
  reading angles ...
  3696 angles
  reading dihedrals ...
  6240 dihedrals
  reading impropers ...
  1008 impropers
Finding 1-2 1-3 1-4 neighbors ...
  special bond factors lj:   0          0          0         
  special bond factors coul: 0          0          0         
  5 = max # of 1-2 neighbors
  8 = max # of 1-3 neighbors
  20 = max # of 1-4 neighbors
  19 = max # of special neighbors
Finding 1-2 1-3 1-4 neighbors ...
  special bond factors lj:   0          0          1         
  special bond factors coul: 1          1          1         
  5 = max # of 1-2 neighbors
  8 = max # of 1-3 neighbors
  19 = max # of special neighbors
WARNING: Using 'neigh_modify every 1 delay 0 check yes' setting during minimization (../min.cpp:168)
Neighbor list info ...
  update every 1 steps, delay 0 steps, check yes
  max neighbors/atom: 2000, page size: 100000
  master list distance cutoff = 16
  ghost atom cutoff = 16
  binsize = 8, bins = 6 6 6
  3 neighbor lists, perpetual/occasional/extra = 3 0 0
  (1) pair buck6d/coul/gauss/dsf, perpetual, skip from (3)
      attributes: half, newton on
      pair build: skip
      stencil: none
      bin: none
  (2) pair lj/cut, perpetual, skip from (3)
      attributes: half, newton on
      pair build: skip
      stencil: none
      bin: none
  (3) neighbor class addition, perpetual
      attributes: half, newton on
      pair build: half/bin/newton
      stencil: half/bin/3d/newton
      bin: standard
Setting up cg style minimization ...
  Unit style    : real
  Current step  : 0
WARNING: Inconsistent image flags (../domain.cpp:786)
Per MPI rank memory allocation (min/avg/max) = 22.89 | 23.35 | 23.79 Mbytes
Step Temp E_pair E_mol TotEng Press 
       0            0   -11521.661    6482.8914   -5038.7698    6287.8645 
     502            0   -11541.831    3738.6061   -7803.2248   -470.89992 
Loop time of 3.33028 on 16 procs for 502 steps with 1731 atoms

99.9% CPU use with 16 MPI tasks x no OpenMP threads

Minimization stats:
  Stopping criterion = max force evaluations
  Energy initial, next-to-last, final = 
        -5038.76983421     -7803.18437604      -7803.2247606
  Force two-norm initial, final = 2576.99 9.70067
  Force max component initial, final = 151.967 1.29853
  Final line search alpha, max atom move = 0.0113316 0.0147144
  Iterations, force evaluations = 502 1000

MPI task timing breakdown:
Section |  min time  |  avg time  |  max time  |%varavg| %total
---------------------------------------------------------------
Pair    | 1.1456     | 1.6941     | 2.5329     |  23.2 | 50.87
Bond    | 0.32282    | 0.38002    | 0.53058    |   8.5 | 11.41
Neigh   | 0.023314   | 0.023724   | 0.02397    |   0.1 |  0.71
Comm    | 0.19928    | 1.1882     | 1.7572     |  30.6 | 35.68
Output  | 0          | 0          | 0          |   0.0 |  0.00
Modify  | 0          | 0          | 0          |   0.0 |  0.00
Other   |            | 0.04415    |            |       |  1.33

Nlocal:    108.188 ave 123 max 88 min
Histogram: 1 0 2 0 2 2 4 1 3 1
Nghost:    2185.31 ave 2205 max 2171 min
Histogram: 2 1 2 2 4 2 1 0 1 1
Neighs:    11442.4 ave 15872 max 6242 min
Histogram: 1 1 3 2 0 1 3 1 2 2

Total # of neighbors = 183078
Ave neighs/atom = 105.764
Ave special neighs/atom = 6.65511
Neighbor list builds = 15
Dangerous builds = 0
Neighbor list info ...
  update every 1 steps, delay 10 steps, check yes
  max neighbors/atom: 2000, page size: 100000
  master list distance cutoff = 16
  ghost atom cutoff = 16
  binsize = 8, bins = 6 6 6
  3 neighbor lists, perpetual/occasional/extra = 3 0 0
  (1) pair buck6d/coul/gauss/dsf, perpetual, skip from (3)
      attributes: half, newton on
      pair build: skip
      stencil: none
      bin: none
  (2) pair lj/cut, perpetual, skip from (3)
      attributes: half, newton on
      pair build: skip
      stencil: none
      bin: none
  (3) neighbor class addition, perpetual
      attributes: half, newton on
      pair build: half/bin/newton
      stencil: half/bin/3d/newton
      bin: standard
Setting up Verlet run ...
  Unit style    : real
  Current step  : 502
  Time step     : 1
WARNING: Inconsistent image flags (../domain.cpp:786)
Per MPI rank memory allocation (min/avg/max) = 22.54 | 22.64 | 22.75 Mbytes
Step Temp PotEng TotEng Press Volume Lx Ly Lz 
     502          130   -7803.2248   -7132.8406   -170.46879     102002.7      46.7237      46.7237      46.7237 
    1000    117.22562   -7217.6762   -6613.1669    -693.1461     102002.7      46.7237      46.7237      46.7237 
    2000    133.60991   -7123.9525   -6434.9527   -623.80556     102002.7      46.7237      46.7237      46.7237 
    3000    122.80457   -7088.8331   -6455.5543   -873.43411     102002.7      46.7237      46.7237      46.7237 
    4000    126.16914    -7124.428   -6473.7988   -679.17963     102002.7      46.7237      46.7237      46.7237 
    5000     129.7373   -7103.0329   -6434.0034   -1042.8293     102002.7      46.7237      46.7237      46.7237 
    6000    125.28427   -7156.9353   -6510.8692   -808.38213     102002.7      46.7237      46.7237      46.7237 
    7000    133.81489   -7125.4952   -6435.4384    -591.8632     102002.7      46.7237      46.7237      46.7237 
    8000    130.93484   -7116.2045   -6440.9995   -723.25408     102002.7      46.7237      46.7237      46.7237 
    9000    126.48196   -7137.5747   -6485.3324   -581.18054     102002.7      46.7237      46.7237      46.7237 
   10000    132.09317   -7146.6104   -6465.4321   -465.75225     102002.7      46.7237      46.7237      46.7237 
   11000    130.80599   -7095.5855    -6421.045    -308.9274     102002.7      46.7237      46.7237      46.7237 
   12000    130.10326   -7130.6522   -6459.7356   -652.49566     102002.7      46.7237      46.7237      46.7237 
   13000    129.82559   -7126.5072   -6457.0225   -531.66809     102002.7      46.7237      46.7237      46.7237 
   14000     129.9161   -7123.5151   -6453.5636   -961.37884     102002.7      46.7237      46.7237      46.7237 
   15000    127.25558   -7127.0625   -6470.8308   -782.86741     102002.7      46.7237      46.7237      46.7237 
   16000    130.27793   -7110.7674   -6438.9501   -802.74223     102002.7      46.7237      46.7237      46.7237 
   17000    129.83278   -7130.2908    -6460.769    -720.8115     102002.7      46.7237      46.7237      46.7237 
   18000    128.10181   -7099.6384   -6439.0429   -597.60405     102002.7      46.7237      46.7237      46.7237 
   19000    127.50209   -7123.0833   -6465.5803   -562.11337     102002.7      46.7237      46.7237      46.7237 
   20000    134.24229      -7122.5   -6430.2392    -506.9046     102002.7      46.7237      46.7237      46.7237 
   21000    128.64344   -7117.1279   -6453.7392   -640.81339     102002.7      46.7237      46.7237      46.7237 
   22000    132.80922   -7108.2985   -6423.4278   -611.92118     102002.7      46.7237      46.7237      46.7237 
   23000    127.94287   -7112.2874   -6452.5114   -172.19798     102002.7      46.7237      46.7237      46.7237 
   24000    130.23764   -7106.8937    -6435.284   -369.82161     102002.7      46.7237      46.7237      46.7237 
   25000     129.3735   -7121.5587   -6454.4053   -489.13544     102002.7      46.7237      46.7237      46.7237 
   26000    126.31528   -7115.9269   -6464.5441   -698.90017     102002.7      46.7237      46.7237      46.7237 
   27000     128.9338   -7099.3005   -6434.4145   -509.07675     102002.7      46.7237      46.7237      46.7237 
   28000    133.85221   -7121.1711   -6430.9219   -717.93801     102002.7      46.7237      46.7237      46.7237 
   29000    130.79359   -7125.5899   -6451.1133   -880.17733     102002.7      46.7237      46.7237      46.7237 
   30000    127.81697   -7106.4413   -6447.3146   -729.86289     102002.7      46.7237      46.7237      46.7237 
   31000    125.80418   -7146.9284   -6498.1812   -861.36516     102002.7      46.7237      46.7237      46.7237 
   32000    130.24817   -7122.7623   -6451.0984   -813.90795     102002.7      46.7237      46.7237      46.7237 
   33000    130.35268   -7133.5654   -6461.3625    -560.3151     102002.7      46.7237      46.7237      46.7237 
   34000    134.73772    -7135.585   -6440.7694   -458.18005     102002.7      46.7237      46.7237      46.7237 
   35000    129.79523   -7126.3754   -6457.0472   -306.21809     102002.7      46.7237      46.7237      46.7237 
   36000    126.34474   -7136.2765   -6484.7418   -581.51727     102002.7      46.7237      46.7237      46.7237 
   37000    131.28614   -7119.6908   -6442.6743   -797.20177     102002.7      46.7237      46.7237      46.7237 
   38000    128.82077   -7105.1396   -6440.8365   -626.69882     102002.7      46.7237      46.7237      46.7237 
   39000    129.73024   -7131.0294   -6462.0363   -829.82657     102002.7      46.7237      46.7237      46.7237 
   40000    129.34518   -7114.6362   -6447.6288    -1145.851     102002.7      46.7237      46.7237      46.7237 
   41000    130.42608    -7128.168   -6455.5866   -542.84185     102002.7      46.7237      46.7237      46.7237 
   42000    129.27181    -7094.024   -6427.3949   -675.28362     102002.7      46.7237      46.7237      46.7237 
   43000    129.31667   -7114.8317   -6447.9713   -583.14843     102002.7      46.7237      46.7237      46.7237 
   44000    127.98472   -7135.6594   -6475.6677   -565.86476     102002.7      46.7237      46.7237      46.7237 
   45000    131.81427   -7131.5137   -6451.7737   -874.62178     102002.7      46.7237      46.7237      46.7237 
   46000    133.10375   -7114.2218   -6427.8322   -705.24345     102002.7      46.7237      46.7237      46.7237 
   47000    131.75353   -7111.6579   -6432.2311   -607.36549     102002.7      46.7237      46.7237      46.7237 
   48000     130.5747   -7131.5212   -6458.1734   -807.54667     102002.7      46.7237      46.7237      46.7237 
   49000    130.60437   -7139.3692   -6465.8684   -663.24332     102002.7      46.7237      46.7237      46.7237 
   50000    125.38632   -7124.7865   -6478.1942   -786.82557     102002.7      46.7237      46.7237      46.7237 
   51000    132.21761    -7127.808    -6445.988   -992.97919     102002.7      46.7237      46.7237      46.7237 
   52000     127.8714   -7124.7578   -6465.3504   -519.10204     102002.7      46.7237      46.7237      46.7237 
   53000     131.4487    -7132.017   -6454.1622   -863.05705     102002.7      46.7237      46.7237      46.7237 
   54000    133.06708   -7121.0695    -6434.869   -638.73729     102002.7      46.7237      46.7237      46.7237 
   55000    128.61717   -7143.2846   -6480.0314   -837.19911     102002.7      46.7237      46.7237      46.7237 
   56000    134.57366   -7120.2198   -6426.2502   -794.53551     102002.7      46.7237      46.7237      46.7237 
   57000    129.41734     -7129.66   -6462.2804   -1051.2509     102002.7      46.7237      46.7237      46.7237 
   58000    129.19221   -7150.5357   -6484.3171   -474.09337     102002.7      46.7237      46.7237      46.7237 
   59000     131.1766   -7099.5622   -6423.1105    -391.6749     102002.7      46.7237      46.7237      46.7237 
   60000    128.43509    -7145.244   -6482.9297   -603.25144     102002.7      46.7237      46.7237      46.7237 
   61000    131.26791   -7127.4393   -6450.5168   -549.57925     102002.7      46.7237      46.7237      46.7237 
   62000    130.22172   -7149.5688   -6478.0412    -754.5889     102002.7      46.7237      46.7237      46.7237 
   63000    130.39736    -7116.217   -6443.7837   -697.65159     102002.7      46.7237      46.7237      46.7237 
   64000    127.31502   -7121.7596   -6465.2213   -739.89551     102002.7      46.7237      46.7237      46.7237 
   65000    134.09255   -7117.2855   -6425.7968   -703.78474     102002.7      46.7237      46.7237      46.7237 
   66000    132.50767   -7142.8088   -6459.4931    -394.0959     102002.7      46.7237      46.7237      46.7237 
   67000    131.16562   -7116.2203   -6439.8253    -1003.441     102002.7      46.7237      46.7237      46.7237 
   68000    129.60872   -7138.4524    -6470.086   -554.46356     102002.7      46.7237      46.7237      46.7237 
   69000    129.88549   -7111.9115   -6442.1179   -421.93118     102002.7      46.7237      46.7237      46.7237 
   70000    127.50117   -7121.5053   -6464.0071   -790.28341     102002.7      46.7237      46.7237      46.7237 
   71000       128.97   -7110.4681   -6445.3954    -693.7646     102002.7      46.7237      46.7237      46.7237 
   72000    130.79314   -7109.7722   -6435.2979   -474.26054     102002.7      46.7237      46.7237      46.7237 
   73000    129.54765    -7133.275   -6465.2235   -596.08933     102002.7      46.7237      46.7237      46.7237 
   74000     134.4902    -7132.567   -6439.0277   -596.91002     102002.7      46.7237      46.7237      46.7237 
   75000    129.10713   -7145.7769    -6479.997   -559.21406     102002.7      46.7237      46.7237      46.7237 
   76000    129.81582   -7104.2501   -6434.8157   -660.79505     102002.7      46.7237      46.7237      46.7237 
   77000    130.53913   -7148.6491   -6475.4847   -691.66817     102002.7      46.7237      46.7237      46.7237 
   78000    130.19594   -7095.9362   -6424.5416   -499.12834     102002.7      46.7237      46.7237      46.7237 
   79000    131.32546   -7121.4114    -6444.192   -898.14985     102002.7      46.7237      46.7237      46.7237 
   80000    126.72613   -7154.0994   -6500.5979   -651.49128     102002.7      46.7237      46.7237      46.7237 
   81000     130.5346   -7116.3179   -6443.1769   -808.77877     102002.7      46.7237      46.7237      46.7237 
   82000    129.56639   -7126.3069   -6458.1587   -978.26261     102002.7      46.7237      46.7237      46.7237 
   83000    132.93464   -7118.7159   -6433.1983   -508.21572     102002.7      46.7237      46.7237      46.7237 
   84000    130.20783   -7135.9245   -6464.4686   -965.00286     102002.7      46.7237      46.7237      46.7237 
   85000    129.68468   -7119.4286   -6450.6704    -794.6717     102002.7      46.7237      46.7237      46.7237 
   86000    134.60489   -7129.2915   -6435.1608   -484.33902     102002.7      46.7237      46.7237      46.7237 
   87000     131.3086   -7118.7692   -6441.6368   -323.42997     102002.7      46.7237      46.7237      46.7237 
   88000    131.25596   -7113.7599    -6436.899   -766.93122     102002.7      46.7237      46.7237      46.7237 
   89000    130.59747   -7128.4767   -6455.0115   -467.26685     102002.7      46.7237      46.7237      46.7237 
   90000    133.09815    -7128.793   -6442.4322   -718.13538     102002.7      46.7237      46.7237      46.7237 
   91000    125.31288   -7108.7023   -6462.4887   -863.52922     102002.7      46.7237      46.7237      46.7237 
   92000    129.54101   -7106.0516   -6438.0344   -844.66389     102002.7      46.7237      46.7237      46.7237 
   93000    124.25392   -7107.0941   -6466.3413   -762.55905     102002.7      46.7237      46.7237      46.7237 
   94000    129.59852   -7123.2534   -6454.9396    -520.4385     102002.7      46.7237      46.7237      46.7237 
   95000    126.41909   -7095.3011   -6443.3829   -781.49343     102002.7      46.7237      46.7237      46.7237 
   96000    129.76215    -7137.051   -6467.8934   -669.42647     102002.7      46.7237      46.7237      46.7237 
   97000    132.26358   -7096.4394   -6414.3824   -733.49822     102002.7      46.7237      46.7237      46.7237 
   98000    127.54091   -7122.9217   -6465.2186   -620.83497     102002.7      46.7237      46.7237      46.7237 
   99000    129.86749   -7123.6055   -6453.9047   -928.08113     102002.7      46.7237      46.7237      46.7237 
  100000    126.67502   -7131.9511   -6478.7132   -568.28629     102002.7      46.7237      46.7237      46.7237 
  101000    130.14779   -7125.1331   -6453.9868   -907.15059     102002.7      46.7237      46.7237      46.7237 
  102000    131.17756   -7143.5173   -6467.0607   -877.97514     102002.7      46.7237      46.7237      46.7237 
  103000    129.47779   -7118.0223   -6450.3311   -860.81865     102002.7      46.7237      46.7237      46.7237 
  104000    136.07425   -7108.4943   -6406.7865    -527.7491     102002.7      46.7237      46.7237      46.7237 
  105000    130.27568   -7107.3559   -6435.5501   -597.78797     102002.7      46.7237      46.7237      46.7237 
  106000    128.18681   -7150.4503   -6489.4163    -875.9573     102002.7      46.7237      46.7237      46.7237 
  107000    130.71046   -7114.9313   -6440.8835   -620.09798     102002.7      46.7237      46.7237      46.7237 
  108000    134.91158   -7138.1455   -6442.4333   -648.28612     102002.7      46.7237      46.7237      46.7237 
  109000     129.1388   -7133.7553   -6467.8121   -449.70602     102002.7      46.7237      46.7237      46.7237 
  110000    132.33893   -7117.3847   -6434.9391   -551.11171     102002.7      46.7237      46.7237      46.7237 
  111000    132.72694   -7118.4396   -6433.9931   -615.65189     102002.7      46.7237      46.7237      46.7237 
  112000    129.67779   -7136.8129   -6468.0903   -789.49808     102002.7      46.7237      46.7237      46.7237 
  113000      129.886   -7147.3986   -6477.6023   -639.08137     102002.7      46.7237      46.7237      46.7237 
  114000    128.05789   -7107.1608   -6446.7917   -1079.9126     102002.7      46.7237      46.7237      46.7237 
  115000    132.02309   -7113.3102   -6432.4934   -567.42056     102002.7      46.7237      46.7237      46.7237 
  116000    130.46352   -7131.8201   -6459.0456    -668.8455     102002.7      46.7237      46.7237      46.7237 
  117000    127.97742   -7115.4484   -6455.4943   -726.43613     102002.7      46.7237      46.7237      46.7237 
  118000    131.71302   -7110.6327   -6431.4148    -497.8777     102002.7      46.7237      46.7237      46.7237 
  119000    131.27326   -7137.0459   -6460.0958   -577.49747     102002.7      46.7237      46.7237      46.7237 
  120000    129.73849   -7125.5378   -6456.5022   -752.17336     102002.7      46.7237      46.7237      46.7237 
  121000    133.15329   -7101.0877   -6414.4427   -637.39747     102002.7      46.7237      46.7237      46.7237 
  122000    131.45551   -7158.1059   -6480.2159   -954.42637     102002.7      46.7237      46.7237      46.7237 
  123000    132.56883   -7126.6822   -6443.0511   -642.15018     102002.7      46.7237      46.7237      46.7237 
  124000    128.32869   -7134.9609   -6473.1953    -752.1856     102002.7      46.7237      46.7237      46.7237 
  125000    131.81073   -7117.9367    -6438.215   -439.89314     102002.7      46.7237      46.7237      46.7237 
  126000    125.89198    -7141.529   -6492.3291   -896.89101     102002.7      46.7237      46.7237      46.7237 
  127000    130.72979    -7122.137   -6447.9895   -469.21978     102002.7      46.7237      46.7237      46.7237 
  128000     130.9919   -7138.1231   -6462.6238   -866.76799     102002.7      46.7237      46.7237      46.7237 
  129000     131.7175   -7113.6373   -6434.3964   -580.52572     102002.7      46.7237      46.7237      46.7237 
  130000    132.77958   -7152.4961   -6467.7782   -1051.6605     102002.7      46.7237      46.7237      46.7237 
  131000    130.76578   -7117.8229   -6443.4898   -930.48709     102002.7      46.7237      46.7237      46.7237 
  132000    129.45119   -7111.7908   -6444.2367   -646.65202     102002.7      46.7237      46.7237      46.7237 
  133000    126.31675   -7124.0607   -6472.6703    -904.1969     102002.7      46.7237      46.7237      46.7237 
  134000    132.61404   -7139.4826   -6455.6183   -585.85509     102002.7      46.7237      46.7237      46.7237 
  135000    128.63295   -7119.7097   -6456.3751   -951.35192     102002.7      46.7237      46.7237      46.7237 
  136000    127.63578   -7122.3963   -6464.2039   -648.66428     102002.7      46.7237      46.7237      46.7237 
  137000    133.44132   -7126.9085   -6438.7781    -941.4664     102002.7      46.7237      46.7237      46.7237 
  138000    132.10367   -7139.4498   -6458.2174   -1079.4524     102002.7      46.7237      46.7237      46.7237 
  139000    128.77668   -7110.8303   -6446.7545   -840.05982     102002.7      46.7237      46.7237      46.7237 
  140000    130.43866   -7114.9503    -6442.304   -863.93938     102002.7      46.7237      46.7237      46.7237 
  141000    126.52934   -7120.3973   -6467.9106   -634.73583     102002.7      46.7237      46.7237      46.7237 
  142000    127.21704   -7118.7335   -6462.7005   -1077.0556     102002.7      46.7237      46.7237      46.7237 
  143000    127.01058   -7116.9813    -6462.013   -910.15841     102002.7      46.7237      46.7237      46.7237 
  144000    130.68945   -7129.3093   -6455.3698   -777.99407     102002.7      46.7237      46.7237      46.7237 
  145000    128.36943   -7129.6585   -6467.6828   -1038.8479     102002.7      46.7237      46.7237      46.7237 
  146000    133.96228   -7131.1022   -6440.2853   -774.00388     102002.7      46.7237      46.7237      46.7237 
  147000    131.36655   -7126.3988   -6448.9676   -668.91172     102002.7      46.7237      46.7237      46.7237 
  148000    127.08811   -7125.8782   -6470.5101   -568.23833     102002.7      46.7237      46.7237      46.7237 
  149000    128.48759    -7108.926    -6446.341   -630.58657     102002.7      46.7237      46.7237      46.7237 
  150000    131.74633   -7127.9932   -6448.6036   -856.68892     102002.7      46.7237      46.7237      46.7237 
  151000    131.65355   -7114.9636   -6436.0524   -644.28814     102002.7      46.7237      46.7237      46.7237 
  152000    130.93219   -7132.8326   -6457.6413   -804.10756     102002.7      46.7237      46.7237      46.7237 
  153000    133.43066   -7114.5714    -6426.496   -889.39044     102002.7      46.7237      46.7237      46.7237 
  154000     131.6074   -7119.7892    -6441.116   -839.49986     102002.7      46.7237      46.7237      46.7237 
  155000    131.31559   -7105.7964   -6428.6279   -682.72079     102002.7      46.7237      46.7237      46.7237 
  156000    128.65293   -7130.1653   -6466.7277   -904.37035     102002.7      46.7237      46.7237      46.7237 
  157000    124.25866   -7123.3656   -6482.5883    -796.9349     102002.7      46.7237      46.7237      46.7237 
  158000    132.82979   -7133.8551   -6448.8782   -489.39087     102002.7      46.7237      46.7237      46.7237 
  159000    127.75511    -7124.893   -6466.0852   -962.96511     102002.7      46.7237      46.7237      46.7237 
  160000    130.80491   -7129.6734   -6455.1385    -273.6715     102002.7      46.7237      46.7237      46.7237 
  161000    125.42011   -7125.4291   -6478.6625   -720.57792     102002.7      46.7237      46.7237      46.7237 
  162000    131.07665   -7114.8911   -6438.9549   -496.34846     102002.7      46.7237      46.7237      46.7237 
  163000    130.63998   -7116.9462   -6443.2617   -497.91935     102002.7      46.7237      46.7237      46.7237 
  164000    126.40579   -7123.6219   -6471.7723   -662.79841     102002.7      46.7237      46.7237      46.7237 
  165000    130.14439   -7130.5491   -6459.4203   -433.92945     102002.7      46.7237      46.7237      46.7237 
  166000    129.12975   -7118.7086   -6452.8121   -669.70646     102002.7      46.7237      46.7237      46.7237 
  167000    131.94623   -7145.5942   -6465.1737      -463.82     102002.7      46.7237      46.7237      46.7237 
  168000    134.39517    -7112.572   -6419.5228   -594.57869     102002.7      46.7237      46.7237      46.7237 
  169000    130.29163   -7119.6067   -6447.7186   -487.73076     102002.7      46.7237      46.7237      46.7237 
  170000    133.06873   -7131.1447   -6444.9357   -494.36799     102002.7      46.7237      46.7237      46.7237 
  171000    132.30814   -7116.2433   -6433.9565   -812.69616     102002.7      46.7237      46.7237      46.7237 
  172000    125.84092   -7108.8472   -6459.9106   -842.97124     102002.7      46.7237      46.7237      46.7237 
  173000    131.99197   -7127.9814   -6447.3251   -634.93574     102002.7      46.7237      46.7237      46.7237 
  174000    125.87065   -7133.6784   -6484.5885   -602.06669     102002.7      46.7237      46.7237      46.7237 
  175000    134.29998   -7146.7881   -6454.2298   -548.01069     102002.7      46.7237      46.7237      46.7237 
  176000    124.58464   -7127.8413    -6485.383   -757.03548     102002.7      46.7237      46.7237      46.7237 
  177000    130.49774   -7103.9801   -6431.0292   -1029.2577     102002.7      46.7237      46.7237      46.7237 
  178000     129.0798   -7114.6113   -6448.9725   -661.88032     102002.7      46.7237      46.7237      46.7237 
  179000    132.03499   -7122.3282     -6441.45   -892.77643     102002.7      46.7237      46.7237      46.7237 
  180000     125.3885   -7108.5233   -6461.9197   -789.14195     102002.7      46.7237      46.7237      46.7237 
  181000    123.54958   -7127.9005   -6490.7799   -307.95149     102002.7      46.7237      46.7237      46.7237 
  182000    134.80719   -7141.8925   -6446.7186   -773.66573     102002.7      46.7237      46.7237      46.7237 
  183000    128.33283   -7124.3605   -6462.5736   -600.54187     102002.7      46.7237      46.7237      46.7237 
  184000    126.68264   -7126.6394   -6473.3621   -809.05081     102002.7      46.7237      46.7237      46.7237 
  185000     130.6515   -7113.4987   -6439.7549   -602.56621     102002.7      46.7237      46.7237      46.7237 
  186000     128.2733   -7132.0574   -6470.5775    -796.0722     102002.7      46.7237      46.7237      46.7237 
  187000    129.37267   -7122.8107   -6455.6615   -1047.5443     102002.7      46.7237      46.7237      46.7237 
  188000    133.08225   -7120.6409   -6434.3621   -704.12357     102002.7      46.7237      46.7237      46.7237 
  189000    132.67398   -7148.8896   -6464.7163   -922.32701     102002.7      46.7237      46.7237      46.7237 
  190000    133.52206   -7131.7041   -6443.1573    -973.8343     102002.7      46.7237      46.7237      46.7237 
  191000    128.16327   -7145.4219   -6484.5094   -630.98258     102002.7      46.7237      46.7237      46.7237 
  192000    126.23745   -7123.7275    -6472.746   -686.65352     102002.7      46.7237      46.7237      46.7237 
  193000    134.08058   -7120.1327   -6428.7058   -879.26305     102002.7      46.7237      46.7237      46.7237 
  194000    126.35123   -7118.2772    -6466.709   -738.94264     102002.7      46.7237      46.7237      46.7237 
  195000     130.2964   -7116.6222   -6444.7095   -908.74185     102002.7      46.7237      46.7237      46.7237 
  196000    126.97636   -7163.0745   -6508.2826   -676.37887     102002.7      46.7237      46.7237      46.7237 
  197000     133.4491   -7130.9227   -6442.7523   -861.37451     102002.7      46.7237      46.7237      46.7237 
  198000      132.339   -7143.0205   -6460.5746   -1009.2927     102002.7      46.7237      46.7237      46.7237 
  199000    133.08079   -7117.2939   -6431.0227   -658.32396     102002.7      46.7237      46.7237      46.7237 
  200000    130.03403   -7117.3071   -6446.7475   -620.20375     102002.7      46.7237      46.7237      46.7237 
  201000    129.71142   -7131.6231   -6462.7271   -1043.8636     102002.7      46.7237      46.7237      46.7237 
  202000    130.54724   -7124.3634   -6451.1573   -1066.9506     102002.7      46.7237      46.7237      46.7237 
  203000    127.65738    -7141.036   -6482.7323   -948.72906     102002.7      46.7237      46.7237      46.7237 
  204000    127.45062    -7108.677   -6451.4395   -356.96349     102002.7      46.7237      46.7237      46.7237 
  205000    126.76859   -7140.1916   -6486.4712   -591.74172     102002.7      46.7237      46.7237      46.7237 
  206000    131.56938   -7144.4835   -6466.0063   -668.99432     102002.7      46.7237      46.7237      46.7237 
  207000    134.42385   -7125.7029   -6432.5058    -158.7319     102002.7      46.7237      46.7237      46.7237 
  208000    133.40009   -7135.6632   -6447.7454   -522.53037     102002.7      46.7237      46.7237      46.7237 
  209000    132.34912   -7167.2199   -6484.7217   -651.33868     102002.7      46.7237      46.7237      46.7237 
  210000    128.42714   -7139.3764   -6477.1032   -562.41553     102002.7      46.7237      46.7237      46.7237 
  211000    129.58311   -7127.9402   -6459.7058   -739.75094     102002.7      46.7237      46.7237      46.7237 
  212000    127.81027    -7107.594   -6448.5019    -701.8276     102002.7      46.7237      46.7237      46.7237 
  213000    133.72829   -7127.9048   -6438.2946   -511.46576     102002.7      46.7237      46.7237      46.7237 
  214000    126.91452   -7130.2005   -6475.7276   -716.25572     102002.7      46.7237      46.7237      46.7237 
  215000    126.69156   -7135.5857   -6482.2625   -733.27744     102002.7      46.7237      46.7237      46.7237 
  216000    132.27115   -7115.9969   -6433.9009   -423.34017     102002.7      46.7237      46.7237      46.7237 
  217000    129.42836   -7129.3721   -6461.9358   -461.17943     102002.7      46.7237      46.7237      46.7237 
  218000    135.41015   -7138.5533     -6440.27   -461.02782     102002.7      46.7237      46.7237      46.7237 
  219000     131.7163   -7137.8673   -6458.6325   -777.49097     102002.7      46.7237      46.7237      46.7237 
  220000    130.48551    -7119.568   -6446.6801   -487.35964     102002.7      46.7237      46.7237      46.7237 
  221000    125.62769   -7108.1219   -6460.2849    -263.1263     102002.7      46.7237      46.7237      46.7237 
  222000    129.64386   -7101.9902   -6433.4426   -621.54892     102002.7      46.7237      46.7237      46.7237 
  223000    128.32214   -7109.9774   -6448.2456   -578.61263     102002.7      46.7237      46.7237      46.7237 
  224000    128.48695    -7110.631   -6448.0493   -613.68139     102002.7      46.7237      46.7237      46.7237 
  225000    131.21321   -7135.5586   -6458.9181    -592.4504     102002.7      46.7237      46.7237      46.7237 
  226000    137.63465   -7105.2712   -6395.5167   -767.39892     102002.7      46.7237      46.7237      46.7237 
  227000    127.53325   -7117.2283   -6459.5647   -824.03157     102002.7      46.7237      46.7237      46.7237 
  228000    129.94823   -7119.4497   -6449.3325   -662.43098     102002.7      46.7237      46.7237      46.7237 
  229000    132.67128   -7119.1032   -6434.9437   -725.87232     102002.7      46.7237      46.7237      46.7237 
  230000    124.24733   -7142.5325   -6501.8137   -575.59363     102002.7      46.7237      46.7237      46.7237 
  231000    127.65037   -7108.8609   -6450.5933   -712.07569     102002.7      46.7237      46.7237      46.7237 
  232000    130.79327   -7130.6665   -6456.1916   -550.27577     102002.7      46.7237      46.7237      46.7237 
  233000    125.03351   -7124.5367   -6479.7637   -615.39647     102002.7      46.7237      46.7237      46.7237 
  234000     132.2865   -7124.3368   -6442.1616   -350.51365     102002.7      46.7237      46.7237      46.7237 
  235000    134.87982   -7128.3222   -6432.7737   -340.14026     102002.7      46.7237      46.7237      46.7237 
  236000    129.52009   -7136.7705   -6468.8612   -591.73483     102002.7      46.7237      46.7237      46.7237 
  237000    133.17681   -7113.9626   -6427.1963   -782.04764     102002.7      46.7237      46.7237      46.7237 
  238000    131.01714   -7130.7601   -6455.1307   -934.06802     102002.7      46.7237      46.7237      46.7237 
  239000    130.86448    -7112.155   -6437.3129   -643.92075     102002.7      46.7237      46.7237      46.7237 
  240000    128.13809   -7123.8352   -6463.0525   -783.33613     102002.7      46.7237      46.7237      46.7237 
  241000    134.36298   -7136.3055   -6443.4223   -525.11705     102002.7      46.7237      46.7237      46.7237 
  242000    129.81822   -7142.9939   -6473.5472    -491.3424     102002.7      46.7237      46.7237      46.7237 
  243000    129.69642   -7124.8522   -6456.0336   -661.46855     102002.7      46.7237      46.7237      46.7237 
  244000    130.90612   -7128.5565   -6453.4996   -814.62769     102002.7      46.7237      46.7237      46.7237 
  245000     133.3629   -7147.0861   -6459.3601   -506.09432     102002.7      46.7237      46.7237      46.7237 
  246000    130.96023   -7112.1536   -6436.8177   -638.99749     102002.7      46.7237      46.7237      46.7237 
  247000    130.02205    -7139.721   -6469.2231   -651.50675     102002.7      46.7237      46.7237      46.7237 
  248000    129.41976   -7106.0215   -6438.6296   -662.82419     102002.7      46.7237      46.7237      46.7237 
  249000    129.72327   -7110.1924   -6441.2353   -794.59624     102002.7      46.7237      46.7237      46.7237 
  250000    129.29273   -7108.7497   -6442.0128   -497.01396     102002.7      46.7237      46.7237      46.7237 
  251000    128.48659   -7115.4864   -6452.9066   -829.35458     102002.7      46.7237      46.7237      46.7237 
  252000    135.22304   -7143.2245   -6445.9061   -968.00177     102002.7      46.7237      46.7237      46.7237 
  253000    128.09356   -7124.7226   -6464.1695   -928.68546     102002.7      46.7237      46.7237      46.7237 
  254000    132.92944   -7106.0031   -6420.5124   -780.75641     102002.7      46.7237      46.7237      46.7237 
  255000    128.63132   -7133.6243   -6470.2982    -1002.253     102002.7      46.7237      46.7237      46.7237 
  256000    136.27222   -7099.9229   -6397.1942   -764.54143     102002.7      46.7237      46.7237      46.7237 
  257000    127.59438    -7126.629   -6468.6501   -944.96624     102002.7      46.7237      46.7237      46.7237 
  258000    128.99165   -7111.9437   -6446.7594   -939.92659     102002.7      46.7237      46.7237      46.7237 
  259000    129.09646   -7136.6901   -6470.9653   -855.69596     102002.7      46.7237      46.7237      46.7237 
  260000    127.12764    -7124.883    -6469.311   -863.21982     102002.7      46.7237      46.7237      46.7237 
  261000    129.80188   -7112.8808   -6443.5183   -561.13926     102002.7      46.7237      46.7237      46.7237 
  262000    127.45123    -7117.001   -6459.7603   -814.68515     102002.7      46.7237      46.7237      46.7237 
  263000    131.72974   -7142.5735   -6463.2694   -609.63704     102002.7      46.7237      46.7237      46.7237 
  264000    130.28516   -7119.2131   -6447.3584   -853.89087     102002.7      46.7237      46.7237      46.7237 
  265000    128.16021   -7117.9313   -6457.0346   -421.21801     102002.7      46.7237      46.7237      46.7237 
  266000    132.03009   -7133.5051   -6452.6522   -927.34713     102002.7      46.7237      46.7237      46.7237 
  267000    125.29594   -7134.9013    -6488.775   -767.85027     102002.7      46.7237      46.7237      46.7237 
  268000    130.16529   -7140.1709   -6468.9344   -855.06123     102002.7      46.7237      46.7237      46.7237 
  269000    131.51093   -7116.6195   -6438.4438   -640.73273     102002.7      46.7237      46.7237      46.7237 
  270000    130.87132   -7138.9937   -6464.1163   -694.54253     102002.7      46.7237      46.7237      46.7237 
  271000    130.72699    -7140.563   -6466.4299   -703.59843     102002.7      46.7237      46.7237      46.7237 
  272000    131.61731   -7103.5267   -6424.8024   -877.09261     102002.7      46.7237      46.7237      46.7237 
  273000    129.47976   -7124.7778   -6457.0764   -750.83998     102002.7      46.7237      46.7237      46.7237 
  274000    131.61356   -7103.1445   -6424.4395   -522.58348     102002.7      46.7237      46.7237      46.7237 
  275000    131.68453    -7133.694    -6454.623   -688.71774     102002.7      46.7237      46.7237      46.7237 
  276000    127.77691   -7127.7832    -6468.863   -922.21471     102002.7      46.7237      46.7237      46.7237 
  277000    127.16373   -7129.1908   -6473.4327   -509.69621     102002.7      46.7237      46.7237      46.7237 
  278000    128.80406   -7131.2993   -6467.0824    -780.6193     102002.7      46.7237      46.7237      46.7237 
  279000    134.69223   -7113.8757   -6419.2946   -558.11884     102002.7      46.7237      46.7237      46.7237 
  280000    130.67879   -7131.2102   -6457.3256   -729.15687     102002.7      46.7237      46.7237      46.7237 
  281000    132.37075     -7139.69   -6457.0803   -556.63031     102002.7      46.7237      46.7237      46.7237 
  282000    131.00238   -7128.1591   -6452.6058   -851.53643     102002.7      46.7237      46.7237      46.7237 
  283000    129.13384   -7115.2409   -6449.3233   -684.26721     102002.7      46.7237      46.7237      46.7237 
  284000    131.08237   -7122.0099   -6446.0441   -1067.4837     102002.7      46.7237      46.7237      46.7237 
  285000    128.15944   -7125.9639   -6465.0711   -913.54272     102002.7      46.7237      46.7237      46.7237 
  286000    128.05577   -7131.9325   -6471.5743   -996.66394     102002.7      46.7237      46.7237      46.7237 
  287000    131.56173   -7103.9489   -6425.5112    -867.0107     102002.7      46.7237      46.7237      46.7237 
  288000    131.80843   -7142.9005   -6463.1906   -864.09653     102002.7      46.7237      46.7237      46.7237 
  289000    133.76377   -7117.7978   -6428.0046   -1038.5708     102002.7      46.7237      46.7237      46.7237 
  290000    131.06342    -7110.773    -6434.905   -893.36556     102002.7      46.7237      46.7237      46.7237 
  291000    130.27616   -7140.9749   -6469.1666   -881.51148     102002.7      46.7237      46.7237      46.7237 
  292000    131.25762   -7134.0204   -6457.1509   -945.96292     102002.7      46.7237      46.7237      46.7237 
  293000    132.54537   -7129.7103   -6446.2002   -893.37069     102002.7      46.7237      46.7237      46.7237 
  294000    124.84521   -7132.3542   -6488.5523   -989.77127     102002.7      46.7237      46.7237      46.7237 
  295000     128.7155    -7137.524   -6473.7637   -582.83918     102002.7      46.7237      46.7237      46.7237 
  296000    131.74979   -7117.7149   -6438.3074   -871.10404     102002.7      46.7237      46.7237      46.7237 
  297000    126.58339   -7143.1502   -6490.3848   -241.61541     102002.7      46.7237      46.7237      46.7237 
  298000    126.61854   -7126.4995   -6473.5528   -829.87836     102002.7      46.7237      46.7237      46.7237 
  299000    129.63822   -7135.3186      -6466.8   -579.57043     102002.7      46.7237      46.7237      46.7237 
  300000    131.87232   -7121.4379   -6441.3986   -658.98782     102002.7      46.7237      46.7237      46.7237 
  301000    126.75721   -7118.3785   -6464.7167   -484.83228     102002.7      46.7237      46.7237      46.7237 
  302000    127.01332   -7126.1639   -6471.1814   -871.70294     102002.7      46.7237      46.7237      46.7237 
  303000    129.00418   -7104.2643   -6439.0153   -902.48038     102002.7      46.7237      46.7237      46.7237 
  304000    127.06229   -7129.2586   -6474.0236   -486.30675     102002.7      46.7237      46.7237      46.7237 
  305000    129.81995   -7112.1767    -6442.721   -854.01868     102002.7      46.7237      46.7237      46.7237 
  306000     133.7929   -7139.8166   -6449.8732    -825.4014     102002.7      46.7237      46.7237      46.7237 
  307000    127.86388   -7154.4515   -6495.0829   -734.83348     102002.7      46.7237      46.7237      46.7237 
  308000    132.47875   -7132.9458   -6449.7792   -543.38603     102002.7      46.7237      46.7237      46.7237 
  309000    129.67861   -7139.9531   -6471.2263   -843.86024     102002.7      46.7237      46.7237      46.7237 
  310000    133.53067   -7135.4325   -6446.8413   -737.61968     102002.7      46.7237      46.7237      46.7237 
  311000    125.12449    -7129.946   -6484.7038   -565.84856     102002.7      46.7237      46.7237      46.7237 
  312000    130.02392   -7141.8718   -6471.3643   -700.82353     102002.7      46.7237      46.7237      46.7237 
  313000    130.95923   -7104.7875   -6429.4568   -1094.9197     102002.7      46.7237      46.7237      46.7237 
  314000    128.16415   -7129.0561   -6468.1391   -759.31868     102002.7      46.7237      46.7237      46.7237 
  315000    133.32359   -7105.5189   -6417.9956   -833.03365     102002.7      46.7237      46.7237      46.7237 
  316000    126.43682   -7116.7155   -6464.7059   -624.94941     102002.7      46.7237      46.7237      46.7237 
  317000    127.92623   -7142.8606   -6483.1705   -761.90755     102002.7      46.7237      46.7237      46.7237 
  318000    131.48785   -7112.0821   -6434.0253   -1012.8973     102002.7      46.7237      46.7237      46.7237 
  319000      128.732   -7154.2532   -6490.4078   -532.70167     102002.7      46.7237      46.7237      46.7237 
  320000    132.30314   -7115.8746   -6433.6136   -1231.2966     102002.7      46.7237      46.7237      46.7237 
  321000    126.94641   -7115.5475   -6460.9101   -648.73875     102002.7      46.7237      46.7237      46.7237 
  322000    129.38548   -7101.2722    -6434.057   -897.40756     102002.7      46.7237      46.7237      46.7237 
  323000    128.33825   -7131.2284   -6469.4135   -725.99467     102002.7      46.7237      46.7237      46.7237 
  324000     132.6386   -7128.2874   -6444.2964   -956.82852     102002.7      46.7237      46.7237      46.7237 
  325000    129.22574   -7124.1165    -6457.725   -730.87723     102002.7      46.7237      46.7237      46.7237 
  326000    131.51378   -7131.6069   -6453.4164   -925.93905     102002.7      46.7237      46.7237      46.7237 
  327000    131.88858   -7108.6566   -6428.5334   -850.43955     102002.7      46.7237      46.7237      46.7237 
  328000    128.67457   -7107.0128   -6443.4636   -832.46296     102002.7      46.7237      46.7237      46.7237 
  329000    130.56227   -7146.8671   -6473.5835   -607.98395     102002.7      46.7237      46.7237      46.7237 
  330000    132.36788   -7107.3322   -6424.7373   -696.71085     102002.7      46.7237      46.7237      46.7237 
  331000    126.96921   -7122.4501   -6467.6951   -674.53627     102002.7      46.7237      46.7237      46.7237 
  332000    129.76173   -7134.9829   -6465.8275   -779.88409     102002.7      46.7237      46.7237      46.7237 
  333000    130.15779   -7144.3362   -6473.1384    -747.8399     102002.7      46.7237      46.7237      46.7237 
  334000    128.93217   -7107.7926    -6442.915   -793.00049     102002.7      46.7237      46.7237      46.7237 
  335000    127.45514   -7118.6811   -6461.4203   -799.84163     102002.7      46.7237      46.7237      46.7237 
  336000    135.12118   -7132.2421   -6435.4491   -499.77737     102002.7      46.7237      46.7237      46.7237 
  337000    133.61664   -7114.4075   -6425.3731   -640.94404     102002.7      46.7237      46.7237      46.7237 
  338000    130.71939    -7120.919   -6446.8251   -855.98725     102002.7      46.7237      46.7237      46.7237 
  339000    126.91311   -7144.6202   -6490.1545   -971.10701     102002.7      46.7237      46.7237      46.7237 
  340000    129.86231   -7126.8266   -6457.1524   -759.81438     102002.7      46.7237      46.7237      46.7237 
  341000    132.38666   -7111.4753   -6428.7836    -1057.781     102002.7      46.7237      46.7237      46.7237 
  342000    127.52349   -7119.3647   -6461.7514   -679.02298     102002.7      46.7237      46.7237      46.7237 
  343000    130.13657   -7108.3438   -6437.2554   -930.93406     102002.7      46.7237      46.7237      46.7237 
  344000    129.20815   -7123.1781   -6456.8774   -323.22451     102002.7      46.7237      46.7237      46.7237 
  345000    132.18244   -7112.4602   -6430.8216   -537.66123     102002.7      46.7237      46.7237      46.7237 
  346000    132.36401   -7128.3278   -6445.7528   -727.55308     102002.7      46.7237      46.7237      46.7237 
  347000    129.45613   -7146.7963   -6479.2168   -593.15587     102002.7      46.7237      46.7237      46.7237 
  348000    130.84743   -7116.7353    -6441.981   -907.80403     102002.7      46.7237      46.7237      46.7237 
  349000    129.02336   -7123.3016   -6457.9538   -853.89754     102002.7      46.7237      46.7237      46.7237 
  350000    134.89264   -7126.2971   -6430.6826   -986.57294     102002.7      46.7237      46.7237      46.7237 
  351000    130.64568    -7134.255   -6460.5412   -918.85601     102002.7      46.7237      46.7237      46.7237 
  352000    128.17198   -7129.7926   -6468.8352   -834.60582     102002.7      46.7237      46.7237      46.7237 
  353000    128.32354   -7109.3153   -6447.5763   -1069.1483     102002.7      46.7237      46.7237      46.7237 
  354000    130.38153   -7129.3155   -6456.9638   -695.59637     102002.7      46.7237      46.7237      46.7237 
  355000    126.24794   -7162.2221   -6511.1865   -656.06097     102002.7      46.7237      46.7237      46.7237 
  356000    131.00185   -7131.7315    -6456.181   -953.71432     102002.7      46.7237      46.7237      46.7237 
  357000    131.33145   -7141.9615   -6464.7113   -1057.6817     102002.7      46.7237      46.7237      46.7237 
  358000    130.34534   -7115.9661   -6443.8011   -881.08231     102002.7      46.7237      46.7237      46.7237 
  359000     126.3285   -7128.9255   -6477.4746   -504.51501     102002.7      46.7237      46.7237      46.7237 
  360000    132.33637   -7128.4624     -6446.03   -882.22035     102002.7      46.7237      46.7237      46.7237 
  361000    127.67268   -7107.4219   -6449.0392   -731.09765     102002.7      46.7237      46.7237      46.7237 
  362000    131.81095   -7148.5823   -6468.8594   -616.01774     102002.7      46.7237      46.7237      46.7237 
  363000    134.36589   -7117.3459   -6424.4477   -681.33319     102002.7      46.7237      46.7237      46.7237 
  364000    130.06906   -7155.2385   -6484.4982   -891.10563     102002.7      46.7237      46.7237      46.7237 
  365000    129.68034   -7109.9272   -6441.1914   -669.88851     102002.7      46.7237      46.7237      46.7237 
  366000    128.56593    -7153.896    -6490.907   -739.15637     102002.7      46.7237      46.7237      46.7237 
  367000    130.13435   -7112.9679   -6441.8909   -932.06238     102002.7      46.7237      46.7237      46.7237 
  368000    129.48652   -7133.0204   -6465.2842   -744.44667     102002.7      46.7237      46.7237      46.7237 
  369000    129.60606   -7115.2883   -6446.9356   -774.92446     102002.7      46.7237      46.7237      46.7237 
  370000    134.03827   -7105.5842   -6414.3754   -767.29752     102002.7      46.7237      46.7237      46.7237 
  371000    126.62899   -7132.1141   -6479.1135   -563.99679     102002.7      46.7237      46.7237      46.7237 
  372000    131.22183   -7130.4875   -6453.8026   -482.51992     102002.7      46.7237      46.7237      46.7237 
  373000    128.60376   -7115.2536   -6452.0696   -982.52846     102002.7      46.7237      46.7237      46.7237 
  374000    136.20839   -7135.6019   -6433.2023   -672.42955     102002.7      46.7237      46.7237      46.7237 
  375000     127.8668   -7127.0449   -6467.6612   -582.05197     102002.7      46.7237      46.7237      46.7237 
  376000    123.30136   -7140.9822   -6505.1416     -576.644     102002.7      46.7237      46.7237      46.7237 
  377000    131.20259   -7116.2401   -6439.6544   -702.37388     102002.7      46.7237      46.7237      46.7237 
  378000    127.87241   -7127.5438   -6468.1312   -873.05173     102002.7      46.7237      46.7237      46.7237 
  379000    129.72586   -7119.5446   -6450.5741   -750.16027     102002.7      46.7237      46.7237      46.7237 
  380000    133.42559   -7123.1157   -6435.0664   -795.38561     102002.7      46.7237      46.7237      46.7237 
  381000    129.85294   -7128.1488    -6458.523   -515.22358     102002.7      46.7237      46.7237      46.7237 
  382000    126.93963   -7157.4143   -6502.8118   -635.91375     102002.7      46.7237      46.7237      46.7237 
  383000    130.37832   -7119.8493   -6447.5142   -906.53315     102002.7      46.7237      46.7237      46.7237 
  384000    127.36349    -7153.453   -6496.6648   -779.97781     102002.7      46.7237      46.7237      46.7237 
  385000    126.04622   -7113.9543    -6463.959   -769.66216     102002.7      46.7237      46.7237      46.7237 
  386000    136.73053    -7135.797   -6430.7049   -752.16797     102002.7      46.7237      46.7237      46.7237 
  387000    130.60337   -7135.4277    -6461.932   -726.62729     102002.7      46.7237      46.7237      46.7237 
  388000     129.4123   -7141.2357   -6473.8822   -793.60903     102002.7      46.7237      46.7237      46.7237 
  389000    127.24735   -7117.9266   -6461.7373   -777.77566     102002.7      46.7237      46.7237      46.7237 
  390000    133.80827   -7119.3598   -6429.3371   -870.93303     102002.7      46.7237      46.7237      46.7237 
  391000    131.04767   -7143.4964   -6467.7096   -774.00189     102002.7      46.7237      46.7237      46.7237 
  392000    130.78239   -7127.5772   -6453.1583    -455.2856     102002.7      46.7237      46.7237      46.7237 
  393000    128.76106   -7115.1562   -6451.1609   -698.33368     102002.7      46.7237      46.7237      46.7237 
  394000    128.26381   -7146.9893   -6485.5583   -610.88215     102002.7      46.7237      46.7237      46.7237 
  395000    128.55493   -7125.3163   -6462.3841   -460.28374     102002.7      46.7237      46.7237      46.7237 
  396000    129.70937   -7131.2971   -6462.4117   -761.25845     102002.7      46.7237      46.7237      46.7237 
  397000    135.62674   -7134.7819   -6435.3817   -164.48257     102002.7      46.7237      46.7237      46.7237 
  398000    127.62083   -7098.3615   -6440.2463   -585.30139     102002.7      46.7237      46.7237      46.7237 
  399000    130.06985   -7143.6192   -6472.8748   -490.27191     102002.7      46.7237      46.7237      46.7237 
  400000    130.39891   -7121.8138   -6449.3725   -628.75238     102002.7      46.7237      46.7237      46.7237 
  401000    128.17258   -7120.6293   -6459.6688   -601.42254     102002.7      46.7237      46.7237      46.7237 
  402000    126.56539    -7139.287   -6486.6144    -528.7177     102002.7      46.7237      46.7237      46.7237 
  403000    125.33698   -7093.2576   -6446.9196   -499.29453     102002.7      46.7237      46.7237      46.7237 
  404000    127.93068   -7138.2019   -6478.4888   -733.48754     102002.7      46.7237      46.7237      46.7237 
  405000    131.34075   -7115.5821    -6438.284   -884.42412     102002.7      46.7237      46.7237      46.7237 
  406000    134.10491   -7137.1399   -6445.5875    -870.4908     102002.7      46.7237      46.7237      46.7237 
  407000    130.27035   -7115.6171   -6443.8388   -775.30487     102002.7      46.7237      46.7237      46.7237 
  408000    128.01586   -7125.9581   -6465.8057    -792.3507     102002.7      46.7237      46.7237      46.7237 
  409000      126.891   -7135.8997    -6481.548   -471.50883     102002.7      46.7237      46.7237      46.7237 
  410000    134.07005   -7130.0013   -6438.6287   -1007.9549     102002.7      46.7237      46.7237      46.7237 
  411000    130.47521   -7122.8052   -6449.9705   -480.30937     102002.7      46.7237      46.7237      46.7237 
  412000    136.04094   -7148.6382   -6447.1021   -731.81593     102002.7      46.7237      46.7237      46.7237 
  413000     128.3221   -7147.0087   -6485.2771   -660.44291     102002.7      46.7237      46.7237      46.7237 
  414000    130.42703    -7142.598   -6470.0117   -532.92198     102002.7      46.7237      46.7237      46.7237 
  415000    128.85251   -7110.6045   -6446.1377   -456.31119     102002.7      46.7237      46.7237      46.7237 
  416000    131.76837   -7159.0442   -6479.5409   -442.77243     102002.7      46.7237      46.7237      46.7237 
  417000    129.49855   -7101.0142   -6433.2159   -571.07623     102002.7      46.7237      46.7237      46.7237 
  418000     130.2422    -7149.111   -6477.4778   -643.98302     102002.7      46.7237      46.7237      46.7237 
  419000    131.78795   -7130.4106   -6450.8063   -847.04979     102002.7      46.7237      46.7237      46.7237 
  420000    125.96301   -7129.1425   -6479.5763   -673.10054     102002.7      46.7237      46.7237      46.7237 
  421000    130.22812   -7128.0741   -6456.5136   -1150.6176     102002.7      46.7237      46.7237      46.7237 
  422000    127.78344   -7116.9013   -6457.9475   -827.13662     102002.7      46.7237      46.7237      46.7237 
  423000    131.61324   -7108.7266   -6430.0233   -788.49682     102002.7      46.7237      46.7237      46.7237 
  424000    125.48874    -7117.918   -6470.7975   -687.01805     102002.7      46.7237      46.7237      46.7237 
  425000     131.3549   -7121.3789   -6444.0077   -698.79376     102002.7      46.7237      46.7237      46.7237 
  426000    126.35599   -7135.8715   -6484.2787   -673.00036     102002.7      46.7237      46.7237      46.7237 
  427000    128.71267    -7129.651   -6465.9054   -757.17401     102002.7      46.7237      46.7237      46.7237 
  428000    130.52188   -7116.2386   -6443.1632   -585.60206     102002.7      46.7237      46.7237      46.7237 
  429000    128.96811   -7131.0028   -6465.9399   -356.57657     102002.7      46.7237      46.7237      46.7237 
  430000    128.46484   -7110.1633   -6447.6956   -729.77883     102002.7      46.7237      46.7237      46.7237 
  431000    132.68017   -7100.4594   -6416.2541   -768.00053     102002.7      46.7237      46.7237      46.7237 
  432000    130.13637   -7120.1127   -6449.0253   -648.63759     102002.7      46.7237      46.7237      46.7237 
  433000    131.30698   -7132.3131   -6455.1891   -791.94171     102002.7      46.7237      46.7237      46.7237 
  434000    132.46345    -7121.397   -6438.3093   -824.87246     102002.7      46.7237      46.7237      46.7237 
  435000    127.75608   -7130.5065   -6471.6938    -636.9177     102002.7      46.7237      46.7237      46.7237 
  436000    131.85362   -7107.4433   -6427.5004   -524.02102     102002.7      46.7237      46.7237      46.7237 
  437000     131.6089   -7123.4619    -6444.781   -702.20481     102002.7      46.7237      46.7237      46.7237 
  438000     124.8753   -7118.8287   -6474.8716    -550.8897     102002.7      46.7237      46.7237      46.7237 
  439000    135.64023   -7121.6856   -6422.2159   -488.26721     102002.7      46.7237      46.7237      46.7237 
  440000    127.13254   -7129.1686   -6473.5713   -532.65544     102002.7      46.7237      46.7237      46.7237 
  441000    131.33035   -7106.1935    -6428.949   -825.87901     102002.7      46.7237      46.7237      46.7237 
  442000    132.89927   -7146.0202    -6460.685   -763.87849     102002.7      46.7237      46.7237      46.7237 
  443000    128.79963   -7153.4703   -6489.2761   -524.60952     102002.7      46.7237      46.7237      46.7237 
  444000    131.69467   -7125.5161   -6446.3929   -534.27599     102002.7      46.7237      46.7237      46.7237 
  445000    130.38857   -7143.4263   -6471.0383   -218.66619     102002.7      46.7237      46.7237      46.7237 
  446000    130.94352   -7102.8738   -6427.6241   -858.33838     102002.7      46.7237      46.7237      46.7237 
  447000    129.72239     -7130.88   -6461.9274   -712.71993     102002.7      46.7237      46.7237      46.7237 
  448000    131.27743   -7103.9186   -6426.9469   -548.52345     102002.7      46.7237      46.7237      46.7237 
  449000    131.31591   -7116.3691    -6439.199   -566.10472     102002.7      46.7237      46.7237      46.7237 
  450000    131.46154   -7117.6627   -6439.7416   -929.27939     102002.7      46.7237      46.7237      46.7237 
  451000    134.48216   -7126.3959   -6432.8981   -462.87433     102002.7      46.7237      46.7237      46.7237 
  452000    126.18261   -7114.4596   -6463.7609   -887.41934     102002.7      46.7237      46.7237      46.7237 
  453000    128.60713    -7128.685   -6465.4836   -975.80036     102002.7      46.7237      46.7237      46.7237 
  454000    133.07259   -7135.5817   -6449.3527   -772.21819     102002.7      46.7237      46.7237      46.7237 
  455000    130.45181   -7099.6943   -6426.9802   -1200.7285     102002.7      46.7237      46.7237      46.7237 
  456000    127.69961   -7101.9282   -6443.4067    -929.3443     102002.7      46.7237      46.7237      46.7237 
  457000    130.40732   -7126.4653   -6453.9806   -964.67767     102002.7      46.7237      46.7237      46.7237 
  458000    130.21595   -7147.1325   -6475.6347   -931.97647     102002.7      46.7237      46.7237      46.7237 
  459000    131.51872   -7118.6914   -6440.4754   -807.56455     102002.7      46.7237      46.7237      46.7237 
  460000    122.68139   -7098.8629   -6466.2193   -127.27006     102002.7      46.7237      46.7237      46.7237 
  461000    128.64229    -7138.405   -6475.0222   -796.98903     102002.7      46.7237      46.7237      46.7237 
  462000    131.07634   -7125.4485   -6449.5138   -543.95134     102002.7      46.7237      46.7237      46.7237 
  463000    127.85663    -7132.319   -6472.9877   -670.95336     102002.7      46.7237      46.7237      46.7237 
  464000     132.3421   -7106.7313   -6424.2694   -1068.4595     102002.7      46.7237      46.7237      46.7237 
  465000    127.93898   -7128.8408   -6469.0849   -735.56415     102002.7      46.7237      46.7237      46.7237 
  466000    132.86642   -7132.4327    -6447.267   -797.72694     102002.7      46.7237      46.7237      46.7237 
  467000    130.29181   -7109.4644   -6437.5754   -890.95212     102002.7      46.7237      46.7237      46.7237 
  468000    130.08832   -7105.7237   -6434.8841   -894.26249     102002.7      46.7237      46.7237      46.7237 
  469000    128.74036   -7121.6577   -6457.7692   -808.93843     102002.7      46.7237      46.7237      46.7237 
  470000    125.46754   -7143.8368   -6496.8257    -829.6513     102002.7      46.7237      46.7237      46.7237 
  471000    129.19176   -7108.2703   -6442.0541     -770.194     102002.7      46.7237      46.7237      46.7237 
  472000    128.33849   -7139.2942   -6477.4781   -817.90824     102002.7      46.7237      46.7237      46.7237 
  473000    129.26907   -7090.8457   -6424.2308   -1095.4796     102002.7      46.7237      46.7237      46.7237 
  474000    129.31316   -7115.1653    -6448.323     -509.251     102002.7      46.7237      46.7237      46.7237 
  475000    127.63221   -7114.6742   -6456.5002   -768.97722     102002.7      46.7237      46.7237      46.7237 
  476000    124.98059   -7116.9548   -6472.4547   -690.32659     102002.7      46.7237      46.7237      46.7237 
  477000    129.13624   -7115.4665   -6449.5366   -693.37507     102002.7      46.7237      46.7237      46.7237 
  478000    129.34531   -7124.3419   -6457.3338   -515.38157     102002.7      46.7237      46.7237      46.7237 
  479000    127.51756   -7100.5344   -6442.9517   -647.39439     102002.7      46.7237      46.7237      46.7237 
  480000    130.63952   -7132.3783   -6458.6963   -676.03213     102002.7      46.7237      46.7237      46.7237 
  481000    128.90497   -7115.3878   -6450.6505   -613.84213     102002.7      46.7237      46.7237      46.7237 
  482000    128.40271   -7136.3318   -6474.1846   -990.74742     102002.7      46.7237      46.7237      46.7237 
  483000    132.83875    -7136.605    -6451.582   -929.99103     102002.7      46.7237      46.7237      46.7237 
  484000    128.39598   -7124.9805   -6462.8679   -607.75847     102002.7      46.7237      46.7237      46.7237 
  485000    131.28435   -7123.0145   -6446.0072   -422.90423     102002.7      46.7237      46.7237      46.7237 
  486000    128.90391   -7125.3079    -6460.576   -668.77893     102002.7      46.7237      46.7237      46.7237 
  487000    131.06534   -7129.6936   -6453.8157    -896.9508     102002.7      46.7237      46.7237      46.7237 
  488000    126.59733    -7099.998   -6447.1607   -716.01971     102002.7      46.7237      46.7237      46.7237 
  489000    125.84904   -7140.6476   -6491.6691   -750.92567     102002.7      46.7237      46.7237      46.7237 
  490000    131.60532   -7117.8107   -6439.1482   -826.44714     102002.7      46.7237      46.7237      46.7237 
  491000    129.31925   -7119.0232   -6452.1494   -496.32382     102002.7      46.7237      46.7237      46.7237 
  492000    134.77865   -7137.7876   -6442.7609   -358.93724     102002.7      46.7237      46.7237      46.7237 
  493000    130.89121   -7136.7367   -6461.7567    -524.7687     102002.7      46.7237      46.7237      46.7237 
  494000    131.11354   -7133.7432   -6457.6168   -640.23163     102002.7      46.7237      46.7237      46.7237 
  495000    129.86918   -7127.8661   -6458.1565   -864.53139     102002.7      46.7237      46.7237      46.7237 
  496000    127.40861   -7129.9802   -6472.9593   -678.47655     102002.7      46.7237      46.7237      46.7237 
  497000    131.56954   -7116.0989    -6437.621   -937.12282     102002.7      46.7237      46.7237      46.7237 
  498000    125.81576   -7126.3715   -6477.5646   -786.05599     102002.7      46.7237      46.7237      46.7237 
  499000    126.75971    -7112.917   -6459.2424   -834.93541     102002.7      46.7237      46.7237      46.7237 
  500000    133.27868   -7121.3216   -6434.0299   -601.34081     102002.7      46.7237      46.7237      46.7237 
  500502    136.65724   -7111.1531   -6406.4388    -588.8568     102002.7      46.7237      46.7237      46.7237 
Loop time of 1340.05 on 16 procs for 500000 steps with 1731 atoms

Performance: 32.238 ns/day, 0.744 hours/ns, 373.121 timesteps/s
99.9% CPU use with 16 MPI tasks x no OpenMP threads

MPI task timing breakdown:
Section |  min time  |  avg time  |  max time  |%varavg| %total
---------------------------------------------------------------
Pair    | 516.33     | 698.77     | 852.09     | 377.1 | 52.15
Bond    | 164.9      | 175.77     | 193.06     |  58.4 | 13.12
Neigh   | 4.3277     | 4.3465     | 4.369      |   0.8 |  0.32
Comm    | 297.68     | 447.64     | 625.78     | 452.2 | 33.41
Output  | 0.021074   | 0.021413   | 0.024675   |   0.6 |  0.00
Modify  | 7.2391     | 8.0739     | 8.6706     |  15.7 |  0.60
Other   |            | 5.415      |            |       |  0.40

Nlocal:    108.188 ave 141 max 79 min
Histogram: 1 2 1 2 4 2 0 2 0 2
Nghost:    2201.06 ave 2226 max 2168 min
Histogram: 2 0 2 1 0 3 2 2 1 3
Neighs:    11450.3 ave 16408 max 7568 min
Histogram: 1 2 3 1 3 2 1 1 1 1

Total # of neighbors = 183205
Ave neighs/atom = 105.838
Ave special neighs/atom = 6.65511
Neighbor list builds = 3502
Dangerous builds = 0
Neighbor list info ...
  update every 1 steps, delay 10 steps, check yes
  max neighbors/atom: 2000, page size: 100000
  master list distance cutoff = 16
  ghost atom cutoff = 16
  binsize = 8, bins = 6 6 6
  3 neighbor lists, perpetual/occasional/extra = 3 0 0
  (1) pair buck6d/coul/gauss/dsf, perpetual, skip from (3)
      attributes: half, newton on
      pair build: skip
      stencil: none
      bin: none
  (2) pair lj/cut, perpetual, skip from (3)
      attributes: half, newton on
      pair build: skip
      stencil: none
      bin: none
  (3) neighbor class addition, perpetual
      attributes: half, newton on
      pair build: half/bin/newton
      stencil: half/bin/3d/newton
      bin: standard
Setting up Verlet run ...
  Unit style    : real
  Current step  : 500502
  Time step     : 1
WARNING: Inconsistent image flags (../domain.cpp:786)
Per MPI rank memory allocation (min/avg/max) = 23.06 | 23.31 | 23.33 Mbytes
Step Time TotEng KinEng PotEng E_mol E_pair Temp Pxx Pyy Pzz Pxy Pxz Pyz Cella Cellb Cellc CellAlpha CellBeta CellGamma Volume Press 
  500502       500000   -6406.4388    704.71426   -7111.1531    4417.6834   -11528.836    136.65724   -207.68522   -502.83889   -1056.0463    63.522542   -121.45133    94.750149      46.7237      46.7237      46.7237           90           90           90     102002.7    -588.8568 
  501000       500498   -6468.1834    670.57354   -7138.7569    4408.0557   -11546.813    130.03672   -751.48139   -867.06569   -1122.5498   -254.96712   -87.017333    160.53224      46.7237      46.7237      46.7237           90           90           90     102002.7   -913.69896 
  502000       501498   -6469.9427    657.15219   -7127.0949    4396.5768   -11523.672    127.43407   -1070.8161   -521.94864   -1252.2533   -238.50024   -99.347802    6.8752601      46.7237      46.7237      46.7237           90           90           90     102002.7   -948.33934 
  503000       502498    -6460.027    664.91099    -7124.938    4416.6967   -11541.635    128.93865   -819.98714   -746.29706   -468.29569   -92.609482     -108.028    69.861052      46.7237      46.7237      46.7237           90           90           90     102002.7    -678.1933 
  504000       503498   -6464.9174    676.39809   -7141.3155    4394.2791   -11535.595    131.16621   -327.18229   -671.39245   -519.38843   -138.01915   -96.946345    -129.7117      46.7237      46.7237      46.7237           90           90           90     102002.7   -505.98772 
  505000       504498   -6455.4772    671.71171   -7127.1889    4401.7659   -11528.955    130.25743   -472.32833   -915.71913   -1133.6081   -190.66675   -83.960302   -301.35509      46.7237      46.7237      46.7237           90           90           90     102002.7   -840.55187 
  506000       505498   -6480.1686    660.31993   -7140.4885    4414.6089   -11555.097    128.04835   -448.72181   -504.23461   -623.67241    180.02594    29.141971   -22.847078      46.7237      46.7237      46.7237           90           90           90     102002.7   -525.54294 
  507000       506498   -6447.1244    672.88254    -7120.007    4418.5769   -11538.584    130.48448   -474.02545   -648.56475   -726.59404   -196.19283   -160.34812    115.72048      46.7237      46.7237      46.7237           90           90           90     102002.7   -616.39475 
  508000       507498   -6483.8058    644.70693   -7128.5128    4411.3945   -11539.907     125.0207   -453.22177   -757.75604   -762.54363    37.721004    138.76472   -337.65461      46.7237      46.7237      46.7237           90           90           90     102002.7   -657.84048 
  509000       508498   -6483.0412    661.74133   -7144.7825    4386.1944   -11530.977    128.32399   -699.47451   -676.45501   -223.98144    74.501412    2.9817337   -162.13677      46.7237      46.7237      46.7237           90           90           90     102002.7   -533.30365 
  510000       509498    -6433.734    671.81749   -7105.5515     4425.624   -11531.176    130.27795   -575.70905   -692.82425    95.787506   -8.7380207   -88.523472    109.90612      46.7237      46.7237      46.7237           90           90           90     102002.7   -390.91526 
  511000       510498   -6459.5394     666.9553   -7126.4947    4411.4783   -11537.973    129.33508   -923.48765    -726.5091    -505.2893   -101.09581   -17.487884   -151.52881      46.7237      46.7237      46.7237           90           90           90     102002.7   -718.42868 
  512000       511498    -6451.251    670.55037   -7121.8014    4408.2338   -11530.035    130.03223   -500.09041   -826.80336   -701.31586    217.43458   -4.0544976    106.72702      46.7237      46.7237      46.7237           90           90           90     102002.7   -676.06988 
  513000       512498   -6476.0934    654.73292   -7130.8263    4410.0385   -11540.865    126.96493   -658.55786   -1066.1138   -904.30006   -112.09838    21.755088    51.586284      46.7237      46.7237      46.7237           90           90           90     102002.7   -876.32392 
  514000       513498   -6479.8605    648.59171   -7128.4522    4417.2005   -11545.653    125.77403   -393.08793   -647.76782   -1320.9804   -15.372356   -306.49308    220.05608      46.7237      46.7237      46.7237           90           90           90     102002.7   -787.27873 
  515000       514498   -6455.3864    668.30315   -7123.6895    4415.9979   -11539.687    129.59645   -1144.4603   -498.71761   -885.29591    240.96286    22.598095   -104.63903      46.7237      46.7237      46.7237           90           90           90     102002.7    -842.8246 
  516000       515498   -6414.4133    686.43636   -7100.8496    4428.6579   -11529.508    133.11282   -545.87828   -758.66731   -527.36025   -47.054593    67.412155    -204.6925      46.7237      46.7237      46.7237           90           90           90     102002.7   -610.63528 
  517000       516498   -6464.4007    671.22136   -7135.6221    4408.3517   -11543.974    130.16234   -682.52669   -1179.2335   -987.45615    288.40857    240.67615   -313.40765      46.7237      46.7237      46.7237           90           90           90     102002.7   -949.73878 
  518000       517498   -6443.0928    682.43415   -7125.5269    4419.0338   -11544.561    132.33671   -1067.1332   -481.99175   -481.90411    148.28179     201.1927   -75.491205      46.7237      46.7237      46.7237           90           90           90     102002.7    -677.0097 
  519000       518498   -6458.2178    670.45624    -7128.674    4416.5749   -11545.249    130.01397   -451.26597   -450.58391    -805.0785   -40.493941   -130.34149   -222.35543      46.7237      46.7237      46.7237           90           90           90     102002.7   -568.97613 
  520000       519498    -6442.669    668.46825   -7111.1372    4418.1349   -11529.272    129.62847   -648.70035   -603.43552   -546.63381    51.077689   -84.930329   -94.143857      46.7237      46.7237      46.7237           90           90           90     102002.7   -599.58989 
  521000       520498   -6476.2113    656.55623   -7132.7675    4405.6373   -11538.405     127.3185   -168.50713   -163.81041   -539.91669    84.265365   -225.38257    11.838561      46.7237      46.7237      46.7237           90           90           90     102002.7   -290.74474 
  522000       521498   -6448.5871    668.50357   -7117.0906    4436.3307   -11553.421    129.63531   -621.66363   -602.15052   -407.74792   -164.62442    189.04845    283.54822      46.7237      46.7237      46.7237           90           90           90     102002.7   -543.85402 
  523000       522498   -6464.7517    668.15779   -7132.9095    4397.7943   -11530.704    129.56826   -811.93269   -812.59777   -937.76764   -279.05952   -114.95554   -69.030289      46.7237      46.7237      46.7237           90           90           90     102002.7   -854.09937 
  524000       523498   -6442.3418    668.20656   -7110.5484    4442.8718    -11553.42    129.57772   -713.69626    -921.4268   -777.81744     185.7803    58.413086     1.269602      46.7237      46.7237      46.7237           90           90           90     102002.7    -804.3135 
  525000       524498   -6472.1519    659.29407   -7131.4459    4413.1429   -11544.589    127.84942    -817.3489   -620.73337   -1194.5837    131.33249   -127.50844   -97.527875      46.7237      46.7237      46.7237           90           90           90     102002.7   -877.55531 
  526000       525498   -6455.6326     663.8152   -7119.4478    4417.6202   -11537.068    128.72615   -811.87107   -137.97533   -506.74225    -123.7899    -171.1765   -26.851157      46.7237      46.7237      46.7237           90           90           90     102002.7   -485.52955 
  527000       526498   -6434.7906    676.86883   -7111.6595    4437.8672   -11549.527    131.25749   -251.82887   -748.15346   -559.76571   -47.426834    80.195082    15.939126      46.7237      46.7237      46.7237           90           90           90     102002.7   -519.91601 
  528000       527498    -6469.049    666.36861   -7135.4176     4404.136   -11539.554    129.22131   -953.18103    75.463908   -872.11108    11.030141    151.01019    315.13971      46.7237      46.7237      46.7237           90           90           90     102002.7   -583.27607 
  529000       528498   -6447.3977    668.88747   -7116.2852    4427.5813   -11543.866    129.70976   -775.69738   -876.67574   -730.03259   -70.599482    114.79367   -68.511186      46.7237      46.7237      46.7237           90           90           90     102002.7   -794.13523 
  530000       529498   -6444.8975     662.8707   -7107.7682     4443.104   -11550.872      128.543   -901.71634   -637.32987   -753.80984   -245.17162    40.162149    253.63356      46.7237      46.7237      46.7237           90           90           90     102002.7   -764.28535 
  531000       530498    -6490.927    662.68923   -7153.6163     4404.068   -11557.684     128.5078   -587.00526   -832.72653   -827.12101    71.961593    54.166176   -254.79797      46.7237      46.7237      46.7237           90           90           90     102002.7   -748.95093 
  532000       531498   -6467.7147    655.22911   -7122.9438     4419.571   -11542.515    127.06115   -1149.9704   -833.02164   -732.49561   -29.653606    182.12659   -84.727673      46.7237      46.7237      46.7237           90           90           90     102002.7   -905.16255 
  533000       532498   -6396.7996    685.28042   -7082.0801    4456.2696    -11538.35    132.88866    -939.4595   -720.17555   -848.16889    226.48553   -41.489311    75.096655      46.7237      46.7237      46.7237           90           90           90     102002.7   -835.93465 
  534000       533498   -6456.4349    683.39841   -7139.8333    4383.2026   -11523.036     132.5237   -680.90448   -878.39004   -1170.8695    141.13368   -13.437508    335.65084      46.7237      46.7237      46.7237           90           90           90     102002.7   -910.05466 
  535000       534498   -6459.2672    669.96507   -7129.2322    4414.2668   -11543.499    129.91873   -367.48287   -650.06703   -1170.6238    93.677983   -60.118289    79.387176      46.7237      46.7237      46.7237           90           90           90     102002.7   -729.39122 
  536000       535498   -6443.3966    681.59822   -7124.9948    4407.0576   -11532.052    132.17461   -700.43371   -757.23993    -816.3287    415.40677   -119.02712    74.965407      46.7237      46.7237      46.7237           90           90           90     102002.7   -758.00078 
  537000       536498   -6461.8821    664.34545   -7126.2275    4416.5609   -11542.788    128.82898   -935.41316   -1146.5037   -1040.0594    32.906532   -170.97433   -311.85349      46.7237      46.7237      46.7237           90           90           90     102002.7   -1040.6588 
  538000       537498   -6401.2079    695.26167   -7096.4695      4448.48    -11544.95    134.82421   -627.18524   -1315.8108    -918.7328    186.87307   -210.45598     154.3093      46.7237      46.7237      46.7237           90           90           90     102002.7   -953.90962 
  539000       538498   -6466.1289    653.88157   -7120.0104    4421.9219   -11541.932    126.79984   -1108.2006   -522.14003   -817.96556    -129.1659   -13.493498   -208.12432      46.7237      46.7237      46.7237           90           90           90     102002.7   -816.10208 
  540000       539498   -6456.4887    653.51998   -7110.0086    4431.9014    -11541.91    126.72972    -774.8259   -555.58699   -720.15782    188.40001   -302.49466    -139.4382      46.7237      46.7237      46.7237           90           90           90     102002.7   -683.52357 
  541000       540498   -6431.3213    687.19089   -7118.5122    4433.8439   -11552.356    133.25913   -882.07689   -655.05014   -501.19499    -23.03893    -293.6104   -7.3903011      46.7237      46.7237      46.7237           90           90           90     102002.7   -679.44067 
  542000       541498   -6432.5744    664.31839   -7096.8928    4435.3221   -11532.215    128.82373   -431.38108   -730.82821   -1005.7687   -337.79634    301.13143    156.40878      46.7237      46.7237      46.7237           90           90           90     102002.7   -722.65932 
  543000       542498   -6485.1561    658.97006   -7144.1261    4383.1257   -11527.252    127.78659   -509.23891    -448.3112   -472.07334    92.174846    159.66708   -110.38299      46.7237      46.7237      46.7237           90           90           90     102002.7   -476.54115 
  544000       543498    -6435.222    674.04143   -7109.2634    4419.4537   -11528.717    130.70921   -631.02012   -30.099302   -775.16831   -5.5894378    -12.31475   -22.301966      46.7237      46.7237      46.7237           90           90           90     102002.7   -478.76258 
  545000       544498   -6461.4071    669.08418   -7130.4913    4398.6332   -11529.124    129.74791   -811.99663   -329.87741   -915.59427     55.94878   -36.884233   -94.117997      46.7237      46.7237      46.7237           90           90           90     102002.7   -685.82277 
  546000       545498   -6445.2947    678.75342   -7124.0481    4416.5312   -11540.579    131.62295   -664.52587   -809.58542   -118.66543   -325.71127   -241.95917    40.795118      46.7237      46.7237      46.7237           90           90           90     102002.7   -530.92557 
  547000       546498   -6457.8356    672.55425   -7130.3898    4409.0794   -11539.469    130.42082   -1037.9975   -714.12587   -444.96134    224.80205   -186.71644    278.68848      46.7237      46.7237      46.7237           90           90           90     102002.7   -732.36157 
  548000       547498   -6444.8017    690.57876   -7135.3805    4399.5271   -11534.908    133.91611   -890.47532   -795.12372   -819.47794    175.07172    71.054159    115.92918      46.7237      46.7237      46.7237           90           90           90     102002.7   -835.02566 
  549000       548498    -6478.973    658.13004    -7137.103    4394.6914   -11531.794    127.62369   -1170.6009   -940.97322   -330.66195   -88.834165   -223.70287    12.838671      46.7237      46.7237      46.7237           90           90           90     102002.7    -814.0787 
  550000       549498   -6428.4177    664.24242   -7092.6601    4450.0344   -11542.694      128.809    -1369.953   -460.86268   -849.90814   -9.8768149   -275.83489     5.352496      46.7237      46.7237      46.7237           90           90           90     102002.7   -893.57461 
  551000       550498   -6469.7345    671.70872   -7141.4432    4406.3376   -11547.781    130.25685   -614.12415    -853.7512   -1096.1437    274.61141   -85.152298    213.38291      46.7237      46.7237      46.7237           90           90           90     102002.7   -854.67301 
  552000       551498   -6420.4567     681.0658   -7101.5225    4424.0011   -11525.524    132.07137   -946.51997   -530.31431   -505.95428    -135.7723    37.200745    97.557483      46.7237      46.7237      46.7237           90           90           90     102002.7   -660.92952 
  553000       552498    -6456.123      662.521    -7118.644    4409.7588   -11528.403    128.47518   -1243.7283   -448.54089    -469.2387   -303.54434   -179.83451   -82.856594      46.7237      46.7237      46.7237           90           90           90     102002.7   -720.50263 
  554000       553498   -6427.4302    685.08564   -7112.5159    4432.3751   -11544.891    132.85089   -656.28745    -429.0218   -888.26743    233.61354    22.964248   -68.976659      46.7237      46.7237      46.7237           90           90           90     102002.7   -657.85889 
  555000       554498   -6435.9335    704.59263   -7140.5261    4392.4356   -11532.962    136.63366   -583.24183    -896.2161   -666.01469    106.81175    67.178338   -139.90618      46.7237      46.7237      46.7237           90           90           90     102002.7   -715.15754 
[...]
  936000       935498   -6425.8085    696.70658   -7122.5151    4398.2997   -11520.815     135.1044   -824.88223   -485.67375   -273.70587    132.11767    212.75316   -61.148459      46.7237      46.7237      46.7237           90           90           90     102002.7   -528.08729 
  937000       936498   -6447.8692     679.9893   -7127.8585    4397.5526   -11525.411    131.86261   -794.77592   -247.22709   -1018.0221   -34.162301   0.94410204   -136.33707      46.7237      46.7237      46.7237           90           90           90     102002.7   -686.67502 
  938000       937498    -6488.697    654.22008   -7142.9171    4400.6386   -11543.556    126.86548   -983.25295    -953.7311   -710.10811    44.723092    216.79247    112.28539      46.7237      46.7237      46.7237           90           90           90     102002.7   -882.36405 
  939000       938498    -6436.426    679.61874   -7116.0448    4408.9497   -11524.994    131.79075   -1164.4471   -776.39611   -549.72518    10.237783    141.94873   -113.47009      46.7237      46.7237      46.7237           90           90           90     102002.7   -830.18945 
  940000       939498   -6427.9316    670.28445    -7098.216     4450.706   -11548.922    129.98066   -994.54034   -856.38311   -1000.4915    153.90331    375.65324   -47.970322      46.7237      46.7237      46.7237           90           90           90     102002.7   -950.47164 
  941000       940498   -6472.1155    667.28227   -7139.3977     4384.077   -11523.475    129.39848   -1152.6222   -581.46992   -511.77971    39.934033   -53.621318   -404.70297      46.7237      46.7237      46.7237           90           90           90     102002.7   -748.62394 
  942000       941498   -6483.3515    654.74527   -7138.0968    4395.7835    -11533.88    126.96732   -709.85344   -981.55578   -284.06264    69.504491    61.641725   -115.76851      46.7237      46.7237      46.7237           90           90           90     102002.7   -658.49062 
  943000       942498   -6451.6733    680.50492   -7132.1782    4405.3035   -11537.482     131.9626   -858.58448     -445.211   -1088.1784    137.48512   -17.220445   -166.17945      46.7237      46.7237      46.7237           90           90           90     102002.7   -797.32464 
  944000       943498   -6446.4578    685.30579   -7131.7636    4399.4947   -11531.258    132.89358   -593.08849   -405.82055   -814.03503    14.063394    225.71185    177.26957      46.7237      46.7237      46.7237           90           90           90     102002.7   -604.31469 
  945000       944498   -6439.3128    670.83954   -7110.1523    4428.5402   -11538.693     130.0883   -187.41285   -1080.2937   -263.17684    62.878985    257.38332   -20.072379      46.7237      46.7237      46.7237           90           90           90     102002.7   -510.29447 
  946000       945498   -6452.0237    674.83299   -7126.8567    4404.1875   -11531.044    130.86271    157.98383   -646.97741   -828.78407   -226.17307   -55.289146   -113.54542      46.7237      46.7237      46.7237           90           90           90     102002.7   -439.25921 
  947000       946498   -6457.0811    659.09945   -7116.1806    4428.7057   -11544.886    127.81168   -1022.9478   -423.38119   -751.93038   -151.53379   -77.311547    49.981042      46.7237      46.7237      46.7237           90           90           90     102002.7   -732.75311 
  948000       947498   -6415.1893    696.66396   -7111.8532    4437.8164    -11549.67    135.09614   -550.77927   -1049.0241   -705.63531   -76.424525   -241.58483    111.29414      46.7237      46.7237      46.7237           90           90           90     102002.7   -768.47956 
  949000       948498   -6463.4451    665.58517   -7129.0302    4411.1394    -11540.17    129.06938    -694.9196   -1184.8959   -632.30667   -252.47444   -213.53386   -94.076422      46.7237      46.7237      46.7237           90           90           90     102002.7   -837.37407 
  950000       949498   -6445.1067    678.56247   -7123.6692     4428.054   -11551.723    131.58592   -958.75268   -1165.2852   -758.37369    96.449487     24.49012   -77.572461      46.7237      46.7237      46.7237           90           90           90     102002.7   -960.80385 
  951000       950498   -6419.1516     692.6815   -7111.8331     4419.007    -11530.84    134.32387   -1045.1837   -699.27025   -455.59675    292.01555   -264.47013    49.455217      46.7237      46.7237      46.7237           90           90           90     102002.7   -733.35023 
  952000       951498   -6464.0851     682.8592   -7146.9443    4389.5471   -11536.491    132.41914    45.295022   -590.96108   -550.24667   -82.601276   -55.329408   -200.56023      46.7237      46.7237      46.7237           90           90           90     102002.7   -365.30424 
  953000       952498   -6442.5512    673.97478   -7116.5259    4420.9232   -11537.449    130.69628   -681.40962   -719.06315   -1322.8289   -266.66171    309.22597    162.52596      46.7237      46.7237      46.7237           90           90           90     102002.7   -907.76723 
  954000       953498   -6442.0751    673.15926   -7115.2343    4436.5914   -11551.826    130.53814    -701.5087   -799.77266   -1176.7683     208.6231    44.884889   -100.22206      46.7237      46.7237      46.7237           90           90           90     102002.7   -892.68321 
  955000       954498   -6464.7004    668.95652   -7133.6569    4387.4348   -11521.092    129.72315   -895.44549   -431.60231     -465.966   -181.45111   -50.950688    24.758128      46.7237      46.7237      46.7237           90           90           90     102002.7   -597.67127 
  956000       955498   -6430.9491    677.44128   -7108.3903    4425.6688   -11534.059     131.3685   -962.77405   -511.36154   -681.02003   -53.806146   -104.27414   -106.19095      46.7237      46.7237      46.7237           90           90           90     102002.7   -718.38521 
  957000       956498   -6453.3627     674.0741   -7127.4368    4407.0801   -11534.517    130.71554   -863.58846   -554.67531   -1425.7012   -127.64585    205.76449    181.32411      46.7237      46.7237      46.7237           90           90           90     102002.7   -947.98834 
  958000       957498   -6453.8732    660.20786   -7114.0811    4422.1862   -11536.267    128.02662   -822.04928   -555.83259   -857.92993    -31.13506    192.36804   -114.95004      46.7237      46.7237      46.7237           90           90           90     102002.7    -745.2706 
  959000       958498   -6420.7476    682.56022   -7103.3078    4431.4087   -11534.717    132.36116   -1035.9283   -950.41178   -538.73914   -65.895295   -65.098593   -63.944092      46.7237      46.7237      46.7237           90           90           90     102002.7   -841.69308 
  960000       959498   -6455.5065    666.69612   -7122.2026    4419.9069    -11542.11    129.28482   -676.13007   -828.96767   -894.62744    -25.45409   -47.689688   -147.25071      46.7237      46.7237      46.7237           90           90           90     102002.7   -799.90839 
  961000       960498   -6455.4758     675.0691   -7130.5449    4399.0108   -11529.556    130.90849     -804.666   -656.96757    -809.8277   -107.67592   -122.98953    198.01637      46.7237      46.7237      46.7237           90           90           90     102002.7   -757.15376 
  962000       961498    -6413.863    682.90347   -7096.7665     4436.987   -11533.754    132.42772   -1044.3527   -702.76029   -402.34739   -148.05217   -89.036968   -156.81799      46.7237      46.7237      46.7237           90           90           90     102002.7   -716.48679 
  963000       962498   -6426.7639    681.91769   -7108.6816    4412.9462   -11521.628    132.23656    -354.4193   -1436.0285   -785.27708     47.70158   -11.367213   -110.22099      46.7237      46.7237      46.7237           90           90           90     102002.7   -858.57498 
  964000       963498   -6440.2497    666.36264   -7106.6124    4442.0661   -11548.678    129.22015   -926.04166   -508.08834   -852.48363   -209.79032    14.300627   -88.098066      46.7237      46.7237      46.7237           90           90           90     102002.7   -762.20455 
  965000       964498   -6483.8477    651.59899   -7135.4467    4396.4615   -11531.908     126.3572   -1239.8249      -743.29   -238.30984   -79.749457    12.425161    26.708593      46.7237      46.7237      46.7237           90           90           90     102002.7    -740.4749 
  966000       965498   -6452.4314    669.36117   -7121.7925    4402.2055   -11523.998    129.80162   -853.34255   -631.21463   -517.43494    24.829376    309.76979   -78.476504      46.7237      46.7237      46.7237           90           90           90     102002.7    -667.3307 
  967000       966498   -6454.6885    673.36867   -7128.0571    4403.9797   -11532.037    130.57875   -459.38777   -748.98942   -858.67454   -205.62471   -216.00504   -92.164683      46.7237      46.7237      46.7237           90           90           90     102002.7   -689.01724 
  968000       967498   -6438.7565    684.93096   -7123.6875    4387.7177   -11511.405    132.82089   -511.90969   -654.51365   -99.137781    149.76268    52.467123    246.10106      46.7237      46.7237      46.7237           90           90           90     102002.7   -421.85371 
  969000       968498   -6464.6178    672.05285   -7136.6706     4404.881   -11541.552    130.32359    -784.9843   -580.72176    -460.5483   -3.1021104    15.959351   -15.169184      46.7237      46.7237      46.7237           90           90           90     102002.7   -608.75146 
  970000       969498   -6456.2742    664.31717   -7120.5914    4429.4354   -11550.027    128.82349    -326.2309   -348.06962   -1135.3715   -19.319607   -45.607533    219.54561      46.7237      46.7237      46.7237           90           90           90     102002.7   -603.22399 
  971000       970498     -6437.02    685.74567   -7122.7657    4423.3676   -11546.133    132.97888   -828.89938   -934.50034   -896.63862    73.004628     249.1978    18.105588      46.7237      46.7237      46.7237           90           90           90     102002.7   -886.67945 
  972000       971498   -6464.7236    661.27908   -7126.0027    4419.5445   -11545.547    128.23435   -537.30386   -780.58741   -909.03298   -147.32344    -119.2011    130.62041      46.7237      46.7237      46.7237           90           90           90     102002.7   -742.30808 
  973000       972498   -6446.5554    679.22562   -7125.7811    4398.0413   -11523.822    131.71452   -202.20567   -914.50702   -627.37552   -177.13922    -106.9121   -215.32021      46.7237      46.7237      46.7237           90           90           90     102002.7   -581.36274 
  974000       973498   -6447.0132    667.78376    -7114.797    4419.1785   -11533.976    129.49573   -592.11924   -1262.2198   -704.42553    149.27756    38.944268   -4.9892342      46.7237      46.7237      46.7237           90           90           90     102002.7   -852.92152 
  975000       974498   -6487.8993    634.30683   -7122.2061    4427.4602   -11549.666    123.00393    -587.6203   -1030.0941   -933.72149    446.59175   -16.035696    222.87064      46.7237      46.7237      46.7237           90           90           90     102002.7   -850.47862 
  976000       975498   -6452.0367    662.71863   -7114.7554    4429.0536   -11543.809    128.51351   -798.16006   -578.26628   -1189.1161   -39.937776   -134.21956    -17.43157      46.7237      46.7237      46.7237           90           90           90     102002.7   -855.18082 
  977000       976498   -6485.5148    652.28049   -7137.7953    4404.1445    -11541.94    126.48936   -825.40707   -894.70247   -1159.1863   -151.12616     128.5404   -67.946879      46.7237      46.7237      46.7237           90           90           90     102002.7   -959.76528 
  978000       977498   -6463.6146    652.12227   -7115.7369    4414.4762   -11530.213    126.45867   -389.76562     -741.698   -938.62882   -108.26158    -92.07103    231.81621      46.7237      46.7237      46.7237           90           90           90     102002.7   -690.03081 
  979000       978498   -6434.5343    681.19603   -7115.7303    4416.8032   -11532.533    132.09662   -1338.9847   -825.65808   -702.06091    261.12328    85.558261     24.02349      46.7237      46.7237      46.7237           90           90           90     102002.7   -955.56791 
  980000       979498   -6471.2996    679.67484   -7150.9744    4390.0257       -11541    131.80163   -1010.2049   -512.15483   -358.80402   -72.394307    139.77338   -119.99987      46.7237      46.7237      46.7237           90           90           90     102002.7   -627.05459 
  981000       980498   -6435.2108    674.04992   -7109.2607    4424.4263   -11533.687    130.71085   -375.38897   -747.28795   -423.13718    45.769266   -251.05174    122.03397      46.7237      46.7237      46.7237           90           90           90     102002.7   -515.27137 
  982000       981498   -6465.0476    672.88046    -7137.928    4401.2988   -11539.227    130.48408   -904.04473   -615.29245   -845.67756    55.851492   -46.404801    77.095338      46.7237      46.7237      46.7237           90           90           90     102002.7   -788.33825 
  983000       982498   -6428.1888    678.13274   -7106.3215    4444.4154   -11550.737    131.50259   -965.75878    142.57343   -716.82312    -69.98569    356.79787   -19.199742      46.7237      46.7237      46.7237           90           90           90     102002.7   -513.33616 
  984000       983498   -6465.5564    673.36169    -7138.918    4397.9655   -11536.884    130.57739   -721.97524   -293.18752   -840.27118   -28.112771   -402.22859    171.99896      46.7237      46.7237      46.7237           90           90           90     102002.7   -618.47798 
  985000       984498   -6454.1088    655.86681   -7109.9756     4434.578   -11544.554    127.18481   -719.36656   -659.58121   -1331.4002   -178.26117   -54.041082    80.404108      46.7237      46.7237      46.7237           90           90           90     102002.7   -903.44932 
  986000       985498   -6465.7525    668.95715   -7134.7097     4407.653   -11542.363    129.72327   -706.63838   -416.11543   -215.48582   -150.47202    -135.4861    184.30072      46.7237      46.7237      46.7237           90           90           90     102002.7   -446.07987 
  987000       986498   -6449.6642    671.69197   -7121.3562    4429.2696   -11550.626     130.2536   -604.89103   -741.48558   -550.70948    13.092993   -88.621809    143.09057      46.7237      46.7237      46.7237           90           90           90     102002.7   -632.36203 
  988000       987498   -6426.8934     698.0662   -7124.9596    4411.0141   -11535.974    135.36806    87.017875   -614.01394   -367.97378   -3.6983813   -68.563567   -149.66043      46.7237      46.7237      46.7237           90           90           90     102002.7   -298.32328 
  989000       988498   -6472.6089    652.38665   -7124.9956    4423.3389   -11548.335    126.50994   -415.34237   -698.56248   -902.71494   -180.77594   -120.79162   -75.323828      46.7237      46.7237      46.7237           90           90           90     102002.7    -672.2066 
  990000       989498   -6438.7499    672.40177   -7111.1517    4440.6153   -11551.767    130.39125   -631.59147   -834.94631   -721.88503      3.34107     139.9553    206.67165      46.7237      46.7237      46.7237           90           90           90     102002.7   -729.47427 
  991000       990498     -6442.94    662.69177   -7105.6318    4438.0902   -11543.722     128.5083   -462.06495    -577.3807   -378.82913   -13.957707   -51.666568   -22.699954      46.7237      46.7237      46.7237           90           90           90     102002.7   -472.75826 
  992000       991498    -6455.172    678.91642   -7134.0885    4398.3036   -11532.392    131.65456   -459.29184   -763.21021   -993.35746   -295.54625    50.734352    95.948622      46.7237      46.7237      46.7237           90           90           90     102002.7   -738.61984 
  993000       992498    -6428.828    670.43708    -7099.265    4431.5101   -11530.775    130.01026   -794.96361   -226.18074    -276.2997   -136.07106    202.33503    346.40473      46.7237      46.7237      46.7237           90           90           90     102002.7   -432.48135 
  994000       993498   -6448.7698    659.02909   -7107.7988    4427.5605   -11535.359    127.79804   -394.98294    -448.8576   -1527.9673    197.19547    -179.5298   -39.404999      46.7237      46.7237      46.7237           90           90           90     102002.7   -790.60262 
  995000       994498   -6478.1271    670.72079   -7148.8479     4387.888   -11536.736    130.06528     -50.2511   -607.99969   -84.945107   -177.10224   -25.398258   -122.73553      46.7237      46.7237      46.7237           90           90           90     102002.7   -247.73197 
  996000       995498    -6450.935    665.04569   -7115.9807    4400.3729   -11516.354    128.96477    -627.9786   -817.76999   -584.40791    19.577948   -41.701194    70.171213      46.7237      46.7237      46.7237           90           90           90     102002.7   -676.71883 
  997000       996498    -6443.508    691.37662   -7134.8846    4402.9882   -11537.873    134.07082    -585.3604   -516.75353   -581.49771   -63.258928    151.37906   -164.29384      46.7237      46.7237      46.7237           90           90           90     102002.7   -561.20388 
  998000       997498   -6461.1464    658.62421   -7119.7706    4425.9949   -11545.766    127.71952   -773.45407   -766.32354   -1346.4316    316.36062   -45.319711   -36.334693      46.7237      46.7237      46.7237           90           90           90     102002.7   -962.06975 
  999000       998498   -6443.0624    673.17152   -7116.2339    4427.6826   -11543.917    130.54052   -1136.7082   -714.20133   -674.90834    14.159166   -1.3781573    109.74756      46.7237      46.7237      46.7237           90           90           90     102002.7   -841.93929 
 1000000       999498   -6440.6307    679.18402   -7119.8147    4433.5859   -11553.401    131.70645    -897.9438   -744.47378   -1051.6425    57.129445    44.257262   -153.90178      46.7237      46.7237      46.7237           90           90           90     102002.7   -898.02003 
 1000502      1000000   -6463.4577    672.14101   -7135.5987    4396.1286   -11531.727    130.34068   -1364.8248   -537.07684    -590.1265     123.5018    53.430208   -68.406933      46.7237      46.7237      46.7237           90           90           90     102002.7   -830.67605 
Loop time of 1500.99 on 16 procs for 500000 steps with 1731 atoms

Performance: 28.781 ns/day, 0.834 hours/ns, 333.114 timesteps/s
99.9% CPU use with 16 MPI tasks x no OpenMP threads

MPI task timing breakdown:
Section |  min time  |  avg time  |  max time  |%varavg| %total
---------------------------------------------------------------
Pair    | 593.42     | 784.06     | 972.13     | 413.8 | 52.24
Bond    | 170.78     | 184.94     | 200.66     |  68.8 | 12.32
Neigh   | 4.1278     | 4.1602     | 4.1876     |   1.1 |  0.28
Comm    | 309.78     | 499.67     | 682.48     | 493.4 | 33.29
Output  | 0.10183    | 0.10689    | 0.10771    |   0.4 |  0.01
Modify  | 21.67      | 22.525     | 23.472     |  11.8 |  1.50
Other   |            | 5.519      |            |       |  0.37

Nlocal:    108.188 ave 138 max 93 min
Histogram: 4 1 4 0 5 0 1 0 0 1
Nghost:    2202.19 ave 2221 max 2180 min
Histogram: 1 1 0 2 2 2 4 2 1 1
Neighs:    11434.8 ave 14607 max 7989 min
Histogram: 2 1 2 1 1 3 1 0 2 3

Total # of neighbors = 182957
Ave neighs/atom = 105.694
Ave special neighs/atom = 6.65511
Neighbor list builds = 3395
Dangerous builds = 0
Total wall time: 0:47:24
