LAMMPS (30 Mar 2018)
Reading data file ...
  orthogonal box = (0 0 0) to (46.7237 46.7237 46.7237)
  2 by 2 by 4 MPI processor grid
  reading atoms ...
  1841 atoms
  scanning bonds ...
  5 = max bonds/atom
  scanning angles ...
  10 = max angles/atom
  scanning dihedrals ...
  32 = max dihedrals/atom
  scanning impropers ...
  3 = max impropers/atom
  reading bonds ...
  2064 bonds
  reading angles ...
  3696 angles
  reading dihedrals ...
  6240 dihedrals
  reading impropers ...
  1008 impropers
Finding 1-2 1-3 1-4 neighbors ...
  special bond factors lj:   0          0          0         
  special bond factors coul: 0          0          0         
  5 = max # of 1-2 neighbors
  8 = max # of 1-3 neighbors
  20 = max # of 1-4 neighbors
  19 = max # of special neighbors
Finding 1-2 1-3 1-4 neighbors ...
  special bond factors lj:   0          0          1         
  special bond factors coul: 1          1          1         
  5 = max # of 1-2 neighbors
  8 = max # of 1-3 neighbors
  19 = max # of special neighbors
WARNING: Using 'neigh_modify every 1 delay 0 check yes' setting during minimization (../min.cpp:168)
Neighbor list info ...
  update every 1 steps, delay 0 steps, check yes
  max neighbors/atom: 2000, page size: 100000
  master list distance cutoff = 16
  ghost atom cutoff = 16
  binsize = 8, bins = 6 6 6
  3 neighbor lists, perpetual/occasional/extra = 3 0 0
  (1) pair buck6d/coul/gauss/dsf, perpetual, skip from (3)
      attributes: half, newton on
      pair build: skip
      stencil: none
      bin: none
  (2) pair lj/cut, perpetual, skip from (3)
      attributes: half, newton on
      pair build: skip
      stencil: none
      bin: none
  (3) neighbor class addition, perpetual
      attributes: half, newton on
      pair build: half/bin/newton
      stencil: half/bin/3d/newton
      bin: standard
Setting up cg style minimization ...
  Unit style    : real
  Current step  : 0
WARNING: Inconsistent image flags (../domain.cpp:786)
Per MPI rank memory allocation (min/avg/max) = 22.9 | 23.35 | 23.8 Mbytes
Step Temp E_pair E_mol TotEng Press 
       0            0   -11831.953    6482.8914   -5349.0618    6129.2483 
     503            0   -11896.008     3730.193   -8165.8151   -583.38526 
Loop time of 2.9409 on 16 procs for 503 steps with 1841 atoms

99.8% CPU use with 16 MPI tasks x no OpenMP threads

Minimization stats:
  Stopping criterion = max force evaluations
  Energy initial, next-to-last, final = 
        -5349.06176928     -8165.79570577     -8165.81512025
  Force two-norm initial, final = 2576.57 6.23436
  Force max component initial, final = 152.023 0.615281
  Final line search alpha, max atom move = 0.00766603 0.00471676
  Iterations, force evaluations = 503 1001

MPI task timing breakdown:
Section |  min time  |  avg time  |  max time  |%varavg| %total
---------------------------------------------------------------
Pair    | 1.1919     | 1.6607     | 2.1759     |  20.6 | 56.47
Bond    | 0.27858    | 0.36169    | 0.43427    |   7.0 | 12.30
Neigh   | 0.019028   | 0.019099   | 0.019152   |   0.0 |  0.65
Comm    | 0.27238    | 0.86064    | 1.3562     |  29.1 | 29.26
Output  | 0          | 0          | 0          |   0.0 |  0.00
Modify  | 0          | 0          | 0          |   0.0 |  0.00
Other   |            | 0.03874    |            |       |  1.32

Nlocal:    115.062 ave 133 max 87 min
Histogram: 1 1 0 1 0 4 3 2 1 3
Nghost:    2291.69 ave 2320 max 2273 min
Histogram: 2 2 1 4 3 1 0 2 0 1
Neighs:    11453.9 ave 15944 max 6531 min
Histogram: 1 1 0 3 3 1 2 2 2 1

Total # of neighbors = 183263
Ave neighs/atom = 99.5454
Ave special neighs/atom = 6.25747
Neighbor list builds = 14
Dangerous builds = 0
Neighbor list info ...
  update every 1 steps, delay 10 steps, check yes
  max neighbors/atom: 2000, page size: 100000
  master list distance cutoff = 16
  ghost atom cutoff = 16
  binsize = 8, bins = 6 6 6
  3 neighbor lists, perpetual/occasional/extra = 3 0 0
  (1) pair buck6d/coul/gauss/dsf, perpetual, skip from (3)
      attributes: half, newton on
      pair build: skip
      stencil: none
      bin: none
  (2) pair lj/cut, perpetual, skip from (3)
      attributes: half, newton on
      pair build: skip
      stencil: none
      bin: none
  (3) neighbor class addition, perpetual
      attributes: half, newton on
      pair build: half/bin/newton
      stencil: half/bin/3d/newton
      bin: standard
Setting up Verlet run ...
  Unit style    : real
  Current step  : 503
  Time step     : 1
WARNING: Inconsistent image flags (../domain.cpp:786)
Per MPI rank memory allocation (min/avg/max) = 22.54 | 22.64 | 22.86 Mbytes
Step Temp PotEng TotEng Press Volume Lx Ly Lz 
     503          130   -8165.8151   -7452.8054   -263.85157     102002.7      46.7237      46.7237      46.7237 
    1000    115.59363   -7544.2832   -6910.2879   -918.33969     102002.7      46.7237      46.7237      46.7237 
    2000    131.96161    -7404.284   -6680.5154   -722.93474     102002.7      46.7237      46.7237      46.7237 
    3000    123.87501   -7400.6368   -6721.2206   -971.36503     102002.7      46.7237      46.7237      46.7237 
    4000    130.90455   -7428.4899    -6710.519   -641.31873     102002.7      46.7237      46.7237      46.7237 
    5000    135.13795   -7425.3611   -6684.1712      -545.16     102002.7      46.7237      46.7237      46.7237 
    6000    128.26007   -7418.7144   -6715.2476   -918.77598     102002.7      46.7237      46.7237      46.7237 
    7000    129.16442   -7420.2567   -6711.8298   -623.92587     102002.7      46.7237      46.7237      46.7237 
    8000    133.08497   -7408.3466   -6678.4167   -745.26902     102002.7      46.7237      46.7237      46.7237 
    9000    126.82274   -7419.8461   -6724.2627   -763.91382     102002.7      46.7237      46.7237      46.7237 
   10000    129.64488   -7425.2808   -6714.2188   -647.29022     102002.7      46.7237      46.7237      46.7237 
   11000    129.58881   -7392.2729   -6681.5184   -440.24059     102002.7      46.7237      46.7237      46.7237 
   12000    132.73966   -7409.9247   -6681.8888   -1057.0162     102002.7      46.7237      46.7237      46.7237 
   13000    131.76571   -7419.3162   -6696.6221   -455.65154     102002.7      46.7237      46.7237      46.7237 
   14000    130.82086   -7403.8618   -6686.3499   -702.02213     102002.7      46.7237      46.7237      46.7237 
   15000    126.83827   -7404.2698   -6708.6011   -713.36564     102002.7      46.7237      46.7237      46.7237 
   16000    131.98282   -7403.0441   -6679.1591   -733.56162     102002.7      46.7237      46.7237      46.7237 
   17000    134.77497   -7438.3129   -6699.1139    -788.6407     102002.7      46.7237      46.7237      46.7237 
   18000    131.11679   -7426.7631   -6707.6281   -605.10031     102002.7      46.7237      46.7237      46.7237 
   19000    124.94692   -7414.2032    -6728.908   -582.09463     102002.7      46.7237      46.7237      46.7237 
   20000    130.57548   -7402.7816   -6686.6156   -911.44339     102002.7      46.7237      46.7237      46.7237 
   21000    128.75829   -7394.1235   -6687.9242   -490.44328     102002.7      46.7237      46.7237      46.7237 
   22000    129.13713   -7443.6224   -6735.3452   -678.32224     102002.7      46.7237      46.7237      46.7237 
   23000    133.56952   -7417.2858   -6684.6983   -285.14836     102002.7      46.7237      46.7237      46.7237 
   24000    132.85231   -7412.6767   -6684.0229   -830.87078     102002.7      46.7237      46.7237      46.7237 
   25000    129.53545    -7425.616   -6715.1541   -652.80909     102002.7      46.7237      46.7237      46.7237 
   26000    131.58131   -7401.1423   -6679.4596    -555.8642     102002.7      46.7237      46.7237      46.7237 
   27000    129.95754   -7433.8488   -6721.0719   -900.29318     102002.7      46.7237      46.7237      46.7237 
   28000    126.43902   -7423.3062   -6729.8273   -1107.2785     102002.7      46.7237      46.7237      46.7237 
   29000    127.52257   -7430.1119   -6730.6901   -888.80319     102002.7      46.7237      46.7237      46.7237 
   30000    129.66343   -7407.8422   -6696.6784   -921.03726     102002.7      46.7237      46.7237      46.7237 
   31000    131.77444   -7402.4217   -6679.6797   -934.85645     102002.7      46.7237      46.7237      46.7237 
   32000    128.22078    -7426.662   -6723.4108   -838.23111     102002.7      46.7237      46.7237      46.7237 
   33000    133.95895   -7419.8019   -6685.0785   -631.29096     102002.7      46.7237      46.7237      46.7237 
   34000    130.01354   -7412.3832   -6699.2992   -666.14892     102002.7      46.7237      46.7237      46.7237 
   35000     131.3633   -7454.8058   -6734.3187     -865.035     102002.7      46.7237      46.7237      46.7237 
   36000    127.80389   -7423.4764   -6722.5116   -614.08901     102002.7      46.7237      46.7237      46.7237 
   37000     126.5178   -7398.3442   -6704.4332   -916.59329     102002.7      46.7237      46.7237      46.7237 
   38000    128.76968   -7423.1716   -6716.9097   -619.77822     102002.7      46.7237      46.7237      46.7237 
   39000    128.47305     -7409.83   -6705.1951   -712.69579     102002.7      46.7237      46.7237      46.7237 
   40000    131.32068   -7456.0694   -6735.8161    -763.0474     102002.7      46.7237      46.7237      46.7237 
   41000    131.13363   -7419.5452   -6700.3179   -642.18778     102002.7      46.7237      46.7237      46.7237 
   42000    127.30763   -7439.2081   -6740.9652   -785.68859     102002.7      46.7237      46.7237      46.7237 
   43000    131.50745   -7420.0258   -6698.7481   -348.99119     102002.7      46.7237      46.7237      46.7237 
   44000    130.07749   -7445.6252   -6732.1904    -320.6026     102002.7      46.7237      46.7237      46.7237 
   45000    130.25407   -7424.4438   -6710.0406   -409.41058     102002.7      46.7237      46.7237      46.7237 
   46000    132.77898   -7423.6162   -6695.3645   -765.98493     102002.7      46.7237      46.7237      46.7237 
   47000    127.99205   -7420.2341   -6718.2373   -435.94634     102002.7      46.7237      46.7237      46.7237 
   48000    129.93301   -7413.5688   -6700.9265   -620.58824     102002.7      46.7237      46.7237      46.7237 
   49000    130.32392   -7407.7099   -6692.9235   -687.98317     102002.7      46.7237      46.7237      46.7237 
   50000     125.6051   -7425.7064   -6736.8013   -773.17205     102002.7      46.7237      46.7237      46.7237 
   51000    130.94438   -7434.1843   -6715.9949   -744.96589     102002.7      46.7237      46.7237      46.7237 
   52000    125.88495   -7419.7696   -6729.3296    -598.8331     102002.7      46.7237      46.7237      46.7237 
   53000      127.469   -7411.2675   -6712.1394   -498.72036     102002.7      46.7237      46.7237      46.7237 
   54000    130.54562   -7397.7637   -6681.7614   -697.52006     102002.7      46.7237      46.7237      46.7237 
   55000    132.61334   -7443.1326   -6715.7895   -472.92356     102002.7      46.7237      46.7237      46.7237 
   56000    133.23725   -7413.1802   -6682.4151   -733.11845     102002.7      46.7237      46.7237      46.7237 
   57000    130.05793   -7423.1067   -6709.7792   -773.09131     102002.7      46.7237      46.7237      46.7237 
   58000    126.83806   -7434.2865    -6738.619    -671.9977     102002.7      46.7237      46.7237      46.7237 
   59000    129.34817   -7397.4898   -6688.0552   -484.81433     102002.7      46.7237      46.7237      46.7237 
   60000    126.29561    -7395.572   -6702.8797   -679.39697     102002.7      46.7237      46.7237      46.7237 
   61000    131.46434   -7421.0896   -6700.0484   -653.81262     102002.7      46.7237      46.7237      46.7237 
   62000     129.1838   -7421.8335   -6713.3004   -790.81634     102002.7      46.7237      46.7237      46.7237 
   63000    131.00675   -7416.7012   -6698.1697   -997.35958     102002.7      46.7237      46.7237      46.7237 
   64000    131.27972   -7432.0048   -6711.9762   -738.66422     102002.7      46.7237      46.7237      46.7237 
   65000    133.06897   -7414.5874   -6684.7453    -983.1682     102002.7      46.7237      46.7237      46.7237 
   66000    131.30439   -7437.8214   -6717.6575   -741.75611     102002.7      46.7237      46.7237      46.7237 
   67000    128.49521   -7417.7042   -6712.9478   -814.02126     102002.7      46.7237      46.7237      46.7237 
   68000    127.41355    -7403.498   -6704.6742   -754.45366     102002.7      46.7237      46.7237      46.7237 
   69000    127.32886   -7427.4912   -6729.1318   -862.95157     102002.7      46.7237      46.7237      46.7237 
   70000    130.10532   -7407.2254    -6693.638   -914.25652     102002.7      46.7237      46.7237      46.7237 
   71000    127.36869   -7423.4487   -6724.8708   -818.77676     102002.7      46.7237      46.7237      46.7237 
   72000    136.46225   -7396.8478   -6648.3946   -664.80379     102002.7      46.7237      46.7237      46.7237 
   73000    128.25772   -7414.3756   -6710.9217   -511.39025     102002.7      46.7237      46.7237      46.7237 
   74000    127.97771   -7432.1108   -6730.1926   -730.66076     102002.7      46.7237      46.7237      46.7237 
   75000    128.99841   -7413.0538   -6705.5374   -664.00959     102002.7      46.7237      46.7237      46.7237 
   76000    130.33394    -7409.239   -6694.3976   -708.87872     102002.7      46.7237      46.7237      46.7237 
   77000    130.18582   -7423.7849    -6709.756   -939.49763     102002.7      46.7237      46.7237      46.7237 
   78000    133.11059   -7426.9462   -6696.8758   -883.34181     102002.7      46.7237      46.7237      46.7237 
   79000    127.13452   -7435.2884   -6737.9949   -782.00344     102002.7      46.7237      46.7237      46.7237 
   80000    128.37228   -7408.5974   -6704.5152     -862.594     102002.7      46.7237      46.7237      46.7237 
   81000    130.76557   -7415.5203   -6698.3116   -895.92931     102002.7      46.7237      46.7237      46.7237 
   82000    129.18925   -7414.6254   -6706.0624   -792.91047     102002.7      46.7237      46.7237      46.7237 
   83000    135.60227   -7411.5904    -6667.854   -896.83437     102002.7      46.7237      46.7237      46.7237 
   84000    126.67381   -7428.8469   -6734.0803   -980.55111     102002.7      46.7237      46.7237      46.7237 
   85000    125.66972    -7412.525   -6723.2655   -858.54953     102002.7      46.7237      46.7237      46.7237 
   86000    133.38795   -7425.6294   -6694.0378   -1036.7231     102002.7      46.7237      46.7237      46.7237 
   87000    130.19401   -7444.7855   -6730.7116   -855.76602     102002.7      46.7237      46.7237      46.7237 
   88000    131.17627   -7425.3411   -6705.8798   -1006.4421     102002.7      46.7237      46.7237      46.7237 
   89000     125.2407   -7420.7672   -6733.8607   -921.36006     102002.7      46.7237      46.7237      46.7237 
   90000    132.75394   -7407.9797   -6679.8655   -784.51798     102002.7      46.7237      46.7237      46.7237 
   91000    131.68391   -7425.6711   -6703.4256   -867.46285     102002.7      46.7237      46.7237      46.7237 
   92000    128.32394   -7426.0238   -6722.2067   -726.79433     102002.7      46.7237      46.7237      46.7237 
   93000    131.52621   -7442.9049   -6721.5243   -838.91024     102002.7      46.7237      46.7237      46.7237 
   94000    132.93049   -7407.5403   -6678.4577   -859.53367     102002.7      46.7237      46.7237      46.7237 
   95000    133.23962   -7432.7792   -6702.0011   -561.75568     102002.7      46.7237      46.7237      46.7237 
   96000     125.6108   -7424.9269   -6735.9905   -566.03062     102002.7      46.7237      46.7237      46.7237 
   97000    131.60107   -7414.7953   -6693.0041   -827.90015     102002.7      46.7237      46.7237      46.7237 
   98000    126.45737   -7409.8559   -6716.2764   -841.74584     102002.7      46.7237      46.7237      46.7237 
   99000    135.17902   -7418.3088   -6676.8937   -622.46792     102002.7      46.7237      46.7237      46.7237 
  100000    128.97896   -7424.2888   -6716.8791   -627.69987     102002.7      46.7237      46.7237      46.7237 
  101000    131.71723   -7454.0789   -6731.6507   -936.43308     102002.7      46.7237      46.7237      46.7237 
  102000    127.60317   -7384.1871   -6684.3233   -852.89034     102002.7      46.7237      46.7237      46.7237 
  103000    131.32511   -7427.1258   -6706.8482   -648.47251     102002.7      46.7237      46.7237      46.7237 
  104000    130.82844   -7432.2148   -6714.6613   -1030.0636     102002.7      46.7237      46.7237      46.7237 
  105000    128.53834   -7429.9714   -6724.9784   -660.93038     102002.7      46.7237      46.7237      46.7237 
  106000    131.31646   -7411.3747   -6691.1446   -747.39215     102002.7      46.7237      46.7237      46.7237 
  107000    134.01718   -7415.9099   -6680.8671   -713.54878     102002.7      46.7237      46.7237      46.7237 
  108000     131.4846   -7418.7938   -6697.6415   -887.33108     102002.7      46.7237      46.7237      46.7237 
  109000     131.0312   -7393.7575    -6675.092     -1056.98     102002.7      46.7237      46.7237      46.7237 
  110000    124.17376   -7430.2524   -6749.1977   -504.85344     102002.7      46.7237      46.7237      46.7237 
  111000    131.92394   -7432.0235   -6708.4615   -686.23783     102002.7      46.7237      46.7237      46.7237 
  112000    133.23877    -7442.027   -6711.2536   -910.79033     102002.7      46.7237      46.7237      46.7237 
  113000     130.8604   -7425.5356   -6707.8068   -369.02212     102002.7      46.7237      46.7237      46.7237 
  114000    131.05698   -7433.5034   -6714.6964   -525.13972     102002.7      46.7237      46.7237      46.7237 
  115000    129.60557    -7425.751   -6714.9046   -660.88563     102002.7      46.7237      46.7237      46.7237 
  116000    135.04476    -7434.002   -6693.3233   -681.91533     102002.7      46.7237      46.7237      46.7237 
  117000    126.96766   -7416.3758   -6719.9975   -750.08031     102002.7      46.7237      46.7237      46.7237 
  118000    126.45035   -7419.5304   -6725.9893   -872.94622     102002.7      46.7237      46.7237      46.7237 
  119000    132.23867   -7415.7452    -6690.457   -619.17493     102002.7      46.7237      46.7237      46.7237 
  120000    127.42788    -7416.302   -6717.3995   -631.38552     102002.7      46.7237      46.7237      46.7237 
  121000    130.96106   -7413.4187   -6695.1379   -883.42822     102002.7      46.7237      46.7237      46.7237 
  122000    134.34319   -7424.5209   -6687.6901   -757.40792     102002.7      46.7237      46.7237      46.7237 
  123000    123.88074    -7435.639   -6756.1915   -770.55987     102002.7      46.7237      46.7237      46.7237 
  124000    133.79674   -7440.9411   -6707.1074   -669.65861     102002.7      46.7237      46.7237      46.7237 
  125000    130.33162   -7410.7299   -6695.9013   -874.46943     102002.7      46.7237      46.7237      46.7237 
  126000    126.75889   -7436.2459   -6741.0126    -887.4908     102002.7      46.7237      46.7237      46.7237 
  127000    131.59089   -7422.5684    -6700.833   -790.82102     102002.7      46.7237      46.7237      46.7237 
  128000    127.94641   -7416.9433   -6715.1968   -1043.3059     102002.7      46.7237      46.7237      46.7237 
  129000    127.88009   -7408.1966   -6706.8139   -952.50292     102002.7      46.7237      46.7237      46.7237 
  130000    130.72231   -7400.0857   -6683.1142   -764.18591     102002.7      46.7237      46.7237      46.7237 
  131000    129.59858   -7415.1154   -6704.3073   -824.89113     102002.7      46.7237      46.7237      46.7237 
  132000    128.47449   -7434.3846   -6729.7418   -262.86632     102002.7      46.7237      46.7237      46.7237 
  133000    131.71061   -7414.3198   -6691.9279   -818.47605     102002.7      46.7237      46.7237      46.7237 
  134000    129.13294   -7443.6259   -6735.3717    -637.9872     102002.7      46.7237      46.7237      46.7237 
  135000    128.06488   -7412.2185   -6709.8222   -713.74433     102002.7      46.7237      46.7237      46.7237 
  136000    125.58256   -7424.5467   -6735.7652   -873.23086     102002.7      46.7237      46.7237      46.7237 
  137000    132.55839   -7429.9327    -6702.891   -542.20047     102002.7      46.7237      46.7237      46.7237 
  138000    130.93637   -7422.5154   -6704.3699    -938.5918     102002.7      46.7237      46.7237      46.7237 
  139000    131.77645   -7451.0933   -6728.3403    -511.0227     102002.7      46.7237      46.7237      46.7237 
  140000    128.35208   -7406.2207   -6702.2493   -901.36496     102002.7      46.7237      46.7237      46.7237 
  141000    135.59931   -7407.1203   -6663.4001   -720.76893     102002.7      46.7237      46.7237      46.7237 
  142000    131.45678   -7421.5415   -6700.5418   -1025.2366     102002.7      46.7237      46.7237      46.7237 
  143000    132.25409   -7440.0569   -6714.6842   -594.68288     102002.7      46.7237      46.7237      46.7237 
  144000    133.80652   -7432.8188   -6698.9315   -500.41229     102002.7      46.7237      46.7237      46.7237 
  145000    127.21138   -7434.2446   -6736.5296   -485.91242     102002.7      46.7237      46.7237      46.7237 
  146000    131.09342   -7422.2104   -6703.2036   -349.82361     102002.7      46.7237      46.7237      46.7237 
  147000    132.73191   -7397.4311   -6669.4376   -761.71511     102002.7      46.7237      46.7237      46.7237 
  148000    132.13132   -7418.7203   -6694.0209   -427.82439     102002.7      46.7237      46.7237      46.7237 
  149000    126.54334    -7431.225   -6737.1739    -549.8963     102002.7      46.7237      46.7237      46.7237 
  150000     130.0316   -7433.0105   -6719.8274   -691.43612     102002.7      46.7237      46.7237      46.7237 
  151000    132.00887   -7424.5997   -6700.5719   -982.21206     102002.7      46.7237      46.7237      46.7237 
  152000     130.4848   -7420.2968   -6704.6281   -841.11552     102002.7      46.7237      46.7237      46.7237 
  153000    132.07037    -7389.799   -6665.4339   -222.82332     102002.7      46.7237      46.7237      46.7237 
  154000    131.92686   -7426.9522   -6703.3742   -902.12604     102002.7      46.7237      46.7237      46.7237 
  155000    129.33322   -7440.8087    -6731.456   -710.54831     102002.7      46.7237      46.7237      46.7237 
  156000    129.40463   -7401.8848   -6692.1405   -698.75947     102002.7      46.7237      46.7237      46.7237 
  157000    127.96106   -7411.5906   -6709.7638   -680.77255     102002.7      46.7237      46.7237      46.7237 
  158000    127.86537   -7425.3476   -6724.0456   -930.29747     102002.7      46.7237      46.7237      46.7237 
  159000    131.24078    -7420.755   -6700.9399   -936.52998     102002.7      46.7237      46.7237      46.7237 
  160000    130.14673   -7423.7381   -6709.9235   -584.53579     102002.7      46.7237      46.7237      46.7237 
  161000    131.70519   -7414.8189   -6692.4567   -820.28656     102002.7      46.7237      46.7237      46.7237 
  162000    129.86922   -7431.4945    -6719.202   -408.47455     102002.7      46.7237      46.7237      46.7237 
  163000    132.20926   -7433.4056   -6708.2787   -670.35433     102002.7      46.7237      46.7237      46.7237 
  164000    132.81728    -7427.192   -6698.7303   -739.12984     102002.7      46.7237      46.7237      46.7237 
  165000    126.11957   -7420.6427   -6728.9159   -445.98527     102002.7      46.7237      46.7237      46.7237 
  166000    131.68124    -7402.866   -6680.6352   -817.87685     102002.7      46.7237      46.7237      46.7237 
  167000    128.64307   -7430.8595   -6725.2921   -508.33188     102002.7      46.7237      46.7237      46.7237 
  168000    130.10223   -7415.9866   -6702.4162   -641.65863     102002.7      46.7237      46.7237      46.7237 
  169000     126.2474    -7432.301   -6739.8731   -852.51862     102002.7      46.7237      46.7237      46.7237 
  170000    131.76987   -7416.7501   -6694.0332   -934.50862     102002.7      46.7237      46.7237      46.7237 
  171000    127.66617   -7437.5608   -6737.3514   -778.70889     102002.7      46.7237      46.7237      46.7237 
  172000    129.23373   -7401.0516   -6692.2446   -655.69669     102002.7      46.7237      46.7237      46.7237 
  173000     130.4783   -7401.3603   -6685.7273   -685.39953     102002.7      46.7237      46.7237      46.7237 
  174000    131.57246   -7440.8384   -6719.2042   -665.60247     102002.7      46.7237      46.7237      46.7237 
  175000    125.75969   -7448.8452   -6759.0922   -758.37318     102002.7      46.7237      46.7237      46.7237 
  176000    130.45991   -7413.1932    -6697.661   -865.88026     102002.7      46.7237      46.7237      46.7237 
  177000    128.80931   -7434.0862    -6727.607   -968.54086     102002.7      46.7237      46.7237      46.7237 
  178000    132.24491   -7436.9958   -6711.6735   -378.98245     102002.7      46.7237      46.7237      46.7237 
  179000    132.92793   -7418.0939   -6689.0254    -762.0173     102002.7      46.7237      46.7237      46.7237 
  180000     126.9086   -7419.6197   -6723.5653   -858.53169     102002.7      46.7237      46.7237      46.7237 
  181000    134.50528   -7418.1522   -6680.4324   -717.81079     102002.7      46.7237      46.7237      46.7237 
  182000    134.82826   -7434.1604   -6694.6691    -753.2604     102002.7      46.7237      46.7237      46.7237 
  183000    128.54966   -7429.4935   -6724.4384   -504.11479     102002.7      46.7237      46.7237      46.7237 
  184000    134.36582   -7409.9505   -6672.9956   -909.50633     102002.7      46.7237      46.7237      46.7237 
  185000    129.90413   -7399.5689   -6687.0849   -610.51447     102002.7      46.7237      46.7237      46.7237 
  186000    129.13838   -7422.3878   -6714.1037   -710.97918     102002.7      46.7237      46.7237      46.7237 
  187000    125.02382   -7444.3569   -6758.6399   -617.36017     102002.7      46.7237      46.7237      46.7237 
  188000    125.83144   -7396.0027   -6705.8562   -760.04365     102002.7      46.7237      46.7237      46.7237 
  189000    132.79684   -7409.5748   -6681.2252    -720.9931     102002.7      46.7237      46.7237      46.7237 
  190000    127.16487   -7401.8229   -6704.3629   -539.19781     102002.7      46.7237      46.7237      46.7237 
  191000    127.45866   -7425.3476   -6726.2763   -686.07724     102002.7      46.7237      46.7237      46.7237 
  192000    130.95886   -7388.2013   -6669.9325    -872.6601     102002.7      46.7237      46.7237      46.7237 
  193000    131.07088   -7449.8718   -6730.9886   -838.04972     102002.7      46.7237      46.7237      46.7237 
  194000    128.98442    -7412.995   -6705.5554   -847.44077     102002.7      46.7237      46.7237      46.7237 
  195000    125.60818   -7430.5487   -6741.6267   -795.28416     102002.7      46.7237      46.7237      46.7237 
  196000    130.62163    -7416.061   -6699.6418   -713.36685     102002.7      46.7237      46.7237      46.7237 
  197000    132.70836   -7415.0227   -6687.1584   -552.08133     102002.7      46.7237      46.7237      46.7237 
  198000    127.16662   -7400.6956   -6703.2261   -585.76082     102002.7      46.7237      46.7237      46.7237 
  199000    129.73687   -7429.7684   -6718.2018   -889.06433     102002.7      46.7237      46.7237      46.7237 
  200000    128.88918   -7415.6167   -6708.6994   -991.60769     102002.7      46.7237      46.7237      46.7237 
  201000    130.61958   -7411.2175   -6694.8096    -1017.394     102002.7      46.7237      46.7237      46.7237 
  202000    129.96575   -7396.0395   -6683.2176   -563.26135     102002.7      46.7237      46.7237      46.7237 
  203000    132.10482   -7432.7508   -6708.1968   -1063.7939     102002.7      46.7237      46.7237      46.7237 
  204000    127.54416   -7391.8612   -6692.3209   -741.91268     102002.7      46.7237      46.7237      46.7237 
  205000    130.00618   -7382.5198   -6669.4761   -538.48603     102002.7      46.7237      46.7237      46.7237 
  206000    126.12991    -7408.545   -6716.7615   -813.37045     102002.7      46.7237      46.7237      46.7237 
  207000    129.98317   -7409.4816   -6696.5641   -422.99541     102002.7      46.7237      46.7237      46.7237 
  208000    131.50877   -7427.7408   -6706.4559   -454.81925     102002.7      46.7237      46.7237      46.7237 
  209000    123.59056   -7409.7632   -6731.9072   -623.65972     102002.7      46.7237      46.7237      46.7237 
  210000    131.99846   -7421.2283   -6697.2576   -635.70253     102002.7      46.7237      46.7237      46.7237 
  211000    128.87022   -7426.4421   -6719.6288   -914.37194     102002.7      46.7237      46.7237      46.7237 
  212000     131.8402   -7413.3815   -6690.2788   -656.62687     102002.7      46.7237      46.7237      46.7237 
  213000    129.97047   -7388.2929    -6675.445   -619.08993     102002.7      46.7237      46.7237      46.7237 
  214000    130.10424   -7420.5906   -6707.0091   -842.07668     102002.7      46.7237      46.7237      46.7237 
  215000    129.37699   -7406.8622   -6697.2694   -773.54794     102002.7      46.7237      46.7237      46.7237 
  216000    130.86293   -7419.1727     -6701.43   -845.67488     102002.7      46.7237      46.7237      46.7237 
  217000     128.3816   -7434.3949   -6730.2615   -818.40805     102002.7      46.7237      46.7237      46.7237 
  218000    130.78402   -7414.6513   -6697.3414   -1055.1992     102002.7      46.7237      46.7237      46.7237 
  219000    131.96415   -7451.3151   -6727.5326   -739.26499     102002.7      46.7237      46.7237      46.7237 
  220000     126.3646   -7402.6843   -6709.6136   -1024.3252     102002.7      46.7237      46.7237      46.7237 
  221000    133.27084   -7420.7948   -6689.8455   -903.87652     102002.7      46.7237      46.7237      46.7237 
  222000    128.69621    -7429.942   -6724.0832   -589.57324     102002.7      46.7237      46.7237      46.7237 
  223000    128.81607   -7424.2933    -6717.777   -881.07522     102002.7      46.7237      46.7237      46.7237 
  224000    124.92982   -7424.2326   -6739.0312    -926.5402     102002.7      46.7237      46.7237      46.7237 
  225000    133.10112   -7420.7147   -6690.6963   -823.77896     102002.7      46.7237      46.7237      46.7237 
  226000    128.18493   -7418.2092   -6715.1546   -617.19941     102002.7      46.7237      46.7237      46.7237 
  227000    128.27955   -7413.6407    -6710.067     -589.089     102002.7      46.7237      46.7237      46.7237 
  228000    129.00228   -7381.8096   -6674.2721   -905.68527     102002.7      46.7237      46.7237      46.7237 
  229000    126.35596   -7424.1866   -6731.1633   -907.54213     102002.7      46.7237      46.7237      46.7237 
  230000    128.25615   -7418.9294   -6715.4841   -1006.9534     102002.7      46.7237      46.7237      46.7237 
  231000    129.27635   -7406.1387   -6697.0979   -879.70935     102002.7      46.7237      46.7237      46.7237 
  232000    130.10505   -7406.5876   -6693.0017   -1263.0034     102002.7      46.7237      46.7237      46.7237 
  233000    130.70718   -7429.2589   -6712.3705   -705.48052     102002.7      46.7237      46.7237      46.7237 
  234000    128.64349   -7410.1511   -6704.5814   -897.25287     102002.7      46.7237      46.7237      46.7237 
  235000    127.58217   -7443.0071   -6743.2584   -730.26207     102002.7      46.7237      46.7237      46.7237 
  236000    128.93082   -7431.6374   -6724.4918   -608.36291     102002.7      46.7237      46.7237      46.7237 
  237000    131.22531   -7402.0908   -6682.3606   -995.32299     102002.7      46.7237      46.7237      46.7237 
  238000    130.66181   -7404.8499   -6688.2103   -852.74892     102002.7      46.7237      46.7237      46.7237 
  239000    129.40738   -7425.5977   -6715.8382   -737.92408     102002.7      46.7237      46.7237      46.7237 
  240000    131.34394   -7422.9204   -6702.5395   -1058.3839     102002.7      46.7237      46.7237      46.7237 
  241000    131.15045   -7411.2817    -6691.962   -534.50188     102002.7      46.7237      46.7237      46.7237 
  242000    129.22676   -7415.1165   -6706.3477   -903.27408     102002.7      46.7237      46.7237      46.7237 
  243000    128.85883   -7411.8687   -6705.1179   -637.21736     102002.7      46.7237      46.7237      46.7237 
  244000      132.041   -7423.1918   -6698.9877   -796.38965     102002.7      46.7237      46.7237      46.7237 
  245000    130.05192    -7450.881   -6737.5864   -700.61307     102002.7      46.7237      46.7237      46.7237 
  246000    130.37565   -7422.9883   -6707.9182   -665.71909     102002.7      46.7237      46.7237      46.7237 
  247000    130.00687   -7410.1088   -6697.0614   -758.94545     102002.7      46.7237      46.7237      46.7237 
  248000    132.63116   -7423.6584   -6696.2176   -829.95263     102002.7      46.7237      46.7237      46.7237 
  249000    130.05246   -7435.4749   -6722.1774   -509.74249     102002.7      46.7237      46.7237      46.7237 
  250000    128.29795   -7422.1084   -6718.4338    -733.6977     102002.7      46.7237      46.7237      46.7237 
  251000    128.95265   -7411.1235   -6703.8581   -616.48737     102002.7      46.7237      46.7237      46.7237 
  252000    126.61467   -7407.2222     -6712.78   -636.54053     102002.7      46.7237      46.7237      46.7237 
  253000    129.29069   -7424.6439   -6715.5245   -990.79224     102002.7      46.7237      46.7237      46.7237 
  254000     131.8736   -7403.9842   -6680.6983   -465.96172     102002.7      46.7237      46.7237      46.7237 
  255000    132.28406   -7438.6013   -6713.0642     -687.754     102002.7      46.7237      46.7237      46.7237 
  256000    129.01768   -7417.0606   -6709.4385   -723.48717     102002.7      46.7237      46.7237      46.7237 
  257000    129.53459   -7419.5463   -6709.0891   -1116.4969     102002.7      46.7237      46.7237      46.7237 
  258000     135.7495   -7423.0815   -6678.5375    -766.9803     102002.7      46.7237      46.7237      46.7237 
  259000    125.34343   -7416.3435   -6728.8736   -1051.1029     102002.7      46.7237      46.7237      46.7237 
  260000    133.16634   -7432.5521    -6702.176   -744.59259     102002.7      46.7237      46.7237      46.7237 
  261000    129.29206   -7373.7905   -6664.6636   -851.72466     102002.7      46.7237      46.7237      46.7237 
  262000    128.86891   -7428.8222   -6722.0161   -669.09703     102002.7      46.7237      46.7237      46.7237 
  263000    131.72149   -7441.8125   -6719.3608   -986.16513     102002.7      46.7237      46.7237      46.7237 
  264000    130.98799   -7407.7859   -6689.3574   -682.22078     102002.7      46.7237      46.7237      46.7237 
  265000    130.29728   -7434.1187   -6719.4784   -638.85246     102002.7      46.7237      46.7237      46.7237 
  266000    125.25653   -7411.6682   -6724.6749    -509.8119     102002.7      46.7237      46.7237      46.7237 
  267000    130.49201   -7413.1797   -6697.4714   -794.77239     102002.7      46.7237      46.7237      46.7237 
  268000     129.5772   -7391.5166   -6680.8257     -738.638     102002.7      46.7237      46.7237      46.7237 
  269000    128.59354   -7424.7043   -6719.4085   -806.48595     102002.7      46.7237      46.7237      46.7237 
  270000    129.31534   -7406.6634   -6697.4087   -648.78932     102002.7      46.7237      46.7237      46.7237 
  271000    127.14862   -7423.0964   -6725.7256   -1066.2515     102002.7      46.7237      46.7237      46.7237 
  272000    128.87259   -7420.1302   -6713.3039   -819.16954     102002.7      46.7237      46.7237      46.7237 
  273000    131.19793   -7416.4731   -6696.8931    -822.4311     102002.7      46.7237      46.7237      46.7237 
  274000    128.46505   -7427.3593   -6722.7683   -709.14176     102002.7      46.7237      46.7237      46.7237 
  275000    128.64258   -7431.0522   -6725.4874   -938.41229     102002.7      46.7237      46.7237      46.7237 
  276000    128.88172   -7416.3533    -6709.477   -574.73169     102002.7      46.7237      46.7237      46.7237 
  277000    130.87183   -7415.6171   -6697.8256   -908.03078     102002.7      46.7237      46.7237      46.7237 
  278000     127.6621   -7418.2006   -6718.0135   -799.14354     102002.7      46.7237      46.7237      46.7237 
  279000    131.76832   -7439.0604    -6716.352   -487.64777     102002.7      46.7237      46.7237      46.7237 
  280000     128.8614   -7428.1447   -6721.3798   -747.49242     102002.7      46.7237      46.7237      46.7237 
  281000    131.01161   -7409.3849   -6690.8267   -628.14358     102002.7      46.7237      46.7237      46.7237 
  282000    127.45731   -7417.0392   -6717.9753   -695.08983     102002.7      46.7237      46.7237      46.7237 
  283000    129.60792    -7387.782   -6676.9226   -731.08419     102002.7      46.7237      46.7237      46.7237 
  284000    129.72257   -7399.3503   -6687.8621   -632.03013     102002.7      46.7237      46.7237      46.7237 
  285000    132.50063   -7420.6534   -6693.9285   -899.19645     102002.7      46.7237      46.7237      46.7237 
  286000    131.62166   -7411.8663   -6689.9623   -754.01161     102002.7      46.7237      46.7237      46.7237 
  287000    128.95767   -7424.7961   -6717.5032   -495.14339     102002.7      46.7237      46.7237      46.7237 
  288000    132.39774   -7405.6081   -6679.4475   -719.89285     102002.7      46.7237      46.7237      46.7237 
  289000    129.91079   -7423.1752   -6710.6547   -955.98974     102002.7      46.7237      46.7237      46.7237 
  290000    132.11735   -7458.0355   -6733.4127   -562.86659     102002.7      46.7237      46.7237      46.7237 
  291000     129.9705   -7404.0476   -6691.1996   -735.49216     102002.7      46.7237      46.7237      46.7237 
  292000    128.81077   -7427.3204   -6720.8332   -922.01264     102002.7      46.7237      46.7237      46.7237 
  293000    127.96581   -7435.7782   -6733.9253   -606.62686     102002.7      46.7237      46.7237      46.7237 
  294000     130.5465   -7411.6036   -6695.5965   -874.73394     102002.7      46.7237      46.7237      46.7237 
  295000    132.13769   -7442.5594   -6717.8251   -905.74134     102002.7      46.7237      46.7237      46.7237 
  296000    125.71317   -7417.5585   -6728.0606   -568.21051     102002.7      46.7237      46.7237      46.7237 
  297000    133.54722   -7402.2498   -6669.7846   -721.29365     102002.7      46.7237      46.7237      46.7237 
  298000    131.09096   -7399.9984   -6681.0051   -534.12302     102002.7      46.7237      46.7237      46.7237 
  299000    131.70717   -7423.7758   -6701.4028   -708.22664     102002.7      46.7237      46.7237      46.7237 
  300000    131.32422   -7415.0172   -6694.7445   -1095.9684     102002.7      46.7237      46.7237      46.7237 
  301000    128.03767    -7404.412    -6702.165   -908.97531     102002.7      46.7237      46.7237      46.7237 
  302000    129.24598   -7415.4249   -6706.5507    -1016.666     102002.7      46.7237      46.7237      46.7237 
  303000    130.00445   -7412.4873   -6699.4532   -850.02064     102002.7      46.7237      46.7237      46.7237 
  304000    129.94315   -7399.3601   -6686.6622   -796.99887     102002.7      46.7237      46.7237      46.7237 
  305000    126.91406   -7419.0559   -6722.9716   -937.71004     102002.7      46.7237      46.7237      46.7237 
  306000    128.62862   -7442.0127   -6736.5245   -915.87834     102002.7      46.7237      46.7237      46.7237 
  307000    128.71877   -7401.6593   -6695.6767   -1129.7119     102002.7      46.7237      46.7237      46.7237 
  308000    128.58736   -7421.3874   -6716.1255   -974.28789     102002.7      46.7237      46.7237      46.7237 
  309000    128.51279    -7384.858   -6680.0051   -706.23694     102002.7      46.7237      46.7237      46.7237 
  310000    129.71525    -7411.004    -6699.556   -839.17578     102002.7      46.7237      46.7237      46.7237 
  311000    131.79281   -7404.2968    -6681.454   -611.45435     102002.7      46.7237      46.7237      46.7237 
  312000    129.53787   -7411.0861    -6700.611   -949.32955     102002.7      46.7237      46.7237      46.7237 
  313000     127.8402   -7406.9924   -6705.8285   -876.08862     102002.7      46.7237      46.7237      46.7237 
  314000    129.98272   -7418.2359   -6705.3209   -462.20598     102002.7      46.7237      46.7237      46.7237 
  315000    131.51068   -7401.0362   -6679.7408   -541.96163     102002.7      46.7237      46.7237      46.7237 
  316000    132.86344   -7425.3164   -6696.6016   -749.32842     102002.7      46.7237      46.7237      46.7237 
  317000    128.02873   -7413.8992   -6711.7013   -963.80366     102002.7      46.7237      46.7237      46.7237 
  318000    129.59238   -7394.5393   -6683.7652   -499.26953     102002.7      46.7237      46.7237      46.7237 
  319000    130.44512   -7406.3741    -6690.923   -999.59878     102002.7      46.7237      46.7237      46.7237 
  320000    128.38227   -7426.3907   -6722.2536   -1076.0282     102002.7      46.7237      46.7237      46.7237 
  321000    130.26818    -7438.257   -6723.7764    -815.9553     102002.7      46.7237      46.7237      46.7237 
  322000    130.18545   -7410.8407   -6696.8138   -1155.3598     102002.7      46.7237      46.7237      46.7237 
  323000    136.45306   -7418.3027   -6669.8999   -775.84192     102002.7      46.7237      46.7237      46.7237 
  324000    127.89808   -7431.6225   -6730.1411    -986.5557     102002.7      46.7237      46.7237      46.7237 
  325000    132.71422   -7439.6164     -6711.72    -708.7764     102002.7      46.7237      46.7237      46.7237 
  326000    135.13512   -7442.7215   -6701.5472   -860.78014     102002.7      46.7237      46.7237      46.7237 
  327000    125.26993   -7440.3006   -6753.2338   -664.93124     102002.7      46.7237      46.7237      46.7237 
  328000     129.3231   -7420.5739   -6711.2767   -777.73088     102002.7      46.7237      46.7237      46.7237 
  329000    125.03417   -7404.8152   -6719.0415   -614.15772     102002.7      46.7237      46.7237      46.7237 
  330000     132.5946   -7441.9486   -6714.7082   -635.48606     102002.7      46.7237      46.7237      46.7237 
  331000    133.38987   -7426.3288   -6694.7266   -720.77198     102002.7      46.7237      46.7237      46.7237 
  332000    132.69041   -7431.5918    -6703.826    -650.9326     102002.7      46.7237      46.7237      46.7237 
  333000    128.97081   -7440.1914   -6732.8264   -954.74688     102002.7      46.7237      46.7237      46.7237 
  334000    130.08275   -7409.8875   -6696.4239   -930.83609     102002.7      46.7237      46.7237      46.7237 
  335000    130.44209   -7380.7674   -6665.3329    -1048.791     102002.7      46.7237      46.7237      46.7237 
  336000    129.28499   -7410.0779   -6700.9897   -787.08173     102002.7      46.7237      46.7237      46.7237 
  337000     126.1376   -7419.9055   -6728.0798   -947.26172     102002.7      46.7237      46.7237      46.7237 
  338000    129.58186   -7424.9993   -6714.2829   -863.78379     102002.7      46.7237      46.7237      46.7237 
  339000    131.80765   -7405.1762    -6682.252   -947.55799     102002.7      46.7237      46.7237      46.7237 
  340000    129.32966   -7428.3566   -6719.0234   -704.64916     102002.7      46.7237      46.7237      46.7237 
  341000    129.33449   -7428.1013   -6718.7417   -941.06741     102002.7      46.7237      46.7237      46.7237 
  342000    125.67694    -7425.184   -6735.8849   -867.57896     102002.7      46.7237      46.7237      46.7237 
  343000    132.86065   -7412.1871   -6683.4876    -844.9496     102002.7      46.7237      46.7237      46.7237 
  344000    130.94615    -7426.607   -6708.4079   -712.38674     102002.7      46.7237      46.7237      46.7237 
  345000    132.56028   -7403.1382   -6676.0861   -494.13228     102002.7      46.7237      46.7237      46.7237 
  346000    131.01474     -7408.65   -6690.0747   -506.51227     102002.7      46.7237      46.7237      46.7237 
  347000    133.96922   -7410.7255   -6675.9458   -522.84727     102002.7      46.7237      46.7237      46.7237 
  348000    129.43449   -7399.1632   -6689.2551   -985.00152     102002.7      46.7237      46.7237      46.7237 
  349000    127.26008   -7436.3668   -6738.3846   -714.38191     102002.7      46.7237      46.7237      46.7237 
  350000    128.24482   -7416.0865   -6712.7034   -710.22065     102002.7      46.7237      46.7237      46.7237 
  351000    127.76258   -7408.5567   -6707.8185    -1008.195     102002.7      46.7237      46.7237      46.7237 
  352000    130.96333   -7422.9041   -6704.6108   -679.81349     102002.7      46.7237      46.7237      46.7237 
  353000    128.95162   -7421.4457    -6714.186   -1030.6505     102002.7      46.7237      46.7237      46.7237 
  354000    129.88084   -7427.8291   -6715.4729   -799.43788     102002.7      46.7237      46.7237      46.7237 
  355000    131.84613   -7432.7393   -6709.6041   -712.23131     102002.7      46.7237      46.7237      46.7237 
  356000    128.01339   -7444.6266   -6742.5128   -802.24069     102002.7      46.7237      46.7237      46.7237 
  357000      131.637   -7426.5477   -6704.5595   -772.29591     102002.7      46.7237      46.7237      46.7237 
  358000    133.67998   -7409.9195   -6676.7262   -1022.6951     102002.7      46.7237      46.7237      46.7237 
  359000    128.07385   -7431.3266   -6728.8812   -429.63093     102002.7      46.7237      46.7237      46.7237 
  360000    126.02735   -7434.6181   -6743.3971   -817.36692     102002.7      46.7237      46.7237      46.7237 
  361000    128.03005   -7412.2764   -6710.0712      -789.67     102002.7      46.7237      46.7237      46.7237 
  362000    128.38099   -7431.8285   -6727.6986   -607.54616     102002.7      46.7237      46.7237      46.7237 
  363000    129.27137   -7432.0647   -6723.0512   -946.99271     102002.7      46.7237      46.7237      46.7237 
  364000     131.1215   -7416.4002   -6697.2394   -748.12916     102002.7      46.7237      46.7237      46.7237 
  365000    129.48463   -7429.8014   -6719.6182   -594.84064     102002.7      46.7237      46.7237      46.7237 
  366000    129.48363   -7455.1879   -6745.0102   -972.27296     102002.7      46.7237      46.7237      46.7237 
  367000    131.02505   -7409.4882   -6690.8564   -616.81969     102002.7      46.7237      46.7237      46.7237 
  368000    132.51414   -7403.5095   -6676.7105   -617.10389     102002.7      46.7237      46.7237      46.7237 
  369000    130.92554   -7431.9612   -6713.8752   -705.87572     102002.7      46.7237      46.7237      46.7237 
  370000    127.72841   -7441.8659   -6741.3151   -797.17827     102002.7      46.7237      46.7237      46.7237 
  371000    132.96253   -7404.5306   -6675.2722   -708.25541     102002.7      46.7237      46.7237      46.7237 
  372000    132.15044    -7421.013   -6696.2087   -740.06847     102002.7      46.7237      46.7237      46.7237 
  373000    130.00887   -7414.6498   -6701.5914   -738.16334     102002.7      46.7237      46.7237      46.7237 
  374000    133.11912    -7428.192   -6698.0748    -920.3432     102002.7      46.7237      46.7237      46.7237 
  375000    131.33658   -7416.8461   -6696.5056   -962.93851     102002.7      46.7237      46.7237      46.7237 
  376000    132.23768   -7412.7001   -6687.4173   -552.98849     102002.7      46.7237      46.7237      46.7237 
  377000    126.43316   -7429.1714   -6735.7246   -856.18176     102002.7      46.7237      46.7237      46.7237 
  378000    127.10607   -7412.8554   -6715.7179   -961.79197     102002.7      46.7237      46.7237      46.7237 
  379000     129.1815   -7400.4397   -6691.9191   -599.86553     102002.7      46.7237      46.7237      46.7237 
  380000    136.97345   -7425.9297   -6674.6727   -727.17021     102002.7      46.7237      46.7237      46.7237 
  381000    131.34004   -7437.0927   -6716.7333   -1126.2816     102002.7      46.7237      46.7237      46.7237 
  382000    131.40007   -7405.7422   -6685.0534   -1028.1362     102002.7      46.7237      46.7237      46.7237 
  383000    132.12869   -7386.8796   -6662.1946   -706.48372     102002.7      46.7237      46.7237      46.7237 
  384000     125.7568   -7419.4792   -6729.7421   -1123.4132     102002.7      46.7237      46.7237      46.7237 
  385000    126.89494   -7427.7191   -6731.7396   -829.27192     102002.7      46.7237      46.7237      46.7237 
  386000    128.59937   -7421.7247    -6716.397   -865.50521     102002.7      46.7237      46.7237      46.7237 
  387000    126.95974   -7423.5047   -6727.1698   -774.64986     102002.7      46.7237      46.7237      46.7237 
  388000    134.06872   -7425.2555     -6689.93   -668.53093     102002.7      46.7237      46.7237      46.7237 
  389000    135.56183    -7399.589   -6656.0743   -1100.9592     102002.7      46.7237      46.7237      46.7237 
  390000    128.18506   -7419.4496   -6716.3942   -378.20303     102002.7      46.7237      46.7237      46.7237 
  391000    131.42354    -7406.828   -6686.0106   -630.87437     102002.7      46.7237      46.7237      46.7237 
  392000    129.58081    -7435.489   -6724.7784   -674.30525     102002.7      46.7237      46.7237      46.7237 
  393000    135.87409   -7399.0991   -6653.8718   -502.52553     102002.7      46.7237      46.7237      46.7237 
  394000      130.743   -7421.8216   -6704.7367   -526.89023     102002.7      46.7237      46.7237      46.7237 
  395000    128.04673   -7453.2609   -6750.9642   -625.32927     102002.7      46.7237      46.7237      46.7237 
  396000    129.82551   -7405.6268   -6693.5741   -684.01687     102002.7      46.7237      46.7237      46.7237 
  397000    133.42182   -7428.2997   -6696.5223   -722.08689     102002.7      46.7237      46.7237      46.7237 
  398000     134.7204   -7423.3586   -6684.4589    -467.4001     102002.7      46.7237      46.7237      46.7237 
  399000    128.26699   -7433.1494   -6729.6447   -694.38923     102002.7      46.7237      46.7237      46.7237 
  400000     128.6588   -7405.7879   -6700.1342   -780.14509     102002.7      46.7237      46.7237      46.7237 
  401000      130.464   -7405.8554   -6690.3007   -734.04632     102002.7      46.7237      46.7237      46.7237 
  402000    128.06392   -7434.2762   -6731.8852   -796.31278     102002.7      46.7237      46.7237      46.7237 
  403000    133.65528   -7427.0737   -6694.0159   -455.32989     102002.7      46.7237      46.7237      46.7237 
  404000    134.12946   -7456.6121   -6720.9536   -610.38031     102002.7      46.7237      46.7237      46.7237 
  405000    129.95157    -7419.433   -6706.6889   -428.82427     102002.7      46.7237      46.7237      46.7237 
  406000    130.84016   -7397.8016   -6680.1838    -1218.161     102002.7      46.7237      46.7237      46.7237 
  407000    126.37771    -7436.725   -6743.5823   -763.77518     102002.7      46.7237      46.7237      46.7237 
  408000    132.65054    -7430.821   -6703.2739   -987.23418     102002.7      46.7237      46.7237      46.7237 
  409000    130.88804   -7424.6312   -6706.7508   -877.98032     102002.7      46.7237      46.7237      46.7237 
  410000    130.64824   -7428.2222    -6711.657   -900.85066     102002.7      46.7237      46.7237      46.7237 
  411000    131.97992   -7415.3241   -6691.4551   -776.09075     102002.7      46.7237      46.7237      46.7237 
  412000    122.21935   -7418.5023    -6748.167   -882.95359     102002.7      46.7237      46.7237      46.7237 
  413000    127.84418   -7413.5929   -6712.4072   -1089.1456     102002.7      46.7237      46.7237      46.7237 
  414000    131.59198   -7436.2401   -6714.4988   -857.05748     102002.7      46.7237      46.7237      46.7237 
  415000    129.57773   -7412.2247   -6701.5309   -927.26289     102002.7      46.7237      46.7237      46.7237 
  416000    130.02485   -7401.4334   -6688.2873   -818.43183     102002.7      46.7237      46.7237      46.7237 
  417000    127.32314   -7421.9695   -6723.6415   -686.06047     102002.7      46.7237      46.7237      46.7237 
  418000    129.52388     -7410.79   -6700.3916   -845.76622     102002.7      46.7237      46.7237      46.7237 
  419000    127.71058   -7436.3067   -6735.8537   -687.04607     102002.7      46.7237      46.7237      46.7237 
  420000    129.02885   -7418.4378   -6710.7545   -693.49735     102002.7      46.7237      46.7237      46.7237 
  421000    129.57137   -7442.6712   -6732.0123   -1149.4474     102002.7      46.7237      46.7237      46.7237 
  422000    130.97502   -7413.1842   -6694.8267    -731.3221     102002.7      46.7237      46.7237      46.7237 
  423000    128.64089   -7427.4403   -6721.8848   -1010.9581     102002.7      46.7237      46.7237      46.7237 
  424000    129.82633   -7418.2152   -6706.1579   -815.32835     102002.7      46.7237      46.7237      46.7237 
  425000    130.71359   -7416.7187   -6699.7951    -598.8599     102002.7      46.7237      46.7237      46.7237 
  426000     127.1401   -7427.1013   -6729.7772   -1049.5145     102002.7      46.7237      46.7237      46.7237 
  427000    126.70258   -7416.1793   -6721.2549   -496.10411     102002.7      46.7237      46.7237      46.7237 
  428000    130.14694     -7409.82   -6696.0043   -884.40076     102002.7      46.7237      46.7237      46.7237 
  429000     124.8575   -7416.3876   -6731.5828   -885.87196     102002.7      46.7237      46.7237      46.7237 
  430000    131.11876   -7427.7712   -6708.6254   -776.59321     102002.7      46.7237      46.7237      46.7237 
  431000    132.22757   -7426.6044   -6701.3772   -602.71709     102002.7      46.7237      46.7237      46.7237 
  432000    132.66453    -7404.612   -6676.9881   -910.23655     102002.7      46.7237      46.7237      46.7237 
  433000    130.08919   -7448.5889     -6735.09    -1006.569     102002.7      46.7237      46.7237      46.7237 
  434000    130.00854   -7416.7044   -6703.6478   -524.01241     102002.7      46.7237      46.7237      46.7237 
  435000    129.14847   -7423.3545   -6715.0151   -1003.9907     102002.7      46.7237      46.7237      46.7237 
  436000    131.52534   -7439.2156   -6717.8398   -736.13187     102002.7      46.7237      46.7237      46.7237 
  437000    134.20284   -7407.9998   -6671.9387   -763.20159     102002.7      46.7237      46.7237      46.7237 
  438000    131.55082   -7414.1508   -6692.6353   -859.92424     102002.7      46.7237      46.7237      46.7237 
  439000    129.48833     -7428.59   -6718.3865   -773.90177     102002.7      46.7237      46.7237      46.7237 
  440000    130.41671   -7410.8484   -6695.5531   -599.19778     102002.7      46.7237      46.7237      46.7237 
  441000    133.01507    -7411.851   -6682.3045   -430.41422     102002.7      46.7237      46.7237      46.7237 
  442000    127.33684   -7417.3478   -6718.9446   -549.67379     102002.7      46.7237      46.7237      46.7237 
  443000    126.23739   -7412.5629   -6720.1899   -625.50445     102002.7      46.7237      46.7237      46.7237 
  444000    130.03884   -7420.9527   -6707.7299   -842.81391     102002.7      46.7237      46.7237      46.7237 
  445000    130.98452   -7410.9852   -6692.5757   -849.64993     102002.7      46.7237      46.7237      46.7237 
  446000     127.1124   -7419.9643   -6722.7921   -783.38742     102002.7      46.7237      46.7237      46.7237 
  447000    128.97204   -7420.1266   -6712.7549   -806.42091     102002.7      46.7237      46.7237      46.7237 
  448000    127.52688   -7419.4323   -6719.9868   -753.13626     102002.7      46.7237      46.7237      46.7237 
  449000    129.43368   -7422.0408   -6712.1371   -1053.7138     102002.7      46.7237      46.7237      46.7237 
  450000    126.67074    -7436.303   -6741.5532   -322.34092     102002.7      46.7237      46.7237      46.7237 
  451000    134.82838   -7422.5743   -6683.0823   -461.06715     102002.7      46.7237      46.7237      46.7237 
  452000    127.75401   -7423.3734   -6722.6822   -866.30414     102002.7      46.7237      46.7237      46.7237 
  453000    133.34432   -7428.3187   -6696.9663   -575.21117     102002.7      46.7237      46.7237      46.7237 
  454000    131.79804   -7417.5853   -6694.7139   -875.63337     102002.7      46.7237      46.7237      46.7237 
  455000     127.1072   -7420.4452   -6723.3015   -802.86318     102002.7      46.7237      46.7237      46.7237 
  456000     130.6346   -7433.6904      -6717.2   -869.35491     102002.7      46.7237      46.7237      46.7237 
  457000    135.34012    -7416.264   -6673.9653   -1061.1929     102002.7      46.7237      46.7237      46.7237 
  458000    132.26575   -7433.5768     -6708.14   -1023.5558     102002.7      46.7237      46.7237      46.7237 
  459000    127.05377   -7416.2788   -6719.4281    -981.6904     102002.7      46.7237      46.7237      46.7237 
  460000    129.41248   -7418.4128   -6708.6254      -863.31     102002.7      46.7237      46.7237      46.7237 
  461000    130.92461   -7430.8051   -6712.7241   -897.71393     102002.7      46.7237      46.7237      46.7237 
  462000    125.32272    -7437.121   -6749.7646   -563.41544     102002.7      46.7237      46.7237      46.7237 
  463000    128.53208   -7404.5044   -6699.5458   -906.37117     102002.7      46.7237      46.7237      46.7237 
  464000    132.98614   -7409.0511   -6679.6632   -550.90399     102002.7      46.7237      46.7237      46.7237 
  465000     133.6436   -7453.8389   -6720.8451   -332.62055     102002.7      46.7237      46.7237      46.7237 
  466000    134.39006   -7385.2156   -6648.1277   -736.92688     102002.7      46.7237      46.7237      46.7237 
  467000     127.1517   -7390.3767   -6692.9889   -611.02929     102002.7      46.7237      46.7237      46.7237 
  468000    128.61523   -7404.6786   -6699.2639   -330.89822     102002.7      46.7237      46.7237      46.7237 
  469000    128.00508   -7433.4728   -6731.4046   -658.94472     102002.7      46.7237      46.7237      46.7237 
  470000    129.70897   -7421.6926   -6710.2791   -683.51445     102002.7      46.7237      46.7237      46.7237 
  471000    129.14375   -7449.6411   -6741.3276   -505.93242     102002.7      46.7237      46.7237      46.7237 
  472000    129.16723   -7404.5413    -6696.099   -815.69772     102002.7      46.7237      46.7237      46.7237 
  473000     129.8921   -7430.0403   -6717.6224   -635.51024     102002.7      46.7237      46.7237      46.7237 
  474000    129.73223   -7414.3337   -6702.7925   -868.69418     102002.7      46.7237      46.7237      46.7237 
  475000    130.01417   -7432.9093   -6719.8218   -671.85335     102002.7      46.7237      46.7237      46.7237 
  476000    130.34351    -7414.694   -6699.8002   -850.19135     102002.7      46.7237      46.7237      46.7237 
  477000    132.41723   -7430.0666   -6703.7991   -923.00909     102002.7      46.7237      46.7237      46.7237 
  478000    129.81299   -7430.7606   -6718.7765   -862.36935     102002.7      46.7237      46.7237      46.7237 
  479000    133.06164   -7419.6601   -6689.8582   -480.56459     102002.7      46.7237      46.7237      46.7237 
  480000    126.52042   -7424.4716   -6730.5462   -1046.4261     102002.7      46.7237      46.7237      46.7237 
  481000    126.83204   -7443.6415    -6748.007   -692.77174     102002.7      46.7237      46.7237      46.7237 
  482000    131.84079   -7402.7008   -6679.5948   -816.23528     102002.7      46.7237      46.7237      46.7237 
  483000     129.8633   -7416.6654   -6704.4054   -494.66663     102002.7      46.7237      46.7237      46.7237 
  484000    129.07105   -7427.1728   -6719.2581   -483.57044     102002.7      46.7237      46.7237      46.7237 
  485000    135.95856   -7412.6014   -6666.9108   -573.57545     102002.7      46.7237      46.7237      46.7237 
  486000    128.84896   -7414.4871   -6707.7905   -813.70719     102002.7      46.7237      46.7237      46.7237 
  487000    127.42947   -7425.0173   -6726.1061   -393.55875     102002.7      46.7237      46.7237      46.7237 
  488000    133.54243   -7418.7276   -6686.2887   -617.45101     102002.7      46.7237      46.7237      46.7237 
  489000    127.78221   -7417.7233   -6716.8774   -679.70531     102002.7      46.7237      46.7237      46.7237 
  490000    130.97218   -7413.1668    -6694.825   -603.29909     102002.7      46.7237      46.7237      46.7237 
  491000    129.10478    -7403.813   -6695.7132   -832.09904     102002.7      46.7237      46.7237      46.7237 
  492000    131.49518   -7427.3191   -6706.1087   -940.25639     102002.7      46.7237      46.7237      46.7237 
  493000    128.16831   -7440.1687   -6737.2052   -587.75199     102002.7      46.7237      46.7237      46.7237 
  494000    129.84323   -7407.0914   -6694.9415   -812.29368     102002.7      46.7237      46.7237      46.7237 
  495000    130.02749   -7433.3934   -6720.2329   -676.10975     102002.7      46.7237      46.7237      46.7237 
  496000    135.36006   -7409.3264   -6666.9184    -869.1388     102002.7      46.7237      46.7237      46.7237 
  497000    130.09451   -7414.9201    -6701.392   -791.75565     102002.7      46.7237      46.7237      46.7237 
  498000    129.13205   -7435.6928   -6727.4435   -942.01889     102002.7      46.7237      46.7237      46.7237 
  499000    127.73018   -7413.3735    -6712.813   -805.98104     102002.7      46.7237      46.7237      46.7237 
  500000     132.4091   -7424.5073   -6698.2844   -968.84802     102002.7      46.7237      46.7237      46.7237 
  500503    130.59689   -7439.4978   -6723.2142   -922.53297     102002.7      46.7237      46.7237      46.7237 
Loop time of 1266.09 on 16 procs for 500000 steps with 1841 atoms

Performance: 34.121 ns/day, 0.703 hours/ns, 394.918 timesteps/s
99.8% CPU use with 16 MPI tasks x no OpenMP threads

MPI task timing breakdown:
Section |  min time  |  avg time  |  max time  |%varavg| %total
---------------------------------------------------------------
Pair    | 578.91     | 715.07     | 843.39     | 293.2 | 56.48
Bond    | 150.51     | 174.25     | 198.73     | 148.6 | 13.76
Neigh   | 5.9598     | 5.977      | 5.993      |   0.5 |  0.47
Comm    | 247.56     | 356.83     | 478.67     | 357.3 | 28.18
Output  | 0.020268   | 0.020654   | 0.023907   |   0.6 |  0.00
Modify  | 7.7119     | 8.349      | 8.8787     |  12.3 |  0.66
Other   |            | 5.594      |            |       |  0.44

Nlocal:    115.062 ave 152 max 76 min
Histogram: 1 1 1 2 3 3 2 0 1 2
Nghost:    2340.31 ave 2388 max 2300 min
Histogram: 3 0 1 2 2 5 1 0 1 1
Neighs:    11463.3 ave 14841 max 8629 min
Histogram: 2 5 0 0 1 1 2 2 2 1

Total # of neighbors = 183413
Ave neighs/atom = 99.6268
Ave special neighs/atom = 6.25747
Neighbor list builds = 4532
Dangerous builds = 0
Neighbor list info ...
  update every 1 steps, delay 10 steps, check yes
  max neighbors/atom: 2000, page size: 100000
  master list distance cutoff = 16
  ghost atom cutoff = 16
  binsize = 8, bins = 6 6 6
  3 neighbor lists, perpetual/occasional/extra = 3 0 0
  (1) pair buck6d/coul/gauss/dsf, perpetual, skip from (3)
      attributes: half, newton on
      pair build: skip
      stencil: none
      bin: none
  (2) pair lj/cut, perpetual, skip from (3)
      attributes: half, newton on
      pair build: skip
      stencil: none
      bin: none
  (3) neighbor class addition, perpetual
      attributes: half, newton on
      pair build: half/bin/newton
      stencil: half/bin/3d/newton
      bin: standard
Setting up Verlet run ...
  Unit style    : real
  Current step  : 500503
  Time step     : 1
WARNING: Inconsistent image flags (../domain.cpp:786)
Per MPI rank memory allocation (min/avg/max) = 22.69 | 23.23 | 23.34 Mbytes
Step Time TotEng KinEng PotEng E_mol E_pair Temp Pxx Pyy Pzz Pxy Pxz Pyz Cella Cellb Cellc CellAlpha CellBeta CellGamma Volume Press 
  500503       500000   -6723.2142    716.28351   -7439.4978    4392.9763   -11832.474    130.59689   -919.47141   -713.06646    -1135.061    31.214599   -49.492299   -113.18663      46.7237      46.7237      46.7237           90           90           90     102002.7   -922.53297 
  501000       500497   -6725.8881    704.84837   -7430.7365     4400.959   -11831.695    128.51197    -1258.988    -964.3003   -1082.6544   -208.68687    -198.0511    49.913639      46.7237      46.7237      46.7237           90           90           90     102002.7   -1101.9809 
  502000       501497   -6682.5478    721.14484   -7403.6926    4422.5294   -11826.222    131.48323   -916.15935   -583.10054   -1117.5281    10.164337     188.9203   -149.58571      46.7237      46.7237      46.7237           90           90           90     102002.7   -872.26267 
  503000       502497   -6703.5372    703.26479    -7406.802    4423.7895   -11830.592    128.22324   -921.22503    -1143.394   -1227.6668    89.475103   -237.08008    54.438144      46.7237      46.7237      46.7237           90           90           90     102002.7   -1097.4286 
  504000       503497   -6702.2448    726.76523   -7429.0101    4410.9963   -11840.006    132.50797   -1402.5294   -469.76173   -1089.0615    155.70889   -147.29112   -69.452751      46.7237      46.7237      46.7237           90           90           90     102002.7   -987.11754 
  505000       504497   -6702.2935    726.33585   -7428.6294    4383.3928   -11812.022    132.42969   -441.72407   -950.58097   -627.74938    200.85329   -1.3184658   -87.823729      46.7237      46.7237      46.7237           90           90           90     102002.7   -673.35147 
  506000       505497   -6719.3661    692.12774   -7411.4938    4400.9488   -11812.443    126.19267   -887.31385   -851.90427   -1101.9521     408.4242   -210.18648   -61.297104      46.7237      46.7237      46.7237           90           90           90     102002.7   -947.05673 
  507000       506497   -6754.3149    682.86661   -7437.1815    4390.2947   -11827.476    124.50413    -599.0269   -678.13896   -1105.9859   -110.93078    -58.03692    181.82343      46.7237      46.7237      46.7237           90           90           90     102002.7   -794.38392 
  508000       507497   -6710.6658    711.48532   -7422.1511    4414.6833   -11836.834    129.72206   -811.06138   -1080.0361   -919.32674   -81.139958    14.722131   -258.48714      46.7237      46.7237      46.7237           90           90           90     102002.7   -936.80809 
  509000       508497   -6703.9643    708.53117   -7412.4955    4397.9327   -11810.428    129.18344    -1140.779   -358.66658   -793.70354    53.404829    36.833059   -47.182858      46.7237      46.7237      46.7237           90           90           90     102002.7   -764.38304 
  510000       509497   -6666.7695    731.99123   -7398.7607    4423.0904   -11821.851    133.46081   -475.87025   -840.47784    -507.4164   -36.859391    205.74802   -164.53939      46.7237      46.7237      46.7237           90           90           90     102002.7    -607.9215 
  511000       510497   -6685.8513    729.12761   -7414.9789    4392.0809    -11807.06     132.9387   -783.88513   -820.64271   -650.07835   -10.058782    126.12874   -155.22865      46.7237      46.7237      46.7237           90           90           90     102002.7    -751.5354 
  512000       511497   -6694.2788    714.08385   -7408.3626    4417.3407   -11825.703    130.19583   -585.39788   -421.29512   -482.46459    293.57307   -85.982275   -49.859435      46.7237      46.7237      46.7237           90           90           90     102002.7   -496.38586 
  513000       512497   -6712.5762    703.87869   -7416.4549    4388.8585   -11805.313    128.33517   -270.78915   -600.01004   -771.10484    20.636229    47.840694   -47.434937      46.7237      46.7237      46.7237           90           90           90     102002.7   -547.30134 
  514000       513497   -6695.9831    717.36704   -7413.3502    4403.3517   -11816.702    130.79444   -1070.5486   -716.39435   -790.29431    158.84176   -29.054327    50.195262      46.7237      46.7237      46.7237           90           90           90     102002.7   -859.07908 
  515000       514497   -6690.7632    715.66731   -7406.4306    4431.0935   -11837.524    130.48454   -1211.6036   -1069.0386   -1187.2971    60.535838    181.65263   -43.692516      46.7237      46.7237      46.7237           90           90           90     102002.7   -1155.9798 
  516000       515497   -6694.9324    707.13684   -7402.0692    4430.7031   -11832.772    128.92921   -1314.9359   -897.92465   -954.82019   -70.311753    34.791195    218.17608      46.7237      46.7237      46.7237           90           90           90     102002.7   -1055.8936 
  517000       516497    -6729.923    695.04466   -7424.9676    4382.8455   -11807.813     126.7245   -703.10896   -888.67763   -554.93314   -23.818783    30.957675    39.757227      46.7237      46.7237      46.7237           90           90           90     102002.7   -715.57324 
  518000       517497   -6705.0019    694.85033   -7399.8522    4438.5968   -11838.449    126.68907   -639.51428   -472.63053   -1173.3277   -91.004996    200.68244   -38.573927      46.7237      46.7237      46.7237           90           90           90     102002.7   -761.82415 
  519000       518497   -6712.1989    705.56789   -7417.7668    4409.8077   -11827.574    128.64316   -50.870818   -800.75805   -550.65798     224.9591    167.53141    29.160876      46.7237      46.7237      46.7237           90           90           90     102002.7   -467.42895 
  520000       519497   -6688.7452    730.36059   -7419.1058    4401.7854   -11820.891     133.1635   -726.98232   -596.12517   -321.46917   -139.18059   -17.929389   -23.266301      46.7237      46.7237      46.7237           90           90           90     102002.7   -548.19222 
  521000       520497   -6703.9768    708.32474   -7412.3016    4413.8045   -11826.106     129.1458    -624.9861   -446.19255   -990.25354    67.995051    4.0591938   -81.502896      46.7237      46.7237      46.7237           90           90           90     102002.7   -687.14406 
  522000       521497   -6706.8882    713.23638   -7420.1246    4405.8583   -11825.983    130.04132   -686.69781   -519.81906    -1042.288     184.9081   -162.53659    41.820333      46.7237      46.7237      46.7237           90           90           90     102002.7   -749.60163 
  523000       522497   -6705.4554    724.94934   -7430.4048    4397.4835   -11827.888    132.17689   -1053.8067   -450.08475   -718.62835    169.87887    330.44809    213.79853      46.7237      46.7237      46.7237           90           90           90     102002.7   -740.83994 
  524000       523497   -6689.2904    712.04387   -7401.3343    4414.1971   -11815.531    129.82389   -655.78579   -650.01047   -1289.3849    -10.24391   -553.64058    125.40034      46.7237      46.7237      46.7237           90           90           90     102002.7   -865.06038 
  525000       524497   -6742.9066    688.21713   -7431.1237    4401.1979   -11832.322    125.47967     -794.795   -990.19275   -744.69048   -180.80983    232.59678    186.44897      46.7237      46.7237      46.7237           90           90           90     102002.7   -843.22608 
  526000       525497   -6703.7813    709.24702   -7413.0284    4409.8895   -11822.918    129.31396   -265.66517   -1165.5826   -369.61917    44.940364    134.47825   -70.504764      46.7237      46.7237      46.7237           90           90           90     102002.7   -600.28898 
  527000       526497   -6692.1319    726.25228   -7418.3842     4409.769   -11828.153    132.41445   -1107.0026   -915.71864   -1328.5392   -7.2105907   -294.00161    94.348813      46.7237      46.7237      46.7237           90           90           90     102002.7   -1117.0868 
  528000       527497   -6743.5854    674.13214   -7417.7175    4408.2396   -11825.957    122.91161   -815.93268   -828.79992   -745.81852     189.0281   -131.95299    72.077166      46.7237      46.7237      46.7237           90           90           90     102002.7   -796.85037 
  529000       528497   -6703.7487    739.14458   -7442.8933    4384.3468    -11827.24    134.76505   -843.22044   -620.26395   -201.54713   -121.85671   -57.953429   -31.985612      46.7237      46.7237      46.7237           90           90           90     102002.7   -555.01051 
  530000       529497   -6718.7808    708.58399   -7427.3648    4402.8501   -11830.215    129.19307   -618.38416    -939.3514   -702.87337    80.000315   -79.496039    124.92194      46.7237      46.7237      46.7237           90           90           90     102002.7   -753.53631 
  531000       530497   -6721.2956      697.961   -7419.2566    4407.7313   -11826.988    127.25622   -883.55778   -699.87171   -1070.2586    257.60797    96.165688   -12.897213      46.7237      46.7237      46.7237           90           90           90     102002.7   -884.56271 
  532000       531497   -6692.2775    706.34631   -7398.6238    4427.2106   -11825.834    128.78508     -992.625   -847.76033   -940.03512   -246.25158    -6.718646   -144.69921      46.7237      46.7237      46.7237           90           90           90     102002.7   -926.80682 
  533000       532497   -6713.6671    694.23728   -7407.9043    4415.9663   -11823.871    126.57729   -776.70896   -1059.1437    -822.9309   -22.634119   -318.28149      31.2372      46.7237      46.7237      46.7237           90           90           90     102002.7    -886.2612 
  534000       533497   -6717.9881     723.4802   -7441.4683     4378.459   -11819.927    131.90903   -268.70416   -581.33877   -879.40538    353.20544   -201.29869   -8.8022479      46.7237      46.7237      46.7237           90           90           90     102002.7   -576.48277 
  535000       534497   -6684.2548    728.59684   -7412.8516    4419.8105   -11832.662    132.84192   -553.38267   -1296.4643   -803.82715   -7.2928745   -39.188311    49.687908      46.7237      46.7237      46.7237           90           90           90     102002.7   -884.55804 
  536000       535497   -6714.3635    700.17798   -7414.5415    4400.1218   -11814.663    127.66044    -775.3797   -760.30562   -1278.7835    65.956225   -18.996085    36.157738      46.7237      46.7237      46.7237           90           90           90     102002.7   -938.15627 
  537000       536497   -6714.3329    710.89472   -7425.2277    4408.4674   -11833.695    129.61437   -674.14443   -181.06632   -467.09798    83.464144   -150.92539    5.0755773      46.7237      46.7237      46.7237           90           90           90     102002.7   -440.76958 
  538000       537497    -6693.261    732.34929   -7425.6103    4395.6243   -11821.235    133.52609   -610.28458   -837.55215   -578.51718    288.04319    210.84741    209.81388      46.7237      46.7237      46.7237           90           90           90     102002.7    -675.4513 
  539000       538497   -6722.1337    706.20162   -7428.3354    4405.2773   -11833.613     128.7587    -747.5167   -1089.4299   -789.82424   -86.418875    219.69619   -14.984414      46.7237      46.7237      46.7237           90           90           90     102002.7   -875.59027 
  540000       539497   -6707.2385    713.17413   -7420.4126    4394.9788   -11815.391    130.02997   -811.53471   -416.65322   -946.61335    244.08982   -71.961051   -146.00738      46.7237      46.7237      46.7237           90           90           90     102002.7   -724.93376 
  541000       540497   -6702.1741    733.54725   -7435.7213    4398.4949   -11834.216    133.74451   -814.62177   -1133.5496   -620.67387    141.08933   -84.171196   -27.777807      46.7237      46.7237      46.7237           90           90           90     102002.7   -856.28174 
  542000       541497   -6707.9236    708.15882   -7416.0824    4401.7372    -11817.82    129.11555   -971.60617   -1285.7131   -1247.8514   -139.33069    78.189909   -128.10411      46.7237      46.7237      46.7237           90           90           90     102002.7   -1168.3902 
  543000       542497   -6652.7089    738.58454   -7391.2935    4424.6823   -11815.976    134.66294   -832.44551   -707.02513   -944.21519    61.356296   -2.9878898    230.43176      46.7237      46.7237      46.7237           90           90           90     102002.7   -827.89528 
  544000       543497   -6707.2423    707.93036   -7415.1726    4394.1859   -11809.359    129.07389   -1132.5142   -1597.0944   -851.37787    -158.1337   -23.393753    28.159979      46.7237      46.7237      46.7237           90           90           90     102002.7   -1193.6621 
  545000       544497   -6696.4655    708.78286   -7405.2484     4414.888   -11820.136    129.22933   -359.38601   -1243.5536   -1094.6103   -111.27532   -327.64712   -1.9362781      46.7237      46.7237      46.7237           90           90           90     102002.7   -899.18328 
  546000       545497    -6705.205    731.13281   -7436.3378    4401.4891   -11837.827     133.3043   -1022.7544   -771.74029   -1270.3683   -122.71272     152.0323   -223.29538      46.7237      46.7237      46.7237           90           90           90     102002.7    -1021.621 
  547000       546497   -6744.9821    681.18973   -7426.1718    4414.0254   -11840.197    124.19839   -990.69426   -758.31916   -910.59609    280.69792    82.719523    14.580068      46.7237      46.7237      46.7237           90           90           90     102002.7    -886.5365 
  548000       547497   -6726.2008    702.66145   -7428.8622    4408.3944   -11837.257    128.11324   -886.25119   -1054.6244   -1142.4706   -61.330002   -5.5969304    28.967429      46.7237      46.7237      46.7237           90           90           90     102002.7   -1027.7821 
  549000       548497   -6691.1533    727.19822   -7418.3516    4412.7676   -11831.119    132.58692   -328.72075    -610.0875   -853.80803    291.91704    201.64723   -2.0553605      46.7237      46.7237      46.7237           90           90           90     102002.7   -597.53876 
  550000       549497   -6720.6046     703.6465   -7424.2511    4403.2088    -11827.46    128.29284   -1270.1812    -90.82708   -612.87828    179.97981   -127.41635   -202.09388      46.7237      46.7237      46.7237           90           90           90     102002.7   -657.96217 
  551000       550497   -6687.9932    722.96343   -7410.9566     4403.178   -11814.135    131.81481   -1172.1478   -1069.8392   -698.13061    202.59475   -15.683403    164.67555      46.7237      46.7237      46.7237           90           90           90     102002.7   -980.03921 
  552000       551497   -6710.7268    717.94757   -7428.6743    4397.3745   -11826.049    130.90029   -837.59426   -997.85073   -900.39426    115.72697   -126.53972    33.195584      46.7237      46.7237      46.7237           90           90           90     102002.7   -911.94641 
  553000       552497   -6722.1924    697.36242   -7419.5549    4400.7079   -11820.263    127.14709   -1265.2164   -910.21848   -545.81686   -64.233496    147.77536    167.26194      46.7237      46.7237      46.7237           90           90           90     102002.7   -907.08391 
  554000       553497   -6678.2149    731.29097   -7409.5059    4430.6803   -11840.186    133.33313   -307.98414   -978.87803   -1223.6037    -309.2701   -50.916857   -114.90399      46.7237      46.7237      46.7237           90           90           90     102002.7   -836.82194 
  555000       554497   -6681.7871    743.73067   -7425.5177    4426.1896   -11851.707    135.60121   -565.62477   -1156.5497   -691.62995    231.39907    102.90168    209.60007      46.7237      46.7237      46.7237           90           90           90     102002.7   -804.60148 
[...]
  936000       935497   -6733.1741    693.96836   -7427.1425    4386.5596   -11813.702    126.52826   -698.62869   -834.04409   -661.94871    21.348108     87.24858   -64.692323      46.7237      46.7237      46.7237           90           90           90     102002.7   -731.54049 
  937000       936497   -6699.0491    704.68881   -7403.7379     4433.694   -11837.432    128.48288   -912.42678   -656.97617   -908.54406    174.88828   -13.503031   -275.83812      46.7237      46.7237      46.7237           90           90           90     102002.7   -825.98233 
  938000       937497   -6681.6304    711.27984   -7392.9103     4414.574   -11807.484    129.68459   -428.98123   -546.34984   -583.11408   -30.315912    3.3529415    115.55677      46.7237      46.7237      46.7237           90           90           90     102002.7   -519.48172 
  939000       938497   -6720.0548    709.57454   -7429.6294    4390.0814   -11819.711    129.37367   -426.33713    -786.6217   -818.69732   -72.810482   -123.24467   -36.100946      46.7237      46.7237      46.7237           90           90           90     102002.7   -677.21872 
  940000       939497   -6741.9441    712.01095    -7453.955    4387.8025   -11841.758    129.81789   -646.02801   -678.31257   -1058.8109   -119.47039   -87.502081     -164.061      46.7237      46.7237      46.7237           90           90           90     102002.7   -794.38382 
  941000       940497   -6685.8848    717.39479   -7403.2796    4423.5305    -11826.81     130.7995   -1256.2214    -988.0327   -109.49933   -12.155547   -234.69465    43.469341      46.7237      46.7237      46.7237           90           90           90     102002.7   -784.58447 
  942000       941497    -6691.626    718.06053   -7409.6865    4417.6016   -11827.288    130.92088   -761.07966   -721.89584   -800.32585     -119.732   -5.0425399   -216.99262      46.7237      46.7237      46.7237           90           90           90     102002.7   -761.10045 
  943000       942497    -6691.492    718.74924   -7410.2412    4409.2682   -11819.509    131.04645    -895.9631   -1150.2406   -783.98681    196.16992    -135.8635   -145.34726      46.7237      46.7237      46.7237           90           90           90     102002.7   -943.39683 
  944000       943497   -6734.6568    700.33513   -7434.9919    4380.0635   -11815.055    127.68909   -708.66281   -431.20363   -795.28549    27.262368   -43.214856   -91.502202      46.7237      46.7237      46.7237           90           90           90     102002.7   -645.05065 
  945000       944497   -6733.3044    708.25793   -7441.5623    4383.2666   -11824.829    129.13362   -554.71203   -603.24826   -609.49486    61.415883   -135.80718   -149.94409      46.7237      46.7237      46.7237           90           90           90     102002.7   -589.15172 
  946000       945497    -6683.548     734.5514   -7418.0994    4411.4237   -11829.523    133.92759   -426.14602   -805.44595   -535.02119   -66.509292   -6.2815923   -35.681878      46.7237      46.7237      46.7237           90           90           90     102002.7   -588.87105 
  947000       946497   -6715.5588    712.49067   -7428.0494    4396.0225   -11824.072    129.90536   -626.15978   -533.90488   -521.53462   -89.023977    1.8119647      24.9056      46.7237      46.7237      46.7237           90           90           90     102002.7   -560.53309 
  948000       947497   -6699.2836    716.36584   -7415.6494    4406.9836   -11822.633     130.6119   -591.12285   -583.84256   -545.68392    -70.55496   -179.17596   -340.34582      46.7237      46.7237      46.7237           90           90           90     102002.7   -573.54978 
  949000       948497   -6716.3583    704.61962    -7420.978    4395.5638   -11816.542    128.47026    -127.2017    -788.1888   -630.70167    165.65297   -226.43334    46.707074      46.7237      46.7237      46.7237           90           90           90     102002.7   -515.36406 
  950000       949497   -6725.8884    712.11993   -7438.0084    4390.2425   -11828.251    129.83776   -913.07688   -772.03257   -1170.3033    238.46553   -141.72818    90.278132      46.7237      46.7237      46.7237           90           90           90     102002.7   -951.80426 
  951000       950497    -6701.362    713.88275   -7415.2448    4388.9201   -11804.165    130.15917    -927.4166   -1189.9939   -869.52587    135.87192   -20.413772   -254.91276      46.7237      46.7237      46.7237           90           90           90     102002.7   -995.64547 
  952000       951497   -6724.1429    711.15413   -7435.2971    4393.6683   -11828.965    129.66167   -906.75824   -712.21027   -627.81308    47.971837   -199.69105    54.392164      46.7237      46.7237      46.7237           90           90           90     102002.7    -748.9272 
  953000       952497   -6683.4314    718.29348   -7401.7248     4418.234   -11819.959    130.96336   -1011.2243   -342.41114   -1598.6777   -111.06753    456.50735   -179.39416      46.7237      46.7237      46.7237           90           90           90     102002.7   -984.10438 
  954000       953497    -6695.183    716.65861   -7411.8416    4418.5508   -11830.392    130.66528   -829.03063   -1000.6235   -1287.0025   -12.680009    31.447203   -30.451748      46.7237      46.7237      46.7237           90           90           90     102002.7   -1038.8856 
  955000       954497   -6676.3564    733.08378   -7409.4402    4438.6682   -11848.108    133.66001   -695.17433   -1026.3817   -590.04148    109.80772    92.684787    83.379311      46.7237      46.7237      46.7237           90           90           90     102002.7    -770.5325 
  956000       955497   -6713.3945    701.65771   -7415.0522    4405.5482     -11820.6    127.93023    -1072.749   -723.15113   -1107.5581   -5.2946298    216.09848   -98.533791      46.7237      46.7237      46.7237           90           90           90     102002.7    -967.8194 
  957000       956497   -6738.4248    714.85879   -7453.2836     4379.819   -11833.103    130.33712   -689.74377   -538.54198   -855.69282    87.245321   -92.146867   -131.59529      46.7237      46.7237      46.7237           90           90           90     102002.7   -694.65952 
  958000       957497   -6710.5469    702.98615   -7413.5331    4416.6072    -11830.14    128.17244   -706.94552   -651.40088   -985.90545    100.42198    -70.70766    241.90774      46.7237      46.7237      46.7237           90           90           90     102002.7   -781.41729 
  959000       958497   -6660.5423    729.74694   -7390.2893    4432.5206    -11822.81    133.05162   -540.44804   -311.85095   -1103.3178    93.765158   -134.15292   -74.723486      46.7237      46.7237      46.7237           90           90           90     102002.7   -651.87225 
  960000       959497   -6705.7622    706.78324   -7412.5454    4403.6171   -11816.162    128.86474      -772.94   -428.49462   -575.90686    108.20873    82.919574     61.03995      46.7237      46.7237      46.7237           90           90           90     102002.7   -592.44716 
  961000       960497   -6737.4816    689.20146   -7426.6831    4371.4933   -11798.176    125.65914   -819.51896   -479.90766   -649.41965   -79.117381    149.74239    293.45322      46.7237      46.7237      46.7237           90           90           90     102002.7   -649.61542 
  962000       961497   -6698.4168    711.25259   -7409.6694    4405.1446   -11814.814    129.67962   -257.39149   -798.59042   -1064.1605   -159.26329    64.471012   -137.72246      46.7237      46.7237      46.7237           90           90           90     102002.7   -706.71413 
  963000       962497   -6673.1025    721.47777   -7394.5803    4433.2038   -11827.784    131.54394   -561.33414   -434.87054   -699.18087    73.132249    342.41874    129.20944      46.7237      46.7237      46.7237           90           90           90     102002.7   -565.12852 
  964000       963497   -6699.5458    721.66087   -7421.2067    4393.9719   -11815.179    131.57732   -1070.2348   -827.18952   -313.98681    12.942175   -10.155435     84.13663      46.7237      46.7237      46.7237           90           90           90     102002.7   -737.13703 
  965000       964497   -6742.0441    691.74847   -7433.7926    4405.1812   -11838.974    126.12352   -933.22262   -551.14552    -862.4798    38.762704   -6.1395194   -145.33789      46.7237      46.7237      46.7237           90           90           90     102002.7   -782.28265 
  966000       965497   -6712.5871     729.3018   -7441.8889    4384.6236   -11826.513    132.97046   -626.30354   -555.94448   -574.29715    -51.47419    184.90703    124.79432      46.7237      46.7237      46.7237           90           90           90     102002.7   -585.51506 
  967000       966497    -6703.609    728.32933   -7431.9384    4410.7593   -11842.698    132.79315   -203.76316   -476.78478   -690.42367   -1.8847021    202.32742   -52.098987      46.7237      46.7237      46.7237           90           90           90     102002.7   -456.99054 
  968000       967497   -6719.8928    703.95159   -7423.8443    4393.7337   -11817.578    128.34846   -1104.3826   -656.57347   -987.67061   -111.92924   -104.06447    4.4606178      46.7237      46.7237      46.7237           90           90           90     102002.7   -916.20889 
  969000       968497   -6675.2468    728.76798   -7404.0148    4434.9926   -11839.007    132.87313   -961.41015   -888.04285   -384.12177   -22.969525    51.037542     -33.5414      46.7237      46.7237      46.7237           90           90           90     102002.7   -744.52492 
  970000       969497   -6721.6746    713.63447   -7435.3091    4380.6255   -11815.935     130.1139   -959.14537    -776.9944   -644.91892   -209.52155   -227.72006   -70.562952      46.7237      46.7237      46.7237           90           90           90     102002.7   -793.68623 
  971000       970497   -6709.8345    715.39466   -7425.2291    4395.1573   -11820.386    130.43483   -379.45614   -1024.9128   -799.28698    143.88396    16.198412    135.09647      46.7237      46.7237      46.7237           90           90           90     102002.7   -734.55197 
  972000       971497   -6710.4898    717.96594   -7428.4557    4401.2259   -11829.682    130.90364    -1002.687   -1078.2987   -973.39072   -43.119582    302.87151    -251.0798      46.7237      46.7237      46.7237           90           90           90     102002.7   -1018.1255 
  973000       972497   -6705.5755    721.33288   -7426.9084    4391.5358   -11818.444    131.51752    -629.3276   -660.20537    -840.0246      29.8661    188.27836   -12.581166      46.7237      46.7237      46.7237           90           90           90     102002.7   -709.85252 
  974000       973497   -6731.5178    695.04789   -7426.5657     4410.815   -11837.381    126.72509   -859.78631   -1413.4183   -1237.0121    150.64016    164.96293   -231.26993      46.7237      46.7237      46.7237           90           90           90     102002.7   -1170.0722 
  975000       974497    -6721.746     707.8123   -7429.5583    4401.8779   -11831.436    129.05237   -1028.2586   -1268.2363   -442.88724   -56.049041     160.2099    80.962747      46.7237      46.7237      46.7237           90           90           90     102002.7   -913.12738 
  976000       975497   -6703.6466    716.91108   -7420.5577     4427.302    -11847.86    130.71131   -684.64975   -1000.9237   -1026.5281    244.71513    452.75752   -114.13704      46.7237      46.7237      46.7237           90           90           90     102002.7   -904.03384 
  977000       976497   -6725.4619    693.31855   -7418.7805    4402.1076   -11820.888    126.40979   -614.05103   -854.71107   -575.76094    453.08276    9.7559071    -130.5071      46.7237      46.7237      46.7237           90           90           90     102002.7   -681.50768 
  978000       977497   -6677.4415    719.78038   -7397.2219    4415.9012   -11813.123    131.23446   -519.36519   -1315.8332   -292.27645   -58.408025   -139.42515    105.21607      46.7237      46.7237      46.7237           90           90           90     102002.7   -709.15827 
  979000       978497    -6679.106    728.33939   -7407.4454    4399.5785   -11807.024    132.79499   -212.60036   -504.96194   -662.94263   -157.89061    211.19613   -157.52867      46.7237      46.7237      46.7237           90           90           90     102002.7   -460.16831 
  980000       979497   -6716.0922    716.00087   -7432.0931    4393.4193   -11825.512    130.54535   -500.03632   -949.51423   -556.93458    262.82168    62.260441   -51.581694      46.7237      46.7237      46.7237           90           90           90     102002.7   -668.82838 
  981000       980497   -6679.5276    711.38018   -7390.9078    4422.3292   -11813.237    129.70288   -773.78384    -716.2528    -917.0364   -150.75051   -15.255994    115.13237      46.7237      46.7237      46.7237           90           90           90     102002.7   -802.35768 
  982000       981497   -6707.8044    713.30498   -7421.1094    4382.0767   -11803.186    130.05383   -645.74228    -1543.753   -638.89627    -172.9747   -51.794166   -66.109463      46.7237      46.7237      46.7237           90           90           90     102002.7   -942.79717 
  983000       982497   -6700.7328    725.02611   -7425.7589    4410.9974   -11836.756    132.19089   -365.75383   -804.35795   -1045.3625   -23.511046    194.53497   -145.88902      46.7237      46.7237      46.7237           90           90           90     102002.7   -738.49142 
  984000       983497     -6674.56    725.75309   -7400.3131    4428.5083   -11828.821    132.32344   -475.70985   -1191.7777   -536.39677    60.386766   -139.70801   -113.42809      46.7237      46.7237      46.7237           90           90           90     102002.7    -734.6281 
  985000       984497   -6696.1408    709.30562   -7405.4464    4421.0243   -11826.471    129.32464   -78.809034   -674.70367   -55.640293   -60.569213   -204.43153    113.82822      46.7237      46.7237      46.7237           90           90           90     102002.7   -269.71767 
  986000       985497   -6716.2654    707.79625   -7424.0616    4379.1792   -11803.241    129.04944   -624.33483   -278.59354    -712.9156    51.756987   -90.827652    44.195495      46.7237      46.7237      46.7237           90           90           90     102002.7   -538.61466 
  987000       986497   -6739.5628    691.01421    -7430.577    4357.2611   -11787.838    125.98964     -304.489   -45.169786   -663.18715    137.16575    -86.14165    11.508509      46.7237      46.7237      46.7237           90           90           90     102002.7   -337.61531 
  988000       987497   -6694.7218    717.86872   -7412.5905    4390.1319   -11802.722    130.88591   -214.61359   -1322.5576   -557.91762    86.516844   -144.27659     79.45307      46.7237      46.7237      46.7237           90           90           90     102002.7   -698.36294 
  989000       988497   -6669.2768    745.91963   -7415.1964    4421.2477   -11836.444    136.00031   -767.69166   -666.88633   -653.10919    2.3741195   -212.68498   -106.92498      46.7237      46.7237      46.7237           90           90           90     102002.7   -695.89572 
  990000       989497   -6709.5126    710.82328   -7420.3359    4375.6132   -11795.949    129.60135   -174.70141   -1096.5653   -349.34469    13.388539    84.085452    87.327377      46.7237      46.7237      46.7237           90           90           90     102002.7   -540.20382 
  991000       990497    -6669.013    734.34547   -7403.3585    4424.9806   -11828.339    133.89005   -1156.4838   -825.56847   -199.51087   -101.46083   -227.32167    -309.5266      46.7237      46.7237      46.7237           90           90           90     102002.7    -727.1877 
  992000       991497     -6699.74    708.67028   -7408.4103    4427.4438   -11835.854     129.2088   -1059.8391   -517.92879   -607.30683    13.341707   -62.679903     61.44064      46.7237      46.7237      46.7237           90           90           90     102002.7   -728.35823 
  993000       992497   -6720.4016    704.15925   -7424.5608    4403.5762   -11828.137    128.38632   -238.82506    -893.8134   -687.80831    -190.8868    26.403943   -232.86054      46.7237      46.7237      46.7237           90           90           90     102002.7   -606.81559 
  994000       993497   -6695.0525    717.46551    -7412.518    4418.2993   -11830.817     130.8124   -530.43442   -980.44148   -683.55161   -115.98706    52.329039    175.68427      46.7237      46.7237      46.7237           90           90           90     102002.7   -731.47584 
  995000       994497   -6679.6126    716.74902   -7396.3617    4425.9943   -11822.356    130.68176   -509.14503   -650.23623   -823.73072   -63.952724   -290.07854   -21.914957      46.7237      46.7237      46.7237           90           90           90     102002.7   -661.03733 
  996000       995497   -6673.7462    718.14815   -7391.8943     4418.584   -11810.478    130.93686   -925.04739   -439.74941   -665.37562   -27.073332    7.0669399    346.65544      46.7237      46.7237      46.7237           90           90           90     102002.7   -676.72414 
  997000       996497   -6716.4887    683.08424   -7399.5729    4421.8388   -11821.412    124.54381   -556.96638   -975.69883   -855.42395   -1.1830102    153.84192    172.01611      46.7237      46.7237      46.7237           90           90           90     102002.7   -796.02972 
  998000       997497   -6698.0231    728.37072   -7426.3939    4385.9597   -11812.354     132.8007   -795.43105   -616.75503   -1065.4284    132.33305   -54.435438    98.841883      46.7237      46.7237      46.7237           90           90           90     102002.7    -825.8715 
  999000       998497   -6749.1183     674.1458   -7423.2641     4417.333   -11840.597     122.9141   -946.25379   -642.24888   -900.22016   -59.811205    3.9349792    54.118798      46.7237      46.7237      46.7237           90           90           90     102002.7   -829.57428 
 1000000       999497   -6710.2582    715.27681   -7425.5351    4394.9181   -11820.453    130.41334    -795.5781   -781.73167    -824.7313    123.76931   -57.183186   -10.870442      46.7237      46.7237      46.7237           90           90           90     102002.7   -800.68036 
 1000503      1000000   -6717.3627    723.71369   -7441.0764    4387.8775   -11828.954     131.9516   -499.43707   -601.41319   -571.26396     17.50804    194.13633     25.17731      46.7237      46.7237      46.7237           90           90           90     102002.7   -557.37141 
Loop time of 1388.7 on 16 procs for 500000 steps with 1841 atoms

Performance: 31.108 ns/day, 0.771 hours/ns, 360.050 timesteps/s
99.8% CPU use with 16 MPI tasks x no OpenMP threads

MPI task timing breakdown:
Section |  min time  |  avg time  |  max time  |%varavg| %total
---------------------------------------------------------------
Pair    | 679.96     | 812.75     | 933.11     | 219.4 | 58.53
Bond    | 135.22     | 183.36     | 232.24     | 321.1 | 13.20
Neigh   | 6.0646     | 6.101      | 6.1318     |   0.9 |  0.44
Comm    | 190.88     | 357.77     | 537.89     | 474.6 | 25.76
Output  | 0.10148    | 0.10651    | 0.10702    |   0.4 |  0.01
Modify  | 21.612     | 23.233     | 24.359     |  18.9 |  1.67
Other   |            | 5.371      |            |       |  0.39

Nlocal:    115.062 ave 162 max 43 min
Histogram: 1 0 0 2 2 3 3 2 1 2
Nghost:    2329.06 ave 2399 max 2280 min
Histogram: 2 1 2 2 4 1 3 0 0 1
Neighs:    11451.1 ave 16198 max 4323 min
Histogram: 1 0 0 1 4 0 6 1 2 1

Total # of neighbors = 183217
Ave neighs/atom = 99.5204
Ave special neighs/atom = 6.25747
Neighbor list builds = 4510
Dangerous builds = 0
Total wall time: 0:44:17
