LAMMPS (30 Mar 2018)
Reading data file ...
  orthogonal box = (0 0 0) to (46.7237 46.7237 46.7237)
  2 by 3 by 4 MPI processor grid
  reading atoms ...
  1751 atoms
  scanning bonds ...
  5 = max bonds/atom
  scanning angles ...
  10 = max angles/atom
  scanning dihedrals ...
  32 = max dihedrals/atom
  scanning impropers ...
  3 = max impropers/atom
  reading bonds ...
  2064 bonds
  reading angles ...
  3696 angles
  reading dihedrals ...
  6240 dihedrals
  reading impropers ...
  1008 impropers
Finding 1-2 1-3 1-4 neighbors ...
  special bond factors lj:   0          0          0         
  special bond factors coul: 0          0          0         
  5 = max # of 1-2 neighbors
  8 = max # of 1-3 neighbors
  20 = max # of 1-4 neighbors
  19 = max # of special neighbors
Finding 1-2 1-3 1-4 neighbors ...
  special bond factors lj:   0          0          1         
  special bond factors coul: 1          1          1         
  5 = max # of 1-2 neighbors
  8 = max # of 1-3 neighbors
  19 = max # of special neighbors
WARNING: Using 'neigh_modify every 1 delay 0 check yes' setting during minimization (../min.cpp:168)
Neighbor list info ...
  update every 1 steps, delay 0 steps, check yes
  max neighbors/atom: 2000, page size: 100000
  master list distance cutoff = 16
  ghost atom cutoff = 16
  binsize = 8, bins = 6 6 6
  3 neighbor lists, perpetual/occasional/extra = 3 0 0
  (1) pair buck6d/coul/gauss/dsf, perpetual, skip from (3)
      attributes: half, newton on
      pair build: skip
      stencil: none
      bin: none
  (2) pair lj/cut, perpetual, skip from (3)
      attributes: half, newton on
      pair build: skip
      stencil: none
      bin: none
  (3) neighbor class addition, perpetual
      attributes: half, newton on
      pair build: half/bin/newton
      stencil: half/bin/3d/newton
      bin: standard
Setting up cg style minimization ...
  Unit style    : real
  Current step  : 0
WARNING: Inconsistent image flags (../domain.cpp:786)
Per MPI rank memory allocation (min/avg/max) = 22.87 | 23.28 | 24.42 Mbytes
Step Temp E_pair E_mol TotEng Press 
       0            0   -11578.691    6482.8914   -5095.7993    6259.0331 
     507            0   -11606.606    3735.0376   -7871.5679   -514.43839 
Loop time of 1.20816 on 24 procs for 507 steps with 1751 atoms

99.8% CPU use with 24 MPI tasks x no OpenMP threads

Minimization stats:
  Stopping criterion = max force evaluations
  Energy initial, next-to-last, final = 
        -5095.79926228     -7871.55553608     -7871.56787925
  Force two-norm initial, final = 2576.9 5.12354
  Force max component initial, final = 152.191 0.8777
  Final line search alpha, max atom move = 0.00673183 0.00590853
  Iterations, force evaluations = 507 1000

MPI task timing breakdown:
Section |  min time  |  avg time  |  max time  |%varavg| %total
---------------------------------------------------------------
Pair    | 0.48722    | 0.60825    | 0.73041    |   9.7 | 50.34
Bond    | 0.12456    | 0.15746    | 0.1978     |   4.8 | 13.03
Neigh   | 0.0066744  | 0.0067579  | 0.0068991  |   0.1 |  0.56
Comm    | 0.27718    | 0.41444    | 0.56855    |  11.4 | 34.30
Output  | 0          | 0          | 0          |   0.0 |  0.00
Modify  | 0          | 0          | 0          |   0.0 |  0.00
Other   |            | 0.02125    |            |       |  1.76

Nlocal:    72.9583 ave 87 max 61 min
Histogram: 1 3 5 3 2 2 4 1 0 3
Nghost:    1991.62 ave 2164 max 1898 min
Histogram: 16 0 0 0 0 0 0 0 0 8
Neighs:    7630.29 ave 10508 max 5000 min
Histogram: 4 2 3 1 2 2 4 0 2 4

Total # of neighbors = 183127
Ave neighs/atom = 104.584
Ave special neighs/atom = 6.5791
Neighbor list builds = 12
Dangerous builds = 0
Neighbor list info ...
  update every 1 steps, delay 10 steps, check yes
  max neighbors/atom: 2000, page size: 100000
  master list distance cutoff = 16
  ghost atom cutoff = 16
  binsize = 8, bins = 6 6 6
  3 neighbor lists, perpetual/occasional/extra = 3 0 0
  (1) pair buck6d/coul/gauss/dsf, perpetual, skip from (3)
      attributes: half, newton on
      pair build: skip
      stencil: none
      bin: none
  (2) pair lj/cut, perpetual, skip from (3)
      attributes: half, newton on
      pair build: skip
      stencil: none
      bin: none
  (3) neighbor class addition, perpetual
      attributes: half, newton on
      pair build: half/bin/newton
      stencil: half/bin/3d/newton
      bin: standard
Setting up Verlet run ...
  Unit style    : real
  Current step  : 507
  Time step     : 1
WARNING: Inconsistent image flags (../domain.cpp:786)
Per MPI rank memory allocation (min/avg/max) = 22.52 | 22.72 | 23.31 Mbytes
Step Temp PotEng TotEng Press Volume Lx Ly Lz 
     507          110   -7871.5679   -7297.7619   -257.28858     102002.7      46.7237      46.7237      46.7237 
    1000    92.159393   -7339.2008   -6858.4589   -670.13679     102002.7      46.7237      46.7237      46.7237 
    2000    105.83343   -7241.7794    -6689.708   -638.65374     102002.7      46.7237      46.7237      46.7237 
    3000    112.15096   -7304.8383    -6719.812   -700.26294     102002.7      46.7237      46.7237      46.7237 
    4000     107.5585   -7275.5596   -6714.4896   -510.06933     102002.7      46.7237      46.7237      46.7237 
    5000    109.83622   -7278.2065   -6705.2549   -685.44659     102002.7      46.7237      46.7237      46.7237 
    6000    109.66487    -7296.543   -6724.4852   -573.41089     102002.7      46.7237      46.7237      46.7237 
    7000    111.16894   -7287.2451   -6707.3416   -529.78788     102002.7      46.7237      46.7237      46.7237 
    8000    111.76469   -7309.2055   -6726.1942   -669.10073     102002.7      46.7237      46.7237      46.7237 
    9000    111.10202   -7285.4379   -6705.8833   -668.84055     102002.7      46.7237      46.7237      46.7237 
   10000     110.9568   -7284.7735   -6705.9765   -572.48422     102002.7      46.7237      46.7237      46.7237 
   11000    105.78077   -7294.0894   -6742.2928   -668.20729     102002.7      46.7237      46.7237      46.7237 
   12000    110.70338   -7286.4056   -6708.9305   -499.83974     102002.7      46.7237      46.7237      46.7237 
   13000     107.7174   -7290.8551   -6728.9561   -531.91859     102002.7      46.7237      46.7237      46.7237 
   14000    110.12201   -7292.7457   -6718.3033   -626.24928     102002.7      46.7237      46.7237      46.7237 
   15000     107.1409   -7269.4923   -6710.6006   -578.09089     102002.7      46.7237      46.7237      46.7237 
   16000    110.50474   -7309.9991   -6733.5603   -924.94296     102002.7      46.7237      46.7237      46.7237 
   17000    107.63553   -7276.2294   -6714.7575   -847.27031     102002.7      46.7237      46.7237      46.7237 
   18000    111.17466   -7272.1213   -6692.1878    -819.2219     102002.7      46.7237      46.7237      46.7237 
   19000    110.05434    -7291.547   -6717.4576    -1009.842     102002.7      46.7237      46.7237      46.7237 
   20000    108.66575   -7278.7431   -6711.8972   -719.54027     102002.7      46.7237      46.7237      46.7237 
   21000    113.28361   -7313.3201   -6722.3854   -610.11453     102002.7      46.7237      46.7237      46.7237 
   22000    112.78149   -7286.4536   -6698.1382   -564.93174     102002.7      46.7237      46.7237      46.7237 
   23000    110.93892   -7297.0992   -6718.3954   -577.13256     102002.7      46.7237      46.7237      46.7237 
   24000    113.18511   -7303.9978   -6713.5769   -463.07332     102002.7      46.7237      46.7237      46.7237 
   25000    108.90035   -7259.1254   -6691.0557   -678.07243     102002.7      46.7237      46.7237      46.7237 
   26000    114.27849   -7314.6419   -6718.5175   -722.58853     102002.7      46.7237      46.7237      46.7237 
   27000    106.80938   -7277.6835   -6720.5212   -646.86325     102002.7      46.7237      46.7237      46.7237 
   28000    111.84513   -7273.4634   -6690.0324   -495.40019     102002.7      46.7237      46.7237      46.7237 
   29000    112.87553   -7304.8239    -6716.018   -546.46789     102002.7      46.7237      46.7237      46.7237 
   30000    107.83636   -7300.9283   -6738.4088   -880.08192     102002.7      46.7237      46.7237      46.7237 
   31000    111.19282   -7290.0732    -6710.045   -551.98706     102002.7      46.7237      46.7237      46.7237 
   32000    109.87753   -7301.8138   -6728.6467   -883.18285     102002.7      46.7237      46.7237      46.7237 
   33000    111.89994     -7281.19   -6697.4732   -704.31911     102002.7      46.7237      46.7237      46.7237 
   34000    112.12764   -7290.5287   -6705.6241   -893.55897     102002.7      46.7237      46.7237      46.7237 
   35000    108.26774   -7287.2061   -6722.4364   -744.21438     102002.7      46.7237      46.7237      46.7237 
   36000    111.22234   -7287.1194   -6706.9372   -690.54095     102002.7      46.7237      46.7237      46.7237 
   37000    108.14319   -7295.2169   -6731.0969   -922.03611     102002.7      46.7237      46.7237      46.7237 
   38000    107.40946   -7263.8654   -6703.5728   -957.72773     102002.7      46.7237      46.7237      46.7237 
   39000    107.90436   -7285.2941   -6722.4199   -604.14506     102002.7      46.7237      46.7237      46.7237 
   40000    110.61594   -7263.8101   -6686.7912   -1014.3641     102002.7      46.7237      46.7237      46.7237 
   41000    110.28075   -7284.6131   -6709.3427   -647.37982     102002.7      46.7237      46.7237      46.7237 
   42000    110.73295   -7287.1509   -6709.5216   -619.48899     102002.7      46.7237      46.7237      46.7237 
   43000    109.79779   -7273.6255   -6700.8743   -711.81869     102002.7      46.7237      46.7237      46.7237 
   44000    110.34531   -7295.0102    -6719.403    -740.7634     102002.7      46.7237      46.7237      46.7237 
   45000    112.65787   -7262.8311   -6675.1606   -790.05648     102002.7      46.7237      46.7237      46.7237 
   46000    111.42259   -7280.3313   -6699.1045   -640.39666     102002.7      46.7237      46.7237      46.7237 
   47000    114.54168   -7291.3571   -6693.8599   -623.16294     102002.7      46.7237      46.7237      46.7237 
   48000    110.50801   -7288.7917   -6712.3358   -542.33823     102002.7      46.7237      46.7237      46.7237 
   49000    111.00493   -7281.6583   -6702.6102   -675.32327     102002.7      46.7237      46.7237      46.7237 
   50000    104.61895   -7281.8666   -6736.1305   -736.25647     102002.7      46.7237      46.7237      46.7237 
   51000    109.41712   -7285.0332   -6714.2678   -771.81623     102002.7      46.7237      46.7237      46.7237 
   52000    113.31724   -7288.6297   -6697.5196   -522.38052     102002.7      46.7237      46.7237      46.7237 
   53000    110.42504   -7300.1855   -6724.1624   -873.61106     102002.7      46.7237      46.7237      46.7237 
   54000    111.69211    -7285.911   -6703.2783   -643.53689     102002.7      46.7237      46.7237      46.7237 
   55000    107.73341   -7281.1856   -6719.2031   -774.08282     102002.7      46.7237      46.7237      46.7237 
   56000    110.72198     -7280.01   -6702.4379   -683.46808     102002.7      46.7237      46.7237      46.7237 
   57000    110.99623   -7279.9232   -6700.9205   -531.87934     102002.7      46.7237      46.7237      46.7237 
   58000    116.06217   -7300.0151   -6694.5863   -746.61786     102002.7      46.7237      46.7237      46.7237 
   59000    109.22516   -7280.6419   -6710.8778    -637.1688     102002.7      46.7237      46.7237      46.7237 
   60000    111.56452   -7264.5612   -6682.5941   -754.64338     102002.7      46.7237      46.7237      46.7237 
   61000    110.63797   -7281.4438   -6704.3099   -823.26462     102002.7      46.7237      46.7237      46.7237 
   62000    108.83317   -7283.3926   -6715.6733   -729.36624     102002.7      46.7237      46.7237      46.7237 
   63000    110.57942   -7269.0624   -6692.2339   -771.96218     102002.7      46.7237      46.7237      46.7237 
   64000    110.75072   -7265.6632   -6687.9412   -827.93475     102002.7      46.7237      46.7237      46.7237 
   65000    109.72248   -7300.5808   -6728.2225   -852.72698     102002.7      46.7237      46.7237      46.7237 
   66000    107.88862   -7286.9143   -6724.1222   -929.07608     102002.7      46.7237      46.7237      46.7237 
   67000     111.8415   -7278.1263   -6694.7143   -913.33939     102002.7      46.7237      46.7237      46.7237 
   68000    107.29305   -7276.3154   -6716.6301   -705.69232     102002.7      46.7237      46.7237      46.7237 
   69000    109.61891   -7294.1927   -6722.3747   -835.85657     102002.7      46.7237      46.7237      46.7237 
   70000     112.0236   -7269.7301   -6685.3683   -648.49337     102002.7      46.7237      46.7237      46.7237 
   71000    111.63692    -7295.215   -6712.8702   -644.70601     102002.7      46.7237      46.7237      46.7237 
   72000    112.48422     -7281.89   -6695.1253   -783.70983     102002.7      46.7237      46.7237      46.7237 
   73000    109.53474   -7301.1123   -6729.7333   -736.44601     102002.7      46.7237      46.7237      46.7237 
   74000    106.99064   -7268.2894   -6710.1816   -1065.4258     102002.7      46.7237      46.7237      46.7237 
   75000    110.76557   -7282.4252   -6704.6257   -763.40503     102002.7      46.7237      46.7237      46.7237 
   76000    111.88089    -7291.549   -6707.9315   -961.40143     102002.7      46.7237      46.7237      46.7237 
   77000    109.58182    -7284.601   -6712.9765   -917.70611     102002.7      46.7237      46.7237      46.7237 
   78000    110.19616   -7299.4103   -6724.5812   -721.56326     102002.7      46.7237      46.7237      46.7237 
   79000    111.61278   -7286.9461   -6704.7272   -842.91894     102002.7      46.7237      46.7237      46.7237 
   80000    107.82098   -7294.2937   -6731.8544   -834.39631     102002.7      46.7237      46.7237      46.7237 
   81000     110.8532    -7296.854   -6718.5975   -573.96209     102002.7      46.7237      46.7237      46.7237 
   82000    108.97586   -7275.5033   -6707.0397   -919.59763     102002.7      46.7237      46.7237      46.7237 
   83000    112.57566   -7301.6844   -6714.4428   -704.10068     102002.7      46.7237      46.7237      46.7237 
   84000    109.69397   -7261.4468   -6689.2372   -725.11862     102002.7      46.7237      46.7237      46.7237 
   85000    111.99125   -7287.2407   -6703.0475   -834.72163     102002.7      46.7237      46.7237      46.7237 
   86000    108.51761   -7268.7104   -6702.6373    -784.3763     102002.7      46.7237      46.7237      46.7237 
   87000     109.7784   -7299.8295   -6727.1795   -868.00223     102002.7      46.7237      46.7237      46.7237 
   88000    110.00038   -7310.0924   -6736.2845   -484.95791     102002.7      46.7237      46.7237      46.7237 
   89000    110.06115   -7272.4874   -6698.3625   -674.12985     102002.7      46.7237      46.7237      46.7237 
   90000    105.91362   -7304.5019   -6752.0122   -806.81899     102002.7      46.7237      46.7237      46.7237 
   91000    109.79207   -7277.4609   -6704.7396   -606.41849     102002.7      46.7237      46.7237      46.7237 
   92000    111.71525     -7280.42   -6697.6665   -712.60045     102002.7      46.7237      46.7237      46.7237 
   93000    111.32061   -7280.4575   -6699.7627   -436.58748     102002.7      46.7237      46.7237      46.7237 
   94000    108.02393   -7285.3788   -6721.8809   -601.63881     102002.7      46.7237      46.7237      46.7237 
   95000    109.17791   -7278.7208   -6709.2032    -305.7689     102002.7      46.7237      46.7237      46.7237 
   96000    112.74577   -7293.3046   -6705.1756   -845.52991     102002.7      46.7237      46.7237      46.7237 
   97000    108.18219   -7292.2279   -6727.9044   -528.98157     102002.7      46.7237      46.7237      46.7237 
   98000    108.45438   -7272.7828   -6707.0395   -581.20489     102002.7      46.7237      46.7237      46.7237 
   99000    113.94405   -7298.0885   -6703.7088   -727.71657     102002.7      46.7237      46.7237      46.7237 
  100000    107.74984   -7297.7043   -6735.6362   -632.33623     102002.7      46.7237      46.7237      46.7237 
  101000    108.75622    -7276.655   -6709.3371   -791.56771     102002.7      46.7237      46.7237      46.7237 
  102000    111.20107    -7275.071   -6694.9998   -562.88197     102002.7      46.7237      46.7237      46.7237 
  103000    110.80058   -7301.4654   -6723.4833   -620.17885     102002.7      46.7237      46.7237      46.7237 
  104000    109.78046   -7280.5191   -6707.8584   -699.64683     102002.7      46.7237      46.7237      46.7237 
  105000    112.58141   -7293.6966   -6706.4249   -777.36455     102002.7      46.7237      46.7237      46.7237 
  106000    105.60944   -7266.6167   -6715.7138   -848.73559     102002.7      46.7237      46.7237      46.7237 
  107000    107.06733   -7286.0447   -6727.5368   -723.51415     102002.7      46.7237      46.7237      46.7237 
  108000     109.1689   -7297.0145    -6727.544    -1043.475     102002.7      46.7237      46.7237      46.7237 
  109000    112.81089   -7291.0194   -6702.5507   -894.84711     102002.7      46.7237      46.7237      46.7237 
  110000     108.4231   -7260.0201   -6694.4399   -627.42244     102002.7      46.7237      46.7237      46.7237 
  111000    111.02445   -7295.1285   -6715.9786   -668.82909     102002.7      46.7237      46.7237      46.7237 
  112000    114.16376   -7271.8385   -6676.3126    -451.2705     102002.7      46.7237      46.7237      46.7237 
  113000    106.29285   -7283.3327   -6728.8648   -784.84301     102002.7      46.7237      46.7237      46.7237 
  114000    110.76076   -7302.2986   -6724.5242   -735.21508     102002.7      46.7237      46.7237      46.7237 
  115000    109.75804   -7283.6863   -6711.1425   -995.92483     102002.7      46.7237      46.7237      46.7237 
  116000    110.83076   -7316.8795     -6738.74   -889.70828     102002.7      46.7237      46.7237      46.7237 
  117000    109.06287   -7271.8021   -6702.8846   -850.60483     102002.7      46.7237      46.7237      46.7237 
  118000    113.11944   -7298.0572    -6707.979   -906.78895     102002.7      46.7237      46.7237      46.7237 
  119000    106.28177    -7285.129   -6730.7189   -795.09445     102002.7      46.7237      46.7237      46.7237 
  120000    110.87162   -7279.8729   -6701.5202   -828.38606     102002.7      46.7237      46.7237      46.7237 
  121000    106.55167   -7281.7738   -6725.9558   -822.37864     102002.7      46.7237      46.7237      46.7237 
  122000    110.54991   -7292.8887   -6716.2141   -931.21876     102002.7      46.7237      46.7237      46.7237 
  123000    109.19366   -7277.2698   -6707.6701   -998.86647     102002.7      46.7237      46.7237      46.7237 
  124000    108.10207   -7287.9634   -6724.0579   -333.84203     102002.7      46.7237      46.7237      46.7237 
  125000    113.42664    -7295.907   -6704.2263   -966.49049     102002.7      46.7237      46.7237      46.7237 
  126000    112.31106   -7291.6508   -6705.7894    -748.8644     102002.7      46.7237      46.7237      46.7237 
  127000    109.47566   -7290.8836   -6719.8128   -716.22742     102002.7      46.7237      46.7237      46.7237 
  128000    111.07654   -7284.5591   -6705.1375   -946.71475     102002.7      46.7237      46.7237      46.7237 
  129000    107.69606   -7292.6475   -6730.8599    -913.5621     102002.7      46.7237      46.7237      46.7237 
  130000    110.88766   -7276.0298   -6697.5935   -938.46157     102002.7      46.7237      46.7237      46.7237 
  131000    110.65273   -7293.5665   -6716.3556   -662.24966     102002.7      46.7237      46.7237      46.7237 
  132000    111.02373   -7274.9854   -6695.8393   -794.21698     102002.7      46.7237      46.7237      46.7237 
  133000    110.04024   -7290.8745   -6716.8586   -537.34203     102002.7      46.7237      46.7237      46.7237 
  134000    106.38609   -7283.5476   -6728.5933   -837.45451     102002.7      46.7237      46.7237      46.7237 
  135000    111.02589   -7288.7006   -6709.5432   -662.63368     102002.7      46.7237      46.7237      46.7237 
  136000    112.05201   -7271.9714   -6687.4613   -900.54839     102002.7      46.7237      46.7237      46.7237 
  137000    109.57185   -7281.8135    -6710.241   -968.60788     102002.7      46.7237      46.7237      46.7237 
  138000    108.15478   -7282.2508   -6718.0703   -1073.7787     102002.7      46.7237      46.7237      46.7237 
  139000    109.35805   -7276.9889   -6706.5317    -797.0455     102002.7      46.7237      46.7237      46.7237 
  140000    107.66301   -7288.4392    -6726.824   -865.11298     102002.7      46.7237      46.7237      46.7237 
  141000    111.03492   -7293.3847   -6714.1802   -635.67743     102002.7      46.7237      46.7237      46.7237 
  142000    108.73352   -7274.4779   -6707.2784   -825.79604     102002.7      46.7237      46.7237      46.7237 
  143000     104.6533   -7294.6039   -6748.6886   -804.75778     102002.7      46.7237      46.7237      46.7237 
  144000     109.9315   -7286.4148   -6712.9662   -658.65025     102002.7      46.7237      46.7237      46.7237 
  145000    110.83576   -7290.1268   -6711.9612   -558.60773     102002.7      46.7237      46.7237      46.7237 
  146000    111.96929   -7286.7216   -6702.6431   -687.52721     102002.7      46.7237      46.7237      46.7237 
  147000    110.75118   -7297.6766   -6719.9522   -478.93111     102002.7      46.7237      46.7237      46.7237 
  148000    110.25218   -7290.3706   -6715.2492   -795.14891     102002.7      46.7237      46.7237      46.7237 
  149000    114.02404   -7296.2037   -6701.4067   -748.11148     102002.7      46.7237      46.7237      46.7237 
  150000    110.08292   -7288.7258   -6714.4874   -691.63613     102002.7      46.7237      46.7237      46.7237 
  151000    110.83171   -7283.1465    -6705.002   -711.74037     102002.7      46.7237      46.7237      46.7237 
  152000    112.30162   -7278.8063   -6692.9942   -577.87994     102002.7      46.7237      46.7237      46.7237 
  153000    112.05614   -7300.1551   -6715.6235   -602.64095     102002.7      46.7237      46.7237      46.7237 
  154000      111.136   -7240.4984   -6660.7667   -523.94121     102002.7      46.7237      46.7237      46.7237 
  155000    110.72742   -7297.5591   -6719.9586   -695.13222     102002.7      46.7237      46.7237      46.7237 
  156000    108.17887   -7281.9587   -6717.6526   -715.98409     102002.7      46.7237      46.7237      46.7237 
  157000    109.61488   -7286.0416   -6714.2446   -588.61886     102002.7      46.7237      46.7237      46.7237 
  158000    109.44222    -7291.635   -6720.7387    -567.3083     102002.7      46.7237      46.7237      46.7237 
  159000    111.38667   -7279.4313   -6698.3919   -603.09828     102002.7      46.7237      46.7237      46.7237 
  160000    108.49128   -7291.5334   -6725.5975   -572.81736     102002.7      46.7237      46.7237      46.7237 
  161000    112.42584   -7257.8507   -6671.3906   -444.57588     102002.7      46.7237      46.7237      46.7237 
  162000    110.03404   -7280.7556   -6706.7721   -615.71921     102002.7      46.7237      46.7237      46.7237 
  163000    110.00958   -7287.9172   -6714.0613   -769.14178     102002.7      46.7237      46.7237      46.7237 
  164000     106.6242   -7282.4672   -6726.2709   -728.65936     102002.7      46.7237      46.7237      46.7237 
  165000    109.22882   -7274.9368   -6705.1536   -952.11567     102002.7      46.7237      46.7237      46.7237 
  166000    105.27045    -7287.415   -6738.2804   -1042.9371     102002.7      46.7237      46.7237      46.7237 
  167000    110.37594   -7289.1722   -6713.4053   -978.86087     102002.7      46.7237      46.7237      46.7237 
  168000    111.02452   -7286.6159   -6707.4656   -920.58412     102002.7      46.7237      46.7237      46.7237 
  169000    109.31346   -7288.0236   -6717.7989   -713.25938     102002.7      46.7237      46.7237      46.7237 
  170000    109.98728   -7291.3004   -6717.5608   -684.98801     102002.7      46.7237      46.7237      46.7237 
  171000    109.72976   -7270.7945   -6698.3983   -641.74442     102002.7      46.7237      46.7237      46.7237 
  172000    114.02927   -7293.0785   -6698.2542   -820.19548     102002.7      46.7237      46.7237      46.7237 
  173000    107.86866   -7292.8716   -6730.1836   -809.17732     102002.7      46.7237      46.7237      46.7237 
  174000    109.94434   -7269.1337   -6695.6181   -779.59888     102002.7      46.7237      46.7237      46.7237 
  175000    110.50503   -7300.2792   -6723.8389   -731.95612     102002.7      46.7237      46.7237      46.7237 
  176000     111.5938   -7291.1381   -6709.0183    -501.6799     102002.7      46.7237      46.7237      46.7237 
  177000    112.59348   -7289.9578   -6702.6232   -774.00642     102002.7      46.7237      46.7237      46.7237 
  178000    106.39715   -7281.2729   -6726.2609   -671.26737     102002.7      46.7237      46.7237      46.7237 
  179000    114.40293   -7285.6147   -6688.8412   -473.65106     102002.7      46.7237      46.7237      46.7237 
  180000    109.87807   -7292.0153   -6718.8453   -656.90897     102002.7      46.7237      46.7237      46.7237 
  181000     111.1267   -7266.5891   -6686.9058   -653.34808     102002.7      46.7237      46.7237      46.7237 
  182000    110.16831   -7286.5958   -6711.9119   -724.99289     102002.7      46.7237      46.7237      46.7237 
  183000    107.35841   -7269.1082   -6709.0819   -726.51382     102002.7      46.7237      46.7237      46.7237 
  184000    109.91271   -7296.8989   -6723.5483   -709.58725     102002.7      46.7237      46.7237      46.7237 
  185000    109.41593   -7268.4299   -6697.6707   -554.30607     102002.7      46.7237      46.7237      46.7237 
  186000    113.25774   -7296.8278   -6706.0281    -342.2339     102002.7      46.7237      46.7237      46.7237 
  187000    108.14981   -7295.9403   -6731.7857   -507.38314     102002.7      46.7237      46.7237      46.7237 
  188000    112.92145   -7285.2989   -6696.2534   -517.89158     102002.7      46.7237      46.7237      46.7237 
  189000    108.02884   -7281.9931   -6718.4696   -652.71704     102002.7      46.7237      46.7237      46.7237 
  190000    108.01269    -7306.957   -6743.5177   -799.11146     102002.7      46.7237      46.7237      46.7237 
  191000     108.3629   -7284.0323   -6718.7662    -789.0092     102002.7      46.7237      46.7237      46.7237 
  192000    112.86647   -7305.3845   -6716.6258    -612.4796     102002.7      46.7237      46.7237      46.7237 
  193000    110.95708   -7270.1954   -6691.3969   -706.00689     102002.7      46.7237      46.7237      46.7237 
  194000    108.28632   -7282.8593   -6717.9927   -564.04472     102002.7      46.7237      46.7237      46.7237 
  195000    108.18267   -7276.3344   -6712.0084   -918.91351     102002.7      46.7237      46.7237      46.7237 
  196000    113.34759   -7290.6728   -6699.4044   -847.26626     102002.7      46.7237      46.7237      46.7237 
  197000    111.49613   -7307.0993   -6725.4889   -1072.2529     102002.7      46.7237      46.7237      46.7237 
  198000     112.5397   -7286.7914   -6699.7373   -1024.4398     102002.7      46.7237      46.7237      46.7237 
  199000    108.22172   -7298.5577    -6734.028   -868.49075     102002.7      46.7237      46.7237      46.7237 
  200000    110.98762    -7302.449   -6723.4912   -964.48189     102002.7      46.7237      46.7237      46.7237 
  201000     108.3711   -7273.7619    -6708.453   -753.77778     102002.7      46.7237      46.7237      46.7237 
  202000    109.13179   -7292.3693   -6723.0923    -1074.793     102002.7      46.7237      46.7237      46.7237 
  203000    113.24243   -7288.9777   -6698.2579   -697.26476     102002.7      46.7237      46.7237      46.7237 
  204000     110.8041   -7282.7067   -6704.7063   -812.79768     102002.7      46.7237      46.7237      46.7237 
  205000    111.32486   -7278.0109    -6697.294   -569.03254     102002.7      46.7237      46.7237      46.7237 
  206000    111.36692   -7276.6553    -6695.719   -850.62867     102002.7      46.7237      46.7237      46.7237 
  207000    109.99731   -7306.9131   -6733.1212   -896.03641     102002.7      46.7237      46.7237      46.7237 
  208000    109.00741   -7283.2593   -6714.6311   -584.21642     102002.7      46.7237      46.7237      46.7237 
  209000    108.90526   -7265.8015   -6697.7061   -923.39654     102002.7      46.7237      46.7237      46.7237 
  210000    108.32395   -7284.7494   -6719.6864   -584.36677     102002.7      46.7237      46.7237      46.7237 
  211000    112.74804   -7269.6318    -6681.491   -823.37209     102002.7      46.7237      46.7237      46.7237 
  212000    111.39373   -7282.2403   -6701.1641    -612.3064     102002.7      46.7237      46.7237      46.7237 
  213000    106.94751   -7271.1212   -6713.2383   -705.64498     102002.7      46.7237      46.7237      46.7237 
  214000    107.57864   -7290.4748   -6729.2997   -800.61469     102002.7      46.7237      46.7237      46.7237 
  215000     113.1141   -7277.0392   -6686.9889   -535.07414     102002.7      46.7237      46.7237      46.7237 
  216000    107.25871    -7279.862   -6720.3558   -713.40656     102002.7      46.7237      46.7237      46.7237 
  217000    112.56901   -7291.7997   -6704.5927   -543.20723     102002.7      46.7237      46.7237      46.7237 
  218000    113.42722   -7283.4279   -6691.7441   -881.54776     102002.7      46.7237      46.7237      46.7237 
  219000    109.76985   -7283.5493   -6710.9439   -442.29544     102002.7      46.7237      46.7237      46.7237 
  220000    107.46388   -7300.3006   -6739.7241   -753.64726     102002.7      46.7237      46.7237      46.7237 
  221000    110.84033   -7272.1571   -6693.9676   -531.90286     102002.7      46.7237      46.7237      46.7237 
  222000    110.46737    -7304.872   -6728.6281   -519.53129     102002.7      46.7237      46.7237      46.7237 
  223000    112.39471   -7283.9253   -6697.6276   -555.40574     102002.7      46.7237      46.7237      46.7237 
  224000    110.73533   -7296.0569   -6718.4151    -661.0452     102002.7      46.7237      46.7237      46.7237 
  225000    109.45489   -7291.5304    -6720.568    -888.1676     102002.7      46.7237      46.7237      46.7237 
  226000    110.91601    -7286.896   -6708.3117   -524.93635     102002.7      46.7237      46.7237      46.7237 
  227000    109.85418   -7257.0575   -6684.0123   -418.91143     102002.7      46.7237      46.7237      46.7237 
  228000    106.86488   -7282.4194   -6724.9676    -414.1169     102002.7      46.7237      46.7237      46.7237 
  229000    113.35271   -7302.0089   -6710.7138   -168.63031     102002.7      46.7237      46.7237      46.7237 
  230000     112.0031   -7300.9163   -6716.6613   -364.70065     102002.7      46.7237      46.7237      46.7237 
  231000    107.22732    -7284.435   -6725.0926   -452.62683     102002.7      46.7237      46.7237      46.7237 
  232000    113.04063   -7273.6389   -6683.9717   -482.71369     102002.7      46.7237      46.7237      46.7237 
  233000    108.21923   -7268.1712   -6703.6545   -603.01111     102002.7      46.7237      46.7237      46.7237 
  234000    109.26917   -7285.4979   -6715.5043   -892.12211     102002.7      46.7237      46.7237      46.7237 
  235000    106.05553   -7296.6926   -6743.4627   -663.23712     102002.7      46.7237      46.7237      46.7237 
  236000    109.34386   -7264.4049   -6694.0216   -961.35996     102002.7      46.7237      46.7237      46.7237 
  237000    107.64064   -7282.5218   -6721.0233    -606.9999     102002.7      46.7237      46.7237      46.7237 
  238000    107.35055    -7302.598   -6742.6127    -365.9661     102002.7      46.7237      46.7237      46.7237 
  239000    110.79663   -7279.6158   -6701.6543    -730.2745     102002.7      46.7237      46.7237      46.7237 
  240000    110.23716   -7303.4483   -6728.4052   -536.64238     102002.7      46.7237      46.7237      46.7237 
  241000    110.07668    -7277.547   -6703.3411   -766.96106     102002.7      46.7237      46.7237      46.7237 
  242000    107.84564   -7307.7821   -6745.2142   -1007.4242     102002.7      46.7237      46.7237      46.7237 
  243000    108.11394   -7279.4707   -6715.5032   -681.35586     102002.7      46.7237      46.7237      46.7237 
  244000    111.58018   -7299.2682   -6717.2194   -640.20988     102002.7      46.7237      46.7237      46.7237 
  245000    113.33759   -7251.8249   -6660.6087   -644.03364     102002.7      46.7237      46.7237      46.7237 
  246000    108.74309   -7288.2131   -6720.9637   -855.56938     102002.7      46.7237      46.7237      46.7237 
  247000    113.17342   -7270.6491   -6680.2893   -568.90683     102002.7      46.7237      46.7237      46.7237 
  248000    110.22838   -7285.5354   -6710.5382   -938.54553     102002.7      46.7237      46.7237      46.7237 
  249000    106.49459   -7293.5554   -6738.0351    -726.7431     102002.7      46.7237      46.7237      46.7237 
  250000    108.49223    -7274.838   -6708.8973    -761.5918     102002.7      46.7237      46.7237      46.7237 
  251000    108.20722   -7287.8008   -6723.3467   -423.82333     102002.7      46.7237      46.7237      46.7237 
  252000    109.98712   -7285.6824   -6711.9436    -450.2227     102002.7      46.7237      46.7237      46.7237 
  253000    111.28934   -7287.0801   -6706.5484   -634.18622     102002.7      46.7237      46.7237      46.7237 
  254000    108.70716   -7280.2981   -6713.2362   -656.09814     102002.7      46.7237      46.7237      46.7237 
  255000     112.8618   -7285.6593    -6696.925   -626.10448     102002.7      46.7237      46.7237      46.7237 
  256000    110.36602   -7283.4793   -6707.7641   -760.51798     102002.7      46.7237      46.7237      46.7237 
  257000    107.00342   -7298.0372   -6739.8626   -979.96625     102002.7      46.7237      46.7237      46.7237 
  258000    110.46288   -7285.5299   -6709.3094   -694.12688     102002.7      46.7237      46.7237      46.7237 
  259000    115.30711    -7279.544   -6678.0539   -740.92297     102002.7      46.7237      46.7237      46.7237 
  260000     108.2451   -7284.1745   -6719.5229   -780.89089     102002.7      46.7237      46.7237      46.7237 
  261000    113.04333   -7280.8298   -6691.1486   -614.14101     102002.7      46.7237      46.7237      46.7237 
  262000    108.65391   -7289.8694   -6723.0852   -871.91827     102002.7      46.7237      46.7237      46.7237 
  263000    113.54131   -7287.4179    -6695.139   -723.89794     102002.7      46.7237      46.7237      46.7237 
  264000    110.86936   -7309.7091   -6731.3682   -637.30979     102002.7      46.7237      46.7237      46.7237 
  265000    111.92384    -7290.013   -6706.1715   -699.68918     102002.7      46.7237      46.7237      46.7237 
  266000    107.87248   -7288.5263   -6725.8184    -727.3115     102002.7      46.7237      46.7237      46.7237 
  267000    108.79671   -7294.9371    -6727.408   -910.99347     102002.7      46.7237      46.7237      46.7237 
  268000    108.32918   -7267.1711   -6702.0808   -544.50223     102002.7      46.7237      46.7237      46.7237 
  269000    107.61301   -7271.0318   -6709.6774   -580.97318     102002.7      46.7237      46.7237      46.7237 
  270000    108.30765   -7290.1056   -6725.1277   -648.01091     102002.7      46.7237      46.7237      46.7237 
  271000    107.47126    -7279.302    -6718.687   -709.81009     102002.7      46.7237      46.7237      46.7237 
  272000    108.37541   -7284.0855   -6718.7541   -605.28161     102002.7      46.7237      46.7237      46.7237 
  273000    108.24057   -7275.2858   -6710.6577   -515.36781     102002.7      46.7237      46.7237      46.7237 
  274000    105.07658   -7309.7501   -6761.6268   -951.02764     102002.7      46.7237      46.7237      46.7237 
  275000    111.26016   -7281.5932   -6701.2137   -761.49099     102002.7      46.7237      46.7237      46.7237 
  276000    109.73826   -7294.3516    -6721.911   -681.15313     102002.7      46.7237      46.7237      46.7237 
  277000    111.86482    -7294.157   -6710.6234   -783.85861     102002.7      46.7237      46.7237      46.7237 
  278000    105.47004   -7288.3734   -6738.1977   -840.47936     102002.7      46.7237      46.7237      46.7237 
  279000    113.16922   -7287.3388   -6697.0009   -965.75667     102002.7      46.7237      46.7237      46.7237 
  280000    112.08474   -7297.1652   -6712.4844   -540.59748     102002.7      46.7237      46.7237      46.7237 
  281000    111.29884   -7283.8829   -6703.3017   -885.86123     102002.7      46.7237      46.7237      46.7237 
  282000    112.41729    -7292.812   -6706.3965   -805.71075     102002.7      46.7237      46.7237      46.7237 
  283000    110.53637   -7285.6125   -6709.0086   -808.58657     102002.7      46.7237      46.7237      46.7237 
  284000    108.00564   -7291.7077   -6728.3052   -818.62083     102002.7      46.7237      46.7237      46.7237 
  285000    112.06364   -7294.7269   -6710.1562   -832.34465     102002.7      46.7237      46.7237      46.7237 
  286000    106.48204   -7291.2467    -6735.792   -751.67468     102002.7      46.7237      46.7237      46.7237 
  287000    111.56127   -7292.7771    -6710.827   -912.84175     102002.7      46.7237      46.7237      46.7237 
  288000    106.85665   -7292.8734   -6735.4645   -848.57854     102002.7      46.7237      46.7237      46.7237 
  289000    109.66029   -7280.9455   -6708.9116   -590.03292     102002.7      46.7237      46.7237      46.7237 
  290000    107.97976   -7291.2499   -6727.9823   -959.02007     102002.7      46.7237      46.7237      46.7237 
  291000    113.81406   -7282.3673   -6688.6657   -972.32011     102002.7      46.7237      46.7237      46.7237 
  292000    107.44645   -7280.2698   -6719.7842    -834.3382     102002.7      46.7237      46.7237      46.7237 
  293000    107.02214   -7280.5564   -6722.2842    -664.3496     102002.7      46.7237      46.7237      46.7237 
  294000    109.91665    -7296.981   -6723.6099   -767.86372     102002.7      46.7237      46.7237      46.7237 
  295000    107.29235   -7302.9893   -6743.3076   -656.61933     102002.7      46.7237      46.7237      46.7237 
  296000    111.58149    -7274.966   -6692.9104   -772.50816     102002.7      46.7237      46.7237      46.7237 
  297000    112.17215   -7315.0441   -6729.9074    -766.1066     102002.7      46.7237      46.7237      46.7237 
  298000     110.2064   -7291.1161   -6716.2335    -420.4359     102002.7      46.7237      46.7237      46.7237 
  299000    112.49567    -7275.238   -6688.4137   -882.55178     102002.7      46.7237      46.7237      46.7237 
  300000    112.71425   -7309.4363   -6721.4718   -823.31258     102002.7      46.7237      46.7237      46.7237 
  301000    108.61199   -7272.9638   -6706.3983   -823.69543     102002.7      46.7237      46.7237      46.7237 
  302000     110.9443     -7274.19   -6695.4581   -809.85343     102002.7      46.7237      46.7237      46.7237 
  303000    108.36222   -7275.8302   -6710.5676   -708.97739     102002.7      46.7237      46.7237      46.7237 
  304000    106.25022   -7278.0594   -6723.8139   -826.86725     102002.7      46.7237      46.7237      46.7237 
  305000    110.34553   -7274.7111   -6699.1028   -577.90666     102002.7      46.7237      46.7237      46.7237 
  306000     112.0751   -7274.7015   -6690.0709   -699.11378     102002.7      46.7237      46.7237      46.7237 
  307000    110.95216   -7282.1172   -6703.3443   -789.70586     102002.7      46.7237      46.7237      46.7237 
  308000    107.50471   -7298.1042   -6737.3147   -697.31004     102002.7      46.7237      46.7237      46.7237 
  309000    108.71783   -7282.9932   -6715.8756   -836.22404     102002.7      46.7237      46.7237      46.7237 
  310000    111.10556   -7263.8999   -6684.3269   -797.62235     102002.7      46.7237      46.7237      46.7237 
  311000     110.3379    -7301.344   -6725.7754   -561.27823     102002.7      46.7237      46.7237      46.7237 
  312000    106.33826   -7263.0984   -6708.3937   -701.10192     102002.7      46.7237      46.7237      46.7237 
  313000     111.6277   -7286.8564   -6704.5596   -667.87053     102002.7      46.7237      46.7237      46.7237 
  314000    111.27258   -7311.6153   -6731.1711   -516.29086     102002.7      46.7237      46.7237      46.7237 
  315000    111.96956   -7293.7282   -6709.6482   -805.10922     102002.7      46.7237      46.7237      46.7237 
  316000    108.36665   -7283.4715   -6718.1858   -627.56347     102002.7      46.7237      46.7237      46.7237 
  317000    109.50601   -7294.8987   -6723.6696   -732.77854     102002.7      46.7237      46.7237      46.7237 
  318000    111.20186   -7286.0867   -6706.0113   -715.29545     102002.7      46.7237      46.7237      46.7237 
  319000    109.71221   -7299.9443   -6727.6396   -708.43294     102002.7      46.7237      46.7237      46.7237 
  320000    111.19729   -7295.8346   -6715.7831   -348.74361     102002.7      46.7237      46.7237      46.7237 
  321000    109.01736   -7271.7943   -6703.1142   -394.90312     102002.7      46.7237      46.7237      46.7237 
  322000    108.16004   -7305.5021   -6741.2942   -767.53961     102002.7      46.7237      46.7237      46.7237 
  323000    109.53262    -7281.628   -6710.2601   -779.29702     102002.7      46.7237      46.7237      46.7237 
  324000    110.50023   -7281.6222   -6705.2068   -525.88074     102002.7      46.7237      46.7237      46.7237 
  325000    110.80172   -7285.8997   -6707.9117    -761.0693     102002.7      46.7237      46.7237      46.7237 
  326000    109.12903   -7300.2711   -6731.0085   -635.95179     102002.7      46.7237      46.7237      46.7237 
  327000    111.44982   -7274.1549   -6692.7861   -579.00762     102002.7      46.7237      46.7237      46.7237 
  328000    109.65648   -7269.2979   -6697.2839   -564.43904     102002.7      46.7237      46.7237      46.7237 
  329000    106.82962   -7282.0913   -6724.8234   -316.22531     102002.7      46.7237      46.7237      46.7237 
  330000    108.80948   -7275.0803   -6707.4846   -860.71382     102002.7      46.7237      46.7237      46.7237 
  331000    111.03505   -7308.8077   -6729.6025   -503.86537     102002.7      46.7237      46.7237      46.7237 
  332000    107.14809   -7293.8851   -6734.9559   -757.47599     102002.7      46.7237      46.7237      46.7237 
  333000    107.37799   -7267.7236   -6707.5952    -794.3281     102002.7      46.7237      46.7237      46.7237 
  334000    109.15715   -7257.0049   -6687.5956   -837.21918     102002.7      46.7237      46.7237      46.7237 
  335000    107.47794   -7286.9849   -6726.3351   -845.60206     102002.7      46.7237      46.7237      46.7237 
  336000    108.05807   -7290.4214   -6726.7454   -867.69881     102002.7      46.7237      46.7237      46.7237 
  337000    110.61851   -7282.6983   -6705.6659   -594.74007     102002.7      46.7237      46.7237      46.7237 
  338000     110.9939   -7279.7429   -6700.7524    -692.4907     102002.7      46.7237      46.7237      46.7237 
  339000    108.05673    -7275.996    -6712.327    -970.8478     102002.7      46.7237      46.7237      46.7237 
  340000    111.52027   -7298.1593    -6716.423   -724.97361     102002.7      46.7237      46.7237      46.7237 
  341000    110.50029   -7275.1215   -6698.7059   -765.62369     102002.7      46.7237      46.7237      46.7237 
  342000    110.56952   -7294.3926   -6717.6158   -1029.4909     102002.7      46.7237      46.7237      46.7237 
  343000    109.03745   -7291.3117   -6722.5268   -355.93195     102002.7      46.7237      46.7237      46.7237 
  344000    111.95282   -7283.6429   -6699.6503    -1159.659     102002.7      46.7237      46.7237      46.7237 
  345000    105.68076   -7274.4502   -6723.1752   -685.59049     102002.7      46.7237      46.7237      46.7237 
  346000    112.56819   -7299.9997    -6712.797   -962.63358     102002.7      46.7237      46.7237      46.7237 
  347000    107.88907     -7285.61   -6722.8155   -876.42369     102002.7      46.7237      46.7237      46.7237 
  348000    108.92828   -7298.9885   -6730.7731   -807.45346     102002.7      46.7237      46.7237      46.7237 
  349000    106.56753   -7269.6513   -6713.7505   -684.54202     102002.7      46.7237      46.7237      46.7237 
  350000    109.12608    -7297.807   -6728.5599   -802.39599     102002.7      46.7237      46.7237      46.7237 
  351000    111.17665   -7280.3409   -6700.3971   -674.02981     102002.7      46.7237      46.7237      46.7237 
  352000    110.43159   -7277.7386   -6701.6813   -643.59413     102002.7      46.7237      46.7237      46.7237 
  353000    107.47609   -7284.9304   -6724.2902   -666.41601     102002.7      46.7237      46.7237      46.7237 
  354000    112.08796   -7301.7273   -6717.0297   -707.57607     102002.7      46.7237      46.7237      46.7237 
  355000    108.89565   -7252.2723   -6684.2271   -502.57252     102002.7      46.7237      46.7237      46.7237 
  356000    104.81073   -7286.4126   -6739.6761   -800.74443     102002.7      46.7237      46.7237      46.7237 
  357000    112.72418    -7305.362   -6717.3455   -684.98782     102002.7      46.7237      46.7237      46.7237 
  358000    110.66254   -7294.4977   -6717.2357   -727.59021     102002.7      46.7237      46.7237      46.7237 
  359000    109.58756   -7270.5039   -6698.8494   -536.10993     102002.7      46.7237      46.7237      46.7237 
  360000    110.15384   -7290.4325   -6715.8241   -723.52659     102002.7      46.7237      46.7237      46.7237 
  361000    108.13006    -7289.533   -6725.4814   -620.85764     102002.7      46.7237      46.7237      46.7237 
  362000    110.95642    -7294.794    -6715.999   -412.47686     102002.7      46.7237      46.7237      46.7237 
  363000    112.30893   -7291.2168   -6705.3665   -695.43647     102002.7      46.7237      46.7237      46.7237 
  364000    108.48979   -7280.9567   -6715.0286   -642.74963     102002.7      46.7237      46.7237      46.7237 
  365000     110.2004   -7278.2778   -6703.4265   -948.08022     102002.7      46.7237      46.7237      46.7237 
  366000    111.10467   -7269.1559   -6689.5875   -965.87621     102002.7      46.7237      46.7237      46.7237 
  367000    109.09189   -7303.3238    -6734.255   -956.30065     102002.7      46.7237      46.7237      46.7237 
  368000    111.57816   -7275.7394   -6693.7011   -881.75432     102002.7      46.7237      46.7237      46.7237 
  369000    109.05175   -7284.4163   -6715.5568   -968.63243     102002.7      46.7237      46.7237      46.7237 
  370000    112.14397   -7284.5517   -6699.5619    -744.6374     102002.7      46.7237      46.7237      46.7237 
  371000    110.73866   -7275.3887   -6697.7296   -801.12229     102002.7      46.7237      46.7237      46.7237 
  372000    106.19316   -7296.2742   -6742.3264   -863.09756     102002.7      46.7237      46.7237      46.7237 
  373000    106.99325   -7274.4076   -6716.2861    -912.7423     102002.7      46.7237      46.7237      46.7237 
  374000    109.83848   -7269.0542   -6696.0909   -828.45849     102002.7      46.7237      46.7237      46.7237 
  375000    112.85642   -7297.8333    -6709.127     -598.424     102002.7      46.7237      46.7237      46.7237 
  376000     107.2852   -7310.1824   -6750.5379   -570.24783     102002.7      46.7237      46.7237      46.7237 
  377000    111.06891   -7280.5068    -6701.125    -662.6162     102002.7      46.7237      46.7237      46.7237 
  378000    109.67497   -7306.1491   -6734.0386   -525.20579     102002.7      46.7237      46.7237      46.7237 
  379000     110.8511   -7291.7176    -6713.472   -639.72496     102002.7      46.7237      46.7237      46.7237 
  380000    108.53543   -7270.0512   -6703.8851   -441.47651     102002.7      46.7237      46.7237      46.7237 
  381000    109.16412   -7304.5005   -6735.0549   -801.40602     102002.7      46.7237      46.7237      46.7237 
  382000    110.39072   -7297.9268   -6722.0827   -619.27962     102002.7      46.7237      46.7237      46.7237 
  383000    110.29536   -7276.7237   -6701.3771   -933.53146     102002.7      46.7237      46.7237      46.7237 
  384000    107.38934   -7271.8027    -6711.615   -982.59687     102002.7      46.7237      46.7237      46.7237 
  385000    111.96307   -7291.4448   -6707.3986   -776.50844     102002.7      46.7237      46.7237      46.7237 
  386000    108.02317   -7274.0836   -6710.5897   -928.69996     102002.7      46.7237      46.7237      46.7237 
  387000    112.37352   -7267.1892    -6681.002   -1020.0416     102002.7      46.7237      46.7237      46.7237 
  388000    109.19908   -7278.0845   -6708.4565   -1069.2028     102002.7      46.7237      46.7237      46.7237 
  389000    110.09914   -7311.4208   -6737.0977    -846.0362     102002.7      46.7237      46.7237      46.7237 
  390000    111.78414   -7292.8088    -6709.696   -901.36537     102002.7      46.7237      46.7237      46.7237 
  391000    107.16105    -7296.308   -6737.3113    -584.0988     102002.7      46.7237      46.7237      46.7237 
  392000    112.71131   -7319.4315   -6731.4823   -542.16675     102002.7      46.7237      46.7237      46.7237 
  393000    108.60557   -7266.8244   -6700.2924   -777.93824     102002.7      46.7237      46.7237      46.7237 
  394000    107.44338   -7289.8424   -6729.3729   -716.04257     102002.7      46.7237      46.7237      46.7237 
  395000    109.37722   -7288.7533    -6718.196   -749.62198     102002.7      46.7237      46.7237      46.7237 
  396000    112.90028    -7277.138    -6688.203   -706.08649     102002.7      46.7237      46.7237      46.7237 
  397000    108.45524   -7292.9361   -6727.1882    -746.1682     102002.7      46.7237      46.7237      46.7237 
  398000    108.90441   -7290.9648   -6722.8739   -748.73539     102002.7      46.7237      46.7237      46.7237 
  399000    110.77201   -7303.3778   -6725.5447   -891.36941     102002.7      46.7237      46.7237      46.7237 
  400000    111.65711   -7286.5752   -6704.1251   -928.90554     102002.7      46.7237      46.7237      46.7237 
  401000    110.68604    -7287.417   -6710.0324    -659.3116     102002.7      46.7237      46.7237      46.7237 
  402000    109.46912   -7290.2902   -6719.2536   -888.10094     102002.7      46.7237      46.7237      46.7237 
  403000    108.40467   -7294.6864   -6729.2024   -698.59755     102002.7      46.7237      46.7237      46.7237 
  404000    109.03021   -7270.3881    -6701.641   -691.67655     102002.7      46.7237      46.7237      46.7237 
  405000    111.69345   -7299.9958   -6717.3561   -651.26688     102002.7      46.7237      46.7237      46.7237 
  406000    104.48801   -7269.3007   -6724.2476      -900.52     102002.7      46.7237      46.7237      46.7237 
  407000    110.10452    -7270.844   -6696.4928   -799.02021     102002.7      46.7237      46.7237      46.7237 
  408000    110.93977   -7284.8889   -6706.1807   -645.99512     102002.7      46.7237      46.7237      46.7237 
  409000    109.75671   -7288.8735   -6716.3367   -727.86772     102002.7      46.7237      46.7237      46.7237 
  410000    106.41844   -7280.2027   -6725.0796   -709.91556     102002.7      46.7237      46.7237      46.7237 
  411000    108.34277    -7289.813   -6724.6519   -598.89906     102002.7      46.7237      46.7237      46.7237 
  412000    115.63964   -7257.9215   -6654.6968   -837.19027     102002.7      46.7237      46.7237      46.7237 
  413000    109.59719   -7306.1136   -6734.4089   -653.42936     102002.7      46.7237      46.7237      46.7237 
  414000    109.27599   -7287.1596   -6717.1305   -711.53936     102002.7      46.7237      46.7237      46.7237 
  415000    112.94073   -7275.2014   -6686.0554   -643.11412     102002.7      46.7237      46.7237      46.7237 
  416000    106.47359   -7278.5642   -6723.1535   -596.67471     102002.7      46.7237      46.7237      46.7237 
  417000    110.12651   -7264.5531   -6690.0872   -760.28032     102002.7      46.7237      46.7237      46.7237 
  418000    106.91209   -7278.7448   -6721.0467   -407.35088     102002.7      46.7237      46.7237      46.7237 
  419000    109.46456   -7277.6934   -6706.6806   -572.73922     102002.7      46.7237      46.7237      46.7237 
  420000     109.1039   -7310.2107   -6741.0792   -709.48386     102002.7      46.7237      46.7237      46.7237 
  421000    108.09869   -7282.1993   -6718.3114   -926.10117     102002.7      46.7237      46.7237      46.7237 
  422000    113.38674   -7270.6226     -6679.15   -979.65073     102002.7      46.7237      46.7237      46.7237 
  423000    111.65305   -7296.0171   -6713.5881   -779.93552     102002.7      46.7237      46.7237      46.7237 
  424000    106.89431   -7265.6848   -6708.0794   -977.82317     102002.7      46.7237      46.7237      46.7237 
  425000    105.35356   -7293.3895   -6743.8213   -783.09105     102002.7      46.7237      46.7237      46.7237 
  426000    109.15354    -7281.262   -6711.8716   -930.40914     102002.7      46.7237      46.7237      46.7237 
  427000    112.40012   -7264.7592   -6678.4333   -698.92961     102002.7      46.7237      46.7237      46.7237 
  428000    109.81419   -7277.5816    -6704.745   -711.20137     102002.7      46.7237      46.7237      46.7237 
  429000    112.11989    -7262.842   -6677.9778   -635.88489     102002.7      46.7237      46.7237      46.7237 
  430000    108.79797   -7285.8031   -6718.2675   -586.87749     102002.7      46.7237      46.7237      46.7237 
  431000    110.35863   -7271.9963   -6696.3196   -519.17369     102002.7      46.7237      46.7237      46.7237 
  432000    110.00796    -7276.623   -6702.7755   -539.77432     102002.7      46.7237      46.7237      46.7237 
  433000    107.05662   -7280.5882   -6722.1362   -646.51826     102002.7      46.7237      46.7237      46.7237 
  434000    110.57947   -7278.9015   -6702.0728   -618.88933     102002.7      46.7237      46.7237      46.7237 
  435000    107.57649   -7294.3579    -6733.194   -548.74326     102002.7      46.7237      46.7237      46.7237 
  436000    104.59062   -7281.1554   -6735.5671   -858.26079     102002.7      46.7237      46.7237      46.7237 
  437000    109.40533   -7289.8244   -6719.1206   -459.14141     102002.7      46.7237      46.7237      46.7237 
  438000    107.11759   -7282.0307   -6723.2606   -834.67944     102002.7      46.7237      46.7237      46.7237 
  439000    112.42389   -7288.7488   -6702.2988    -894.2571     102002.7      46.7237      46.7237      46.7237 
  440000    113.52835   -7291.1394   -6698.9281   -642.37678     102002.7      46.7237      46.7237      46.7237 
  441000    108.25963     -7281.22   -6716.4926   -721.95375     102002.7      46.7237      46.7237      46.7237 
  442000    113.02343   -7291.1938   -6701.6164    -683.7304     102002.7      46.7237      46.7237      46.7237 
  443000    107.29561   -7313.5475   -6753.8488   -752.92593     102002.7      46.7237      46.7237      46.7237 
  444000    111.89973   -7299.7484   -6716.0327   -623.68924     102002.7      46.7237      46.7237      46.7237 
  445000    110.13627   -7284.5726   -6710.0558   -564.21789     102002.7      46.7237      46.7237      46.7237 
  446000    109.16063    -7291.607   -6722.1795   -748.62019     102002.7      46.7237      46.7237      46.7237 
  447000    107.09686   -7284.0323   -6725.3703   -643.24832     102002.7      46.7237      46.7237      46.7237 
  448000    108.00532   -7285.4408   -6722.0399   -700.29378     102002.7      46.7237      46.7237      46.7237 
  449000    110.22378   -7286.3392   -6711.3659    -743.1516     102002.7      46.7237      46.7237      46.7237 
  450000    112.79473   -7285.0559   -6696.6715   -752.36337     102002.7      46.7237      46.7237      46.7237 
  451000    108.31795   -7293.2781   -6728.2464    -580.3214     102002.7      46.7237      46.7237      46.7237 
  452000    110.68068   -7284.6619   -6707.3053   -625.88599     102002.7      46.7237      46.7237      46.7237 
  453000    113.79254   -7284.4896   -6690.9002   -761.98646     102002.7      46.7237      46.7237      46.7237 
  454000    109.52841    -7295.072   -6723.7261   -663.54585     102002.7      46.7237      46.7237      46.7237 
  455000    112.67257   -7300.9288   -6713.1816    -651.4382     102002.7      46.7237      46.7237      46.7237 
  456000    109.85837   -7289.8624   -6716.7952   -789.21356     102002.7      46.7237      46.7237      46.7237 
  457000    106.94769   -7294.9644   -6737.0806   -777.38435     102002.7      46.7237      46.7237      46.7237 
  458000    107.64095    -7266.325   -6704.8248   -784.16329     102002.7      46.7237      46.7237      46.7237 
  459000    106.88676   -7289.7438   -6732.1778   -676.18717     102002.7      46.7237      46.7237      46.7237 
  460000    107.64566   -7255.6264   -6694.1016   -1114.9977     102002.7      46.7237      46.7237      46.7237 
  461000    110.34682   -7305.1611    -6729.546    -601.3718     102002.7      46.7237      46.7237      46.7237 
  462000    110.41351   -7279.6019   -6703.6389   -728.07991     102002.7      46.7237      46.7237      46.7237 
  463000    108.18761   -7284.2678   -6719.9161   -768.99341     102002.7      46.7237      46.7237      46.7237 
  464000    110.90276   -7299.1942   -6720.6791   -615.09097     102002.7      46.7237      46.7237      46.7237 
  465000    107.24007   -7284.7717   -6725.3627   -476.73236     102002.7      46.7237      46.7237      46.7237 
  466000    109.71116   -7300.1812    -6727.882   -366.98524     102002.7      46.7237      46.7237      46.7237 
  467000    109.77684   -7271.4724   -6698.8305   -664.51461     102002.7      46.7237      46.7237      46.7237 
  468000    107.50238   -7292.9379   -6732.1606   -505.53246     102002.7      46.7237      46.7237      46.7237 
  469000    112.28444   -7285.4725     -6699.75   -826.88951     102002.7      46.7237      46.7237      46.7237 
  470000    107.32641   -7289.6498   -6729.7904   -795.09209     102002.7      46.7237      46.7237      46.7237 
  471000    111.52827   -7299.8375   -6718.0595   -796.36675     102002.7      46.7237      46.7237      46.7237 
  472000    113.40544   -7274.6623   -6683.0922   -756.18399     102002.7      46.7237      46.7237      46.7237 
  473000    113.24394   -7286.2661   -6695.5384   -366.60723     102002.7      46.7237      46.7237      46.7237 
  474000    108.42234   -7297.8481   -6732.2719   -633.78863     102002.7      46.7237      46.7237      46.7237 
  475000    111.49816   -7282.3992   -6700.7783   -759.40513     102002.7      46.7237      46.7237      46.7237 
  476000    110.79661   -7268.8496   -6690.8882   -445.04471     102002.7      46.7237      46.7237      46.7237 
  477000    107.37804   -7289.1961   -6729.0674   -561.70995     102002.7      46.7237      46.7237      46.7237 
  478000     108.7849    -7266.199   -6698.7316   -700.46335     102002.7      46.7237      46.7237      46.7237 
  479000    106.35821   -7279.0109   -6724.2021   -462.08576     102002.7      46.7237      46.7237      46.7237 
  480000    110.97716   -7281.0803   -6702.1771    -682.7929     102002.7      46.7237      46.7237      46.7237 
  481000    107.31374   -7296.4206   -6736.6273    -688.6154     102002.7      46.7237      46.7237      46.7237 
  482000    109.52011   -7274.8142   -6703.5116    -793.5414     102002.7      46.7237      46.7237      46.7237 
  483000    109.76754   -7302.5421   -6729.9488   -773.91268     102002.7      46.7237      46.7237      46.7237 
  484000    109.08115   -7290.8302   -6721.8173   -749.26507     102002.7      46.7237      46.7237      46.7237 
  485000    110.67699   -7285.7075   -6708.3701   -764.05484     102002.7      46.7237      46.7237      46.7237 
  486000    106.49826   -7287.0473   -6731.5079   -702.87075     102002.7      46.7237      46.7237      46.7237 
  487000    108.10362   -7271.1104   -6707.1968   -772.91987     102002.7      46.7237      46.7237      46.7237 
  488000    108.72094   -7303.9916   -6736.8578   -742.85765     102002.7      46.7237      46.7237      46.7237 
  489000    109.36872   -7291.7369   -6721.2239   -556.55144     102002.7      46.7237      46.7237      46.7237 
  490000    110.18213   -7279.2933   -6704.5373   -568.00502     102002.7      46.7237      46.7237      46.7237 
  491000    111.35673   -7279.0692    -6698.186   -846.27918     102002.7      46.7237      46.7237      46.7237 
  492000    110.47137   -7297.4989   -6721.2341    -995.8734     102002.7      46.7237      46.7237      46.7237 
  493000    108.45844   -7258.6531   -6692.8886   -649.66728     102002.7      46.7237      46.7237      46.7237 
  494000    109.01619   -7306.5047   -6737.8308   -1141.8977     102002.7      46.7237      46.7237      46.7237 
  495000    109.72171   -7276.2586   -6703.9043   -612.62925     102002.7      46.7237      46.7237      46.7237 
  496000    115.17612   -7298.7035   -6697.8968   -731.12572     102002.7      46.7237      46.7237      46.7237 
  497000    110.57306   -7307.2969   -6730.5016   -752.79926     102002.7      46.7237      46.7237      46.7237 
  498000    109.41249   -7287.1908   -6716.4496   -805.93225     102002.7      46.7237      46.7237      46.7237 
  499000    108.79776   -7296.8211   -6729.2865    -522.6399     102002.7      46.7237      46.7237      46.7237 
  500000    107.17472   -7281.0901    -6722.022   -578.82412     102002.7      46.7237      46.7237      46.7237 
  500507    108.11871   -7275.4466   -6711.4543   -512.48497     102002.7      46.7237      46.7237      46.7237 
Loop time of 566.397 on 24 procs for 500000 steps with 1751 atoms

Performance: 76.272 ns/day, 0.315 hours/ns, 882.773 timesteps/s
99.9% CPU use with 24 MPI tasks x no OpenMP threads

MPI task timing breakdown:
Section |  min time  |  avg time  |  max time  |%varavg| %total
---------------------------------------------------------------
Pair    | 194.33     | 276.76     | 353.52     | 312.4 | 48.86
Bond    | 70.591     | 78.57      | 87.865     |  45.8 | 13.87
Neigh   | 1.9074     | 1.9263     | 1.9406     |   0.8 |  0.34
Comm    | 122.52     | 201.95     | 282.16     | 374.7 | 35.65
Output  | 0.28963    | 0.28995    | 0.2947     |   0.2 |  0.05
Modify  | 3.5527     | 3.9391     | 4.2315     |   8.2 |  0.70
Other   |            | 2.969      |            |       |  0.52

Nlocal:    72.9583 ave 101 max 59 min
Histogram: 4 5 1 8 1 3 0 0 0 2
Nghost:    1997.79 ave 2169 max 1894 min
Histogram: 7 9 0 0 0 0 0 0 2 6
Neighs:    7640.62 ave 11065 max 5575 min
Histogram: 6 4 2 3 1 2 1 2 1 2

Total # of neighbors = 183375
Ave neighs/atom = 104.726
Ave special neighs/atom = 6.5791
Neighbor list builds = 3499
Dangerous builds = 0
Neighbor list info ...
  update every 1 steps, delay 10 steps, check yes
  max neighbors/atom: 2000, page size: 100000
  master list distance cutoff = 16
  ghost atom cutoff = 16
  binsize = 8, bins = 6 6 6
  3 neighbor lists, perpetual/occasional/extra = 3 0 0
  (1) pair buck6d/coul/gauss/dsf, perpetual, skip from (3)
      attributes: half, newton on
      pair build: skip
      stencil: none
      bin: none
  (2) pair lj/cut, perpetual, skip from (3)
      attributes: half, newton on
      pair build: skip
      stencil: none
      bin: none
  (3) neighbor class addition, perpetual
      attributes: half, newton on
      pair build: half/bin/newton
      stencil: half/bin/3d/newton
      bin: standard
Setting up Verlet run ...
  Unit style    : real
  Current step  : 500507
  Time step     : 1
WARNING: Inconsistent image flags (../domain.cpp:786)
Per MPI rank memory allocation (min/avg/max) = 24.13 | 24.48 | 24.57 Mbytes
Step Time TotEng KinEng PotEng E_mol E_pair Temp Pxx Pyy Pzz Pxy Pxz Pyz Cella Cellb Cellc CellAlpha CellBeta CellGamma Volume Press 
  500507       500000   -6711.4543    563.99233   -7275.4466    4296.4134    -11571.86    108.11871   -284.38152   -451.23033   -801.84305    114.82414    169.87345    24.680404      46.7237      46.7237      46.7237           90           90           90     102002.7   -512.48497 
  501000       500493   -6662.4545    591.80513   -7254.2596    4335.5037   -11589.763    113.45049   -792.36333   -760.66783   -357.37927    162.10705   -60.457056    -8.017405      46.7237      46.7237      46.7237           90           90           90     102002.7   -636.80348 
  502000       501493   -6709.9211    569.95336   -7279.8744    4320.9305   -11600.805    109.26145   -878.96926   -944.91657   -593.22209   -41.627514   -137.03467   -166.88392      46.7237      46.7237      46.7237           90           90           90     102002.7   -805.70264 
  503000       502493   -6737.9245    555.72283   -7293.6474     4294.712   -11588.359    106.53342    -864.6046   -967.84571   -1106.9203    7.4253793   -93.579026   -235.93138      46.7237      46.7237      46.7237           90           90           90     102002.7    -979.7902 
  504000       503493   -6721.5524    570.16024   -7291.7127    4294.1297   -11585.842    109.30111   -359.37797   -698.31324   -837.27512   -128.73095   -60.082329    0.6119101      46.7237      46.7237      46.7237           90           90           90     102002.7   -631.65544 
  505000       504493   -6683.4007    600.73938   -7284.1401    4318.6359   -11602.776    115.16321   -1143.6936   -889.98421   -843.68376   -69.219101    90.176891    143.51302      46.7237      46.7237      46.7237           90           90           90     102002.7   -959.12053 
  506000       505493   -6730.1299    557.14736   -7287.2773    4297.9154   -11585.193    106.80651   -964.32396   -636.57858    -654.4413   -35.318875   -111.57637   -218.11291      46.7237      46.7237      46.7237           90           90           90     102002.7   -751.78128 
  507000       506493   -6667.9266    595.56829   -7263.4949    4330.2121   -11593.707     114.1719   -451.54229   -282.07757   -568.79457    -79.57578   -129.86719    326.54462      46.7237      46.7237      46.7237           90           90           90     102002.7   -434.13814 
  508000       507493   -6713.9343    578.06174    -7291.996    4301.8075   -11593.803    110.81585   -686.11303   -676.38343   -688.06075   -146.31536    194.09275   -298.64822      46.7237      46.7237      46.7237           90           90           90     102002.7   -683.51907 
  509000       508493   -6693.6781    575.00516   -7268.6833     4321.182   -11589.865    110.22989   -682.35501   -176.84507   -701.99513   -163.51057   -107.42077    87.933688      46.7237      46.7237      46.7237           90           90           90     102002.7    -520.3984 
  510000       509493   -6712.1575    581.24319   -7293.4007     4305.931   -11599.332    111.42574   -287.93276   -628.88488   -708.77357   -27.544357    191.40592   -93.697101      46.7237      46.7237      46.7237           90           90           90     102002.7   -541.86374 
  511000       510493   -6743.8394    541.34607   -7285.1855    4300.7208   -11585.906    103.77737   -909.36746   -440.47044   -646.97969   -94.251629    61.652794   -90.908315      46.7237      46.7237      46.7237           90           90           90     102002.7   -665.60586 
  512000       511493   -6701.0357    568.03844   -7269.0742    4330.9311   -11600.005    108.89436   -669.40245   -963.17755   -673.65641   -339.01093    136.19627   -12.528323      46.7237      46.7237      46.7237           90           90           90     102002.7   -768.74547 
  513000       512493   -6686.6571    583.14572   -7269.8028    4318.7012   -11588.504    111.79046   -567.49885    -851.1952   -998.07042   -67.879745   -175.15355    11.911867      46.7237      46.7237      46.7237           90           90           90     102002.7   -805.58816 
  514000       513493   -6715.1982    572.20265   -7287.4009     4297.125   -11584.526    109.69265   -845.03545   -620.19372   -852.20536   -210.25652     3.569752   -101.88124      46.7237      46.7237      46.7237           90           90           90     102002.7   -772.47818 
  515000       514493    -6681.227    585.18859   -7266.4156    4341.0649   -11607.481    112.18208   -699.24903   -1012.0294   -909.38509    -27.75611   -176.72045   -321.84512      46.7237      46.7237      46.7237           90           90           90     102002.7   -873.55451 
  516000       515493    -6704.256    582.24106    -7286.497    4295.5743   -11582.071    111.61704   -500.37663   -443.97663   -420.90382   -148.85363    101.81628    64.537709      46.7237      46.7237      46.7237           90           90           90     102002.7   -455.08569 
  517000       516493   -6719.2709    553.41602   -7272.6869    4306.4807   -11579.168     106.0912   -1274.9069   -532.33735   -1128.0465   -118.09373   -96.290895   -77.643736      46.7237      46.7237      46.7237           90           90           90     102002.7   -978.43024 
  518000       517493   -6686.9815    571.86831   -7258.8498     4330.224   -11589.074    109.62855   -694.28663   -722.23564   -641.86802    92.703018    122.59701   -284.39554      46.7237      46.7237      46.7237           90           90           90     102002.7    -686.1301 
  519000       518493   -6703.9923    560.08219   -7264.0745    4310.9911   -11575.066    107.36912   -225.85544   -637.98091   -665.29279   -51.193903    40.455307   -146.49813      46.7237      46.7237      46.7237           90           90           90     102002.7   -509.70971 
  520000       519493   -6693.2747    574.11954   -7267.3942    4319.3642   -11586.758    110.06012   -1070.0423   -903.04513   -1096.5563   -22.040555   -321.50079    162.23116      46.7237      46.7237      46.7237           90           90           90     102002.7   -1023.2146 
  521000       520493   -6715.2026    587.82256   -7303.0252    4277.1753     -11580.2    112.68702   -598.44749   -414.01298   -746.69015   -96.409158   -40.238405   -225.15214      46.7237      46.7237      46.7237           90           90           90     102002.7   -586.38354 
  522000       521493   -6706.5359    575.71483   -7282.2507    4299.7268   -11581.978    110.36594   -722.13004   -739.14545   -900.66846    47.570656    36.018123    72.159398      46.7237      46.7237      46.7237           90           90           90     102002.7   -787.31465 
  523000       522493   -6701.5995    590.32214   -7291.9216    4303.3842   -11595.306     113.1662   -641.79064   -593.16696   -740.00518    101.94935   -167.23026   -149.65368      46.7237      46.7237      46.7237           90           90           90     102002.7   -658.32092 
  524000       523493   -6729.7946    563.79634   -7293.5909    4295.2924   -11588.883    108.08114   -888.78413    -330.9003   -924.19879    52.782368    136.22677    36.543927      46.7237      46.7237      46.7237           90           90           90     102002.7   -714.62774 
  525000       524493   -6701.4489    574.87671   -7276.3256     4304.388   -11580.714    110.20527   -840.30615   -601.17496    -371.4783    7.3099691      226.884    67.643245      46.7237      46.7237      46.7237           90           90           90     102002.7    -604.3198 
  526000       525493    -6707.191    580.56756   -7287.7586    4315.0376   -11602.796    111.29622   -834.80522    -374.8266   -248.83369    34.733819    16.940447     150.4211      46.7237      46.7237      46.7237           90           90           90     102002.7   -486.15517 
  527000       526493   -6717.9955     572.6052   -7290.6007    4303.8744   -11594.475    109.76982    -828.6409   -314.21586    -787.6854    88.136189   -17.061052    268.91805      46.7237      46.7237      46.7237           90           90           90     102002.7   -643.51405 
  528000       527493   -6724.1761     576.9379    -7301.114    4305.0098   -11606.124    110.60041   -831.67717   -510.19465   -540.63472   -46.485987    110.36512   -98.816073      46.7237      46.7237      46.7237           90           90           90     102002.7   -627.50218 
  529000       528493   -6676.0799    577.04302   -7253.1229    4347.4579   -11600.581    110.62056   -838.31171   -892.53446   -1210.9079    159.59937    102.16835    93.930813      46.7237      46.7237      46.7237           90           90           90     102002.7    -980.5847 
  530000       529493   -6708.0653    575.64542   -7283.7107    4287.3983   -11571.109    110.35263   -1011.9182    -642.4564   -1117.0173   -43.107963   -38.119749   -19.639209      46.7237      46.7237      46.7237           90           90           90     102002.7   -923.79731 
  531000       530493   -6708.5447    588.30278   -7296.8475    4310.7428    -11607.59    112.77908   -1297.5973   -977.28963   -939.88534    165.37428   -245.51574   -297.99217      46.7237      46.7237      46.7237           90           90           90     102002.7   -1071.5907 
  532000       531493   -6727.9688    575.57381   -7303.5426    4291.7426   -11595.285    110.33891   -945.12175   -1177.7984   -1083.4363    82.978256    121.56228   -21.023436      46.7237      46.7237      46.7237           90           90           90     102002.7   -1068.7855 
  533000       532493   -6695.1795    576.16164   -7271.3411    4312.5304   -11583.872     110.4516   -1201.9118   -1020.7167   -926.69322    89.621613     92.45663   -33.361204      46.7237      46.7237      46.7237           90           90           90     102002.7   -1049.7739 
  534000       533493    -6721.542    573.21233   -7294.7543    4299.9819   -11594.736     109.8862   -1183.9953   -1004.3094   -1009.0578   -157.92702   -195.10518    191.61003      46.7237      46.7237      46.7237           90           90           90     102002.7   -1065.7875 
  535000       534493   -6691.0377    584.61119   -7275.6489    4311.1991   -11586.848    112.07139   -564.37248   -427.63499    -793.4539   -18.318357    104.43048    54.263007      46.7237      46.7237      46.7237           90           90           90     102002.7   -595.15379 
  536000       535493    -6705.674    583.06328   -7288.7373    4309.1941   -11597.931    111.77466   -853.32386    -429.1428   -782.60682   -101.97574    108.71297    104.67724      46.7237      46.7237      46.7237           90           90           90     102002.7   -688.35783 
  537000       536493   -6733.7626    552.56333   -7286.3259    4297.5718   -11583.898    105.92774   -694.19976   -741.19924   -503.36318    126.44478    264.42582   -88.164016      46.7237      46.7237      46.7237           90           90           90     102002.7   -646.25406 
  538000       537493   -6706.5853    581.20757   -7287.7928    4314.6591   -11602.452    111.41891   -624.37501   -765.34698   -945.05792    92.503663    293.73015    29.214442      46.7237      46.7237      46.7237           90           90           90     102002.7   -778.25997 
  539000       538493   -6716.4608    564.23461   -7280.6954    4289.8851    -11570.58    108.16515   -854.06322   -581.53879   -665.66388   -56.857355   -104.75781   -77.244903      46.7237      46.7237      46.7237           90           90           90     102002.7   -700.42196 
  540000       539493   -6702.2158    580.77979   -7282.9956     4332.397   -11615.393    111.33691    -1197.053    -713.1132   -891.49101     177.5253   -80.920073    105.62181      46.7237      46.7237      46.7237           90           90           90     102002.7   -933.88572 
  541000       540493    -6710.019    582.18383   -7292.2029     4290.487    -11582.69    111.60606   -539.88039   -493.33607   -479.35465    244.64855   -44.717246   -95.089175      46.7237      46.7237      46.7237           90           90           90     102002.7   -504.19037 
  542000       541493   -6691.2949    570.67322   -7261.9681     4327.655   -11589.623    109.39945   -450.70447   -296.60272   -527.03615    133.25078     124.7088    33.218067      46.7237      46.7237      46.7237           90           90           90     102002.7   -424.78111 
  543000       542493    -6730.862    560.31392   -7291.1759    4293.6167   -11584.793    107.41355   -581.46939   -566.74997   -432.65783    41.950702   -22.646925   -81.302074      46.7237      46.7237      46.7237           90           90           90     102002.7   -526.95906 
  544000       543493   -6698.1079    581.24851   -7279.3564     4331.882   -11611.238    111.42676   -970.94578   -777.12283   -594.01503    216.22497    8.8646702   -189.43235      46.7237      46.7237      46.7237           90           90           90     102002.7   -780.69455 
  545000       544493   -6740.6893    560.34811   -7301.0374    4307.4945   -11608.532     107.4201   -669.53984   -720.30187   -468.95299   -35.540151    80.259471      169.206      46.7237      46.7237      46.7237           90           90           90     102002.7   -619.59824 
  546000       545493   -6695.5212    581.96959   -7277.4908    4309.4231   -11586.914    111.56499   -1204.8574   -984.71633   -730.13758   -232.16853   -23.609333    67.250853      46.7237      46.7237      46.7237           90           90           90     102002.7    -973.2371 
  547000       546493   -6696.8528    584.44702   -7281.2999    4292.0484   -11573.348    112.03992   -720.47571   -538.53284   -1029.7706   -38.311737   -103.81209    160.42654      46.7237      46.7237      46.7237           90           90           90     102002.7   -762.92637 
  548000       547493    -6710.225    572.23115   -7282.4562    4326.3846   -11608.841    109.69811   -718.30367   -752.03598   -1046.2979    56.878347   -27.485239    152.79547      46.7237      46.7237      46.7237           90           90           90     102002.7   -838.87918 
  549000       548493   -6692.5408    588.35063   -7280.8914     4299.969    -11580.86    112.78825   -1086.4833   -742.69326   -876.27523   -189.05466   -19.526388    -179.1446      46.7237      46.7237      46.7237           90           90           90     102002.7   -901.81728 
  550000       549493   -6712.7685    581.18029   -7293.9487    4305.4809    -11599.43    111.41368   -478.66062    -605.4643   -868.18778   -338.65212   -117.71621    -51.58192      46.7237      46.7237      46.7237           90           90           90     102002.7    -650.7709 
  551000       550493   -6708.5302    576.25048   -7284.7807    4312.1695    -11596.95    110.46862   -753.14992   -856.75241   -421.05849    8.0659923    150.37927    199.63421      46.7237      46.7237      46.7237           90           90           90     102002.7   -676.98694 
  552000       551493   -6719.7743    569.40818   -7289.1825    4312.5353   -11601.718    109.15694   -836.56644   -1121.4522   -886.49759   -76.031263   -126.54335   -190.77928      46.7237      46.7237      46.7237           90           90           90     102002.7   -948.17207 
  553000       552493    -6703.546    582.53146   -7286.0774    4311.7547   -11597.832    111.67271   -520.41506   -103.98226   -644.29072   -251.97504   -197.69002    81.414266      46.7237      46.7237      46.7237           90           90           90     102002.7   -422.89601 
  554000       553493   -6717.0543    584.62929   -7301.6836    4286.1666    -11587.85    112.07486   -802.52924   -1020.7173   -1204.2194    157.28645   -31.801875    92.966276      46.7237      46.7237      46.7237           90           90           90     102002.7   -1009.1553 
  555000       554493   -6699.7146    580.67422   -7280.3888    4324.3335   -11604.722    111.31667    -744.2779   -117.95755   -692.34583   -15.577328    31.057209    130.54206      46.7237      46.7237      46.7237           90           90           90     102002.7   -518.19376 
[...]
  936000       935493   -6718.6717    583.51775   -7302.1894    4289.4523   -11591.642    111.86178   -747.94257   -478.27092    -470.1439   -86.120088    388.22197   -104.17063      46.7237      46.7237      46.7237           90           90           90     102002.7   -565.45247 
  937000       936493   -6711.5973    568.99487   -7280.5922    4298.1552   -11578.747    109.07771   -447.67371   -445.03278    -642.9065    245.44178   -220.39609   -333.80793      46.7237      46.7237      46.7237           90           90           90     102002.7     -511.871 
  938000       937493   -6720.4334    570.53164   -7290.9651    4293.3461   -11584.311    109.37231   -710.94902   -251.95153   -721.75916    215.27366   -206.93794    85.297742      46.7237      46.7237      46.7237           90           90           90     102002.7   -561.55324 
  939000       938493   -6690.1652    587.33631   -7277.5015    4308.8891   -11586.391    112.59381   -770.84142   -508.18351   -1083.4152    43.431667    204.54591    3.0353438      46.7237      46.7237      46.7237           90           90           90     102002.7   -787.48005 
  940000       939493   -6713.3111    581.55757   -7294.8687    4279.1036   -11573.972    111.48601   -859.59117   -545.11965   -649.83898    184.80497     19.22668    117.81599      46.7237      46.7237      46.7237           90           90           90     102002.7   -684.84993 
  941000       940493   -6726.0317    555.07753   -7281.1092     4302.397   -11583.506    106.40972   -798.66211   -829.93078   -971.63223    111.18963    101.30834   -26.845815      46.7237      46.7237      46.7237           90           90           90     102002.7   -866.74171 
  942000       941493   -6686.5768    594.82206   -7281.3988    4321.0548   -11602.454    114.02884    -512.0135    -720.0262   -900.93802   -8.9007227    4.2411026    236.02829      46.7237      46.7237      46.7237           90           90           90     102002.7   -710.99257 
  943000       942493   -6715.3093    566.86233   -7282.1716    4314.4442   -11596.616    108.66889   -1131.2631   -1212.5558   -464.34658     92.89753     74.24452   -246.87967      46.7237      46.7237      46.7237           90           90           90     102002.7   -936.05515 
  944000       943493   -6721.3698    563.50813   -7284.8779     4302.923   -11587.801    108.02589    -940.4255   -683.35208   -640.62711    228.67964    68.498681   -42.798686      46.7237      46.7237      46.7237           90           90           90     102002.7   -754.80157 
  945000       944493   -6721.3592     573.2307   -7294.5899    4307.8743   -11602.464    109.88973   -485.05616   -445.52497   -989.52238   -74.141222   -91.939634    79.634591      46.7237      46.7237      46.7237           90           90           90     102002.7    -640.0345 
  946000       945493   -6703.2163    565.66335   -7268.8797    4321.2134   -11590.093    108.43905   -539.90762    -818.7278   -533.82943    150.27115     43.73741    185.56401      46.7237      46.7237      46.7237           90           90           90     102002.7   -630.82162 
  947000       946493    -6722.938    576.66888   -7299.6069    4295.9788   -11595.586    110.54883   -963.02032   -980.05171   -650.02567     153.2055   -22.126407   -210.43067      46.7237      46.7237      46.7237           90           90           90     102002.7    -864.3659 
  948000       947493   -6711.9514    558.42803   -7270.3794    4316.3031   -11586.682    107.05202   -725.62674     -909.472   -685.68898    300.90413   -111.25164   -9.4459934      46.7237      46.7237      46.7237           90           90           90     102002.7   -773.59591 
  949000       948493   -6735.5577     554.3892   -7289.9469    4301.6325   -11591.579    106.27776   -606.65113   -732.95574   -690.90474    82.647551    -259.9285    85.648478      46.7237      46.7237      46.7237           90           90           90     102002.7    -676.8372 
  950000       949493    -6708.155    580.57609   -7288.7311    4302.5841   -11591.315    111.29785   -572.49358   -801.02372   -765.51922    214.84764   -60.446426    -106.4841      46.7237      46.7237      46.7237           90           90           90     102002.7   -713.01217 
  951000       950493   -6739.0008    574.68646   -7313.6873    4278.0474   -11591.735     110.1688   -707.73159   -316.25614   -627.69364   -20.194424    -229.5722   -78.160746      46.7237      46.7237      46.7237           90           90           90     102002.7   -550.56046 
  952000       951493   -6715.0314    563.54862     -7278.58    4337.3766   -11615.957    108.03365   -811.55909   -1016.3057      -922.92   -131.61718   -31.507468   -170.19471      46.7237      46.7237      46.7237           90           90           90     102002.7   -916.92825 
  953000       952493   -6696.3584     577.9052   -7274.2636    4302.8399   -11577.103    110.78584   -782.42634   -731.83079   -929.15768    156.68547   -198.29025    204.10622      46.7237      46.7237      46.7237           90           90           90     102002.7    -814.4716 
  954000       953493   -6737.7919    558.77216   -7296.5641    4299.1899   -11595.754    107.11799   -574.86947   -794.62632     -461.223    138.11714    128.66568    176.27475      46.7237      46.7237      46.7237           90           90           90     102002.7    -610.2396 
  955000       954493   -6726.5054    565.24136   -7291.7467    4298.8095   -11590.556    108.35815   -1131.0056    -1026.177    -584.6247    -18.09857   -201.27052    -192.0674      46.7237      46.7237      46.7237           90           90           90     102002.7   -913.93577 
  956000       955493   -6706.2152    578.92438   -7285.1396    4299.5509   -11584.691    110.98122   -720.58826   -672.53138   -553.14848   -1.1595396   -165.71764   -85.054431      46.7237      46.7237      46.7237           90           90           90     102002.7   -648.75604 
  957000       956493   -6714.2321    569.04205   -7283.2742    4321.1704   -11604.445    109.08675   -383.47812   -610.39036   -778.94646    330.17394    255.43582   -74.835791      46.7237      46.7237      46.7237           90           90           90     102002.7   -590.93831 
  958000       957493   -6711.1926     570.1445   -7281.3371    4307.3314   -11588.669    109.29809   -626.73782    -679.3547   -626.34962    109.81861    182.67898   -187.18768      46.7237      46.7237      46.7237           90           90           90     102002.7   -644.14738 
  959000       958493   -6683.6394    593.54291   -7277.1824    4303.4684   -11580.651    113.78363   -1219.6453   -755.26004   -834.03457    104.14432    219.88206   -113.58973      46.7237      46.7237      46.7237           90           90           90     102002.7    -936.3133 
  960000       959493   -6719.7942    563.62879    -7283.423    4327.6566    -11611.08    108.04902   -1142.6287   -912.58981   -1018.1873   -8.0808841    138.68383   -40.327514      46.7237      46.7237      46.7237           90           90           90     102002.7   -1024.4686 
  961000       960493   -6720.6661     565.6392   -7286.3053     4296.996   -11583.301    108.43442   -954.10187   -340.93221   -982.62946    149.42013    127.09434   -237.60104      46.7237      46.7237      46.7237           90           90           90     102002.7   -759.22118 
  962000       961493   -6693.4575    574.83016   -7268.2876     4332.332    -11600.62    110.19635   -1037.9208   -818.81165   -964.11444    172.06468    8.6042491   -172.61131      46.7237      46.7237      46.7237           90           90           90     102002.7   -940.28229 
  963000       962493   -6684.0938    579.68414   -7263.7779    4322.0784   -11585.856    111.12687     -895.785   -923.69217   -797.96239    83.030678    188.47988   -15.340891      46.7237      46.7237      46.7237           90           90           90     102002.7   -872.47985 
  964000       963493   -6719.8055    573.27753    -7293.083    4294.5309   -11587.614     109.8987   -1022.7272   -612.36618   -693.33871   -41.607105    -174.5236   -110.58843      46.7237      46.7237      46.7237           90           90           90     102002.7   -776.14402 
  965000       964493   -6736.2595    560.05906   -7296.3185    4288.2509   -11584.569    107.36469   -428.35245   -601.46341   -1065.7877    209.64275    44.824354    33.447032      46.7237      46.7237      46.7237           90           90           90     102002.7   -698.53452 
  966000       965493   -6723.9034    572.49811   -7296.4015    4306.2433   -11602.645    109.74929   -886.68036   -1372.3617   -1121.4291   -4.4741119    22.063628   -235.88446      46.7237      46.7237      46.7237           90           90           90     102002.7   -1126.8237 
  967000       966493   -6720.2547    566.05314   -7286.3079    4308.8315   -11595.139    108.51377   -885.07953   -841.83733   -945.38745   -32.003233   -60.701885   -161.16778      46.7237      46.7237      46.7237           90           90           90     102002.7    -890.7681 
  968000       967493   -6697.7848     588.7233   -7286.5081    4300.0804   -11586.589    112.85969   -816.17316   -1074.7104   -783.69787    48.197709    50.074595    350.07859      46.7237      46.7237      46.7237           90           90           90     102002.7   -891.52714 
  969000       968493   -6733.3687    570.17331    -7303.542    4279.8625   -11583.405    109.30362   -531.11043   -885.36477   -580.95551   -61.304628   -93.497034    251.71692      46.7237      46.7237      46.7237           90           90           90     102002.7   -665.81023 
  970000       969493   -6721.8362    570.03166   -7291.8678    4309.9877   -11601.856    109.27646    -418.6628   -710.96349   -578.36678   -28.856799   -207.21151    83.768299      46.7237      46.7237      46.7237           90           90           90     102002.7   -569.33103 
  971000       970493   -6704.8595    573.02561   -7277.8851    4308.3699   -11586.255    109.85041   -844.24707   -663.52121   -1112.5001   -5.9457467   -30.959331    258.44416      46.7237      46.7237      46.7237           90           90           90     102002.7   -873.42278 
  972000       971493   -6727.9588    558.43527    -7286.394    4319.3258    -11605.72    107.05341   -576.96887    -993.9743   -853.36031   -233.56461   -89.180365    95.979022      46.7237      46.7237      46.7237           90           90           90     102002.7   -808.10116 
  973000       972493    -6741.068    569.66262   -7310.7306    4288.4862   -11599.217    109.20572   -913.21352   -513.78917   -1202.6853     142.1791   -13.973823   -44.504538      46.7237      46.7237      46.7237           90           90           90     102002.7   -876.56266 
  974000       973493   -6700.1745    578.25504   -7278.4295    4321.3951   -11599.825     110.8529   -620.19088   -1071.4169   -797.27781    212.76059    24.358499   -181.78318      46.7237      46.7237      46.7237           90           90           90     102002.7   -829.62852 
  975000       974493   -6691.5388    580.38142   -7271.9202    4328.0984   -11600.019    111.26054   -823.04391    -812.2161   -960.39559   -191.46526    119.26351   -115.50553      46.7237      46.7237      46.7237           90           90           90     102002.7   -865.21854 
  976000       975493    -6707.191    569.08673   -7276.2778    4299.0952   -11575.373    109.09532   -851.57679   -865.93742   -540.31978   -29.095413   -39.392583   -19.364558      46.7237      46.7237      46.7237           90           90           90     102002.7   -752.61133 
  977000       976493     -6734.12    548.36072   -7282.4807    4315.0617   -11597.542    105.12209    -544.0733   -643.38272   -490.49987   -37.436346    135.77159    19.252741      46.7237      46.7237      46.7237           90           90           90     102002.7   -559.31863 
  978000       977493   -6712.1547    578.04935   -7290.2041    4300.4275   -11590.632    110.81347   -847.49763    -851.8164   -445.16752   -61.806644   -24.809773   -1.3763727      46.7237      46.7237      46.7237           90           90           90     102002.7   -714.82718 
  979000       978493   -6730.3198    571.94784   -7302.2677    4286.5011   -11588.769     109.6438   -899.81256    -569.9943   -668.30064    116.16999     108.6034    -130.4422      46.7237      46.7237      46.7237           90           90           90     102002.7    -712.7025 
  980000       979493   -6704.3103    584.01392   -7288.3242      4319.05   -11607.374    111.95689   -1153.4138   -1252.1255   -964.90553   -252.97048   -146.08895   -21.983417      46.7237      46.7237      46.7237           90           90           90     102002.7   -1123.4816 
  981000       980493   -6718.5457    570.13678   -7288.6824    4305.4361   -11594.119    109.29661   -735.20976   -449.50262    -1140.811   -101.77236   -55.512599    252.54828      46.7237      46.7237      46.7237           90           90           90     102002.7   -775.17447 
  982000       981493   -6709.1084    585.30955    -7294.418     4302.667   -11597.085    112.20527   -752.20148   -352.44284   -391.84311   -76.892588   -195.88428    1.6736294      46.7237      46.7237      46.7237           90           90           90     102002.7   -498.82914 
  983000       982493   -6714.3012      563.786   -7278.0872    4318.1058   -11596.193    108.07915   -321.98195   -925.64511   -779.54641   -135.52516   -173.68451   -141.62329      46.7237      46.7237      46.7237           90           90           90     102002.7   -675.72449 
  984000       983493   -6707.3147    575.75968   -7283.0743    4302.7098   -11585.784    110.37454   -333.64887   -317.87539   -357.24066   -235.56408   -24.403786    41.631789      46.7237      46.7237      46.7237           90           90           90     102002.7   -336.25497 
  985000       984493   -6715.1728    572.81813   -7287.9909     4300.573   -11588.564    109.81064   -597.25866   -597.63105   -555.21997   -71.501295    27.820023   -18.369881      46.7237      46.7237      46.7237           90           90           90     102002.7   -583.36989 
  986000       985493   -6667.5983    581.05656   -7248.6548    4347.2967   -11595.952    111.38996   -579.03842   -861.87789   -796.05205   -56.344329    8.8234131    21.004565      46.7237      46.7237      46.7237           90           90           90     102002.7   -745.65612 
  987000       986493   -6713.2094    579.52321   -7292.7326    4304.3486   -11597.081    111.09602   -951.74456   -731.39236   -658.03864   -147.73905   -259.25883   -127.41827      46.7237      46.7237      46.7237           90           90           90     102002.7   -780.39185 
  988000       987493   -6690.7799     579.0903   -7269.8702    4325.0553   -11594.925    111.01303   -670.62509   -477.72348   -646.31133    106.94422    101.34153   -8.4867987      46.7237      46.7237      46.7237           90           90           90     102002.7   -598.21997 
  989000       988493   -6710.6775    580.03536   -7290.7129    4292.9209   -11583.634     111.1942    -416.3836   -402.20052   -364.37354   -69.391807    138.99066   -98.241374      46.7237      46.7237      46.7237           90           90           90     102002.7   -394.31922 
  990000       989493   -6695.9305    589.28239   -7285.2129    4306.5505   -11591.763    112.96687   -1081.1433   -790.15356   -1228.8442    64.045273   -411.44431   -213.93294      46.7237      46.7237      46.7237           90           90           90     102002.7   -1033.3803 
  991000       990493   -6734.5564    556.32026   -7290.8767    4292.6493   -11583.526    106.64795   -582.87523   -619.88039   -333.88168   -118.15826    129.33377    2.5555979      46.7237      46.7237      46.7237           90           90           90     102002.7   -512.21243 
  992000       991493   -6701.3695    583.62898   -7284.9985    4299.1224   -11584.121     111.8831   -663.85993   -849.46603   -339.28939   -45.871594    231.72271    32.499294      46.7237      46.7237      46.7237           90           90           90     102002.7   -617.53845 
  993000       992493   -6725.1119    558.43834   -7283.5503    4310.0282   -11593.578    107.05399   -1047.2984   -372.87425   -532.44096   -134.39769   -7.3789908    251.49692      46.7237      46.7237      46.7237           90           90           90     102002.7   -650.87121 
  994000       993493   -6726.4231    564.56275   -7290.9859    4301.3382   -11592.324    108.22806   -642.22915   -705.27509   -367.32655    120.44434     -94.2881    61.842644      46.7237      46.7237      46.7237           90           90           90     102002.7   -571.61026 
  995000       994493   -6710.9492    571.77752   -7282.7267    4303.8165   -11586.543    109.61115   -155.06268   -243.59223   -348.34757   -149.13749    194.79949    -90.26974      46.7237      46.7237      46.7237           90           90           90     102002.7   -249.00083 
  996000       995493   -6672.4852    594.71436   -7267.1995    4332.3746   -11599.574     114.0082   -684.18456   -277.35943   -93.632235    200.75901   -96.201368   -12.182119      46.7237      46.7237      46.7237           90           90           90     102002.7   -351.72541 
  997000       996493   -6718.5866    582.72061   -7301.3072    4288.2311   -11589.538    111.70897   -495.90286   -470.94293   -331.46492   -54.058386   -129.45651    78.290183      46.7237      46.7237      46.7237           90           90           90     102002.7   -432.77023 
  998000       997493   -6696.9604    576.62153    -7273.582    4325.5487   -11599.131    110.53976   -316.18788   -138.63662   -635.33517   -46.623755    88.865026   -339.67741      46.7237      46.7237      46.7237           90           90           90     102002.7   -363.38656 
  999000       998493   -6710.5263    563.34425   -7273.8706     4300.315   -11574.186    107.99447   -502.80646   -202.90601   -421.75279   -221.33508    188.79777    37.511404      46.7237      46.7237      46.7237           90           90           90     102002.7   -375.82175 
 1000000       999493   -6736.4181    561.92596   -7298.3441    4299.1687   -11597.513    107.72258   -832.64975   -568.68032   -910.53481   -211.34292    87.237076   -105.99555      46.7237      46.7237      46.7237           90           90           90     102002.7   -770.62163 
 1000507      1000000   -6714.0253    584.99628   -7299.0215    4292.5842   -11591.606    112.14522    -456.2014    -656.9025   -353.18614   -114.32229   -61.467825    138.82823      46.7237      46.7237      46.7237           90           90           90     102002.7   -488.76335 
Loop time of 630.75 on 24 procs for 500000 steps with 1751 atoms

Performance: 68.490 ns/day, 0.350 hours/ns, 792.707 timesteps/s
99.9% CPU use with 24 MPI tasks x no OpenMP threads

MPI task timing breakdown:
Section |  min time  |  avg time  |  max time  |%varavg| %total
---------------------------------------------------------------
Pair    | 218.87     | 305.17     | 403.28     | 360.7 | 48.38
Bond    | 67.684     | 82.725     | 96.543     |  87.4 | 13.12
Neigh   | 1.9019     | 1.9245     | 1.9407     |   1.0 |  0.31
Comm    | 115.38     | 225.54     | 317.06     | 449.5 | 35.76
Output  | 0.36193    | 0.42216    | 0.42489    |   1.9 |  0.07
Modify  | 11.456     | 11.985     | 12.281     |   6.3 |  1.90
Other   |            | 2.987      |            |       |  0.47

Nlocal:    72.9583 ave 103 max 49 min
Histogram: 2 1 5 1 5 5 3 0 1 1
Nghost:    1997.33 ave 2167 max 1890 min
Histogram: 8 8 0 0 0 0 0 0 0 8
Neighs:    7639.25 ave 13361 max 3421 min
Histogram: 1 3 3 5 4 3 2 1 1 1

Total # of neighbors = 183342
Ave neighs/atom = 104.707
Ave special neighs/atom = 6.5791
Neighbor list builds = 3509
Dangerous builds = 0
Total wall time: 0:19:58
