LAMMPS (30 Mar 2018)
Reading data file ...
  orthogonal box = (0 0 0) to (46.7237 46.7237 46.7237)
  2 by 2 by 4 MPI processor grid
  reading atoms ...
  1733 atoms
  scanning bonds ...
  5 = max bonds/atom
  scanning angles ...
  10 = max angles/atom
  scanning dihedrals ...
  32 = max dihedrals/atom
  scanning impropers ...
  3 = max impropers/atom
  reading bonds ...
  2064 bonds
  reading angles ...
  3696 angles
  reading dihedrals ...
  6240 dihedrals
  reading impropers ...
  1008 impropers
Finding 1-2 1-3 1-4 neighbors ...
  special bond factors lj:   0          0          0         
  special bond factors coul: 0          0          0         
  5 = max # of 1-2 neighbors
  8 = max # of 1-3 neighbors
  20 = max # of 1-4 neighbors
  19 = max # of special neighbors
Finding 1-2 1-3 1-4 neighbors ...
  special bond factors lj:   0          0          1         
  special bond factors coul: 1          1          1         
  5 = max # of 1-2 neighbors
  8 = max # of 1-3 neighbors
  19 = max # of special neighbors
WARNING: Using 'neigh_modify every 1 delay 0 check yes' setting during minimization (../min.cpp:168)
Neighbor list info ...
  update every 1 steps, delay 0 steps, check yes
  max neighbors/atom: 2000, page size: 100000
  master list distance cutoff = 16
  ghost atom cutoff = 16
  binsize = 8, bins = 6 6 6
  3 neighbor lists, perpetual/occasional/extra = 3 0 0
  (1) pair buck6d/coul/gauss/dsf, perpetual, skip from (3)
      attributes: half, newton on
      pair build: skip
      stencil: none
      bin: none
  (2) pair lj/cut, perpetual, skip from (3)
      attributes: half, newton on
      pair build: skip
      stencil: none
      bin: none
  (3) neighbor class addition, perpetual
      attributes: half, newton on
      pair build: half/bin/newton
      stencil: half/bin/3d/newton
      bin: standard
Setting up cg style minimization ...
  Unit style    : real
  Current step  : 0
WARNING: Inconsistent image flags (../domain.cpp:786)
Per MPI rank memory allocation (min/avg/max) = 22.89 | 23.35 | 23.79 Mbytes
Step Temp E_pair E_mol TotEng Press 
       0            0   -11526.863    6482.8914   -5043.9711    6285.5903 
     505            0   -11551.052    3739.5164   -7811.5352   -479.80729 
Loop time of 4.18309 on 16 procs for 505 steps with 1733 atoms

99.9% CPU use with 16 MPI tasks x no OpenMP threads

Minimization stats:
  Stopping criterion = max force evaluations
  Energy initial, next-to-last, final = 
         -5043.9711086     -7811.47774686     -7811.53521673
  Force two-norm initial, final = 2576.98 11.449
  Force max component initial, final = 152.036 1.58226
  Final line search alpha, max atom move = 0.00755207 0.0119493
  Iterations, force evaluations = 505 1000

MPI task timing breakdown:
Section |  min time  |  avg time  |  max time  |%varavg| %total
---------------------------------------------------------------
Pair    | 1.244      | 1.7545     | 3.0151     |  33.5 | 41.94
Bond    | 0.3022     | 0.37964    | 0.54399    |   9.6 |  9.08
Neigh   | 0.027167   | 0.027507   | 0.027671   |   0.1 |  0.66
Comm    | 0.6473     | 1.9779     | 2.479      |  33.9 | 47.28
Output  | 0          | 0          | 0          |   0.0 |  0.00
Modify  | 0          | 0          | 0          |   0.0 |  0.00
Other   |            | 0.0436     |            |       |  1.04

Nlocal:    108.312 ave 125 max 99 min
Histogram: 2 2 3 2 4 2 0 0 0 1
Nghost:    2187.81 ave 2197 max 2170 min
Histogram: 1 0 0 0 2 3 3 1 4 2
Neighs:    11445.5 ave 15958 max 7068 min
Histogram: 1 0 5 1 1 0 4 2 1 1

Total # of neighbors = 183128
Ave neighs/atom = 105.671
Ave special neighs/atom = 6.64743
Neighbor list builds = 16
Dangerous builds = 0
Neighbor list info ...
  update every 1 steps, delay 10 steps, check yes
  max neighbors/atom: 2000, page size: 100000
  master list distance cutoff = 16
  ghost atom cutoff = 16
  binsize = 8, bins = 6 6 6
  3 neighbor lists, perpetual/occasional/extra = 3 0 0
  (1) pair buck6d/coul/gauss/dsf, perpetual, skip from (3)
      attributes: half, newton on
      pair build: skip
      stencil: none
      bin: none
  (2) pair lj/cut, perpetual, skip from (3)
      attributes: half, newton on
      pair build: skip
      stencil: none
      bin: none
  (3) neighbor class addition, perpetual
      attributes: half, newton on
      pair build: half/bin/newton
      stencil: half/bin/3d/newton
      bin: standard
Setting up Verlet run ...
  Unit style    : real
  Current step  : 505
  Time step     : 1
WARNING: Inconsistent image flags (../domain.cpp:786)
Per MPI rank memory allocation (min/avg/max) = 22.54 | 22.62 | 22.86 Mbytes
Step Temp PotEng TotEng Press Volume Lx Ly Lz 
     505           91   -7811.5352   -7341.7238   -269.26238     102002.7      46.7237      46.7237      46.7237 
    1000    81.245238   -7399.8135   -6980.3636   -848.97935     102002.7      46.7237      46.7237      46.7237 
    2000    90.372405   -7318.5264   -6851.9551   -555.01553     102002.7      46.7237      46.7237      46.7237 
    3000    88.635647   -7333.4939    -6875.889   -1018.3149     102002.7      46.7237      46.7237      46.7237 
    4000     90.05773   -7332.9389   -6867.9921   -436.72664     102002.7      46.7237      46.7237      46.7237 
    5000    93.510418   -7342.0229   -6859.2508   -852.07612     102002.7      46.7237      46.7237      46.7237 
    6000    90.851393   -7361.1951   -6892.1509   -722.14486     102002.7      46.7237      46.7237      46.7237 
    7000    92.954644   -7323.3479   -6843.4451   -361.16235     102002.7      46.7237      46.7237      46.7237 
    8000    89.684676   -7339.8163   -6876.7956   -938.72973     102002.7      46.7237      46.7237      46.7237 
    9000    88.563236   -7348.6758   -6891.4448   -251.73316     102002.7      46.7237      46.7237      46.7237 
   10000    93.705953   -7345.7961   -6862.0144   -575.77666     102002.7      46.7237      46.7237      46.7237 
   11000    91.703061   -7333.0306   -6859.5894   -670.13129     102002.7      46.7237      46.7237      46.7237 
   12000    88.485879   -7340.1752   -6883.3435   -598.56417     102002.7      46.7237      46.7237      46.7237 
   13000     89.60635   -7334.5121   -6871.8958   -590.32328     102002.7      46.7237      46.7237      46.7237 
   14000    91.556959   -7334.3625   -6861.6756   -450.47934     102002.7      46.7237      46.7237      46.7237 
   15000    89.712836   -7340.2993   -6877.1332   -469.91223     102002.7      46.7237      46.7237      46.7237 
   16000     92.43937   -7336.2458   -6859.0033   -646.78072     102002.7      46.7237      46.7237      46.7237 
   17000    92.977491   -7353.0367    -6873.016   -628.91517     102002.7      46.7237      46.7237      46.7237 
   18000    90.252523   -7321.6379   -6855.6855   -705.86622     102002.7      46.7237      46.7237      46.7237 
   19000    92.715562   -7335.6336   -6856.9652   -705.46397     102002.7      46.7237      46.7237      46.7237 
   20000    90.853063   -7345.2231   -6876.1702   -669.49725     102002.7      46.7237      46.7237      46.7237 
   21000    92.278288   -7364.0752   -6887.6642    -599.8647     102002.7      46.7237      46.7237      46.7237 
   22000    89.993171   -7340.0983   -6875.4849    -834.4863     102002.7      46.7237      46.7237      46.7237 
   23000    93.623434   -7329.7947   -6846.4391   -436.35601     102002.7      46.7237      46.7237      46.7237 
   24000    91.078082   -7335.7843   -6865.5697   -560.36435     102002.7      46.7237      46.7237      46.7237 
   25000    91.828156   -7344.0711   -6869.9841   -755.99337     102002.7      46.7237      46.7237      46.7237 
   26000    90.594087      -7325.8   -6858.0842   -710.16627     102002.7      46.7237      46.7237      46.7237 
   27000    91.185907     -7311.34   -6840.5687   -913.88758     102002.7      46.7237      46.7237      46.7237 
   28000    90.247933    -7343.363   -6877.4343   -688.80171     102002.7      46.7237      46.7237      46.7237 
   29000    93.436505   -7333.6958   -6851.3053   -848.58971     102002.7      46.7237      46.7237      46.7237 
   30000    92.049158   -7342.4416   -6867.2136   -737.06847     102002.7      46.7237      46.7237      46.7237 
   31000    88.841771   -7333.7504   -6875.0814   -756.47097     102002.7      46.7237      46.7237      46.7237 
   32000    93.728412   -7326.8103   -6842.9127   -494.89116     102002.7      46.7237      46.7237      46.7237 
   33000    91.273667   -7340.6569   -6869.4326   -1106.4502     102002.7      46.7237      46.7237      46.7237 
   34000    89.159619   -7350.3254   -6890.0154   -712.64274     102002.7      46.7237      46.7237      46.7237 
   35000    91.772073   -7340.0319   -6866.2344   -708.47534     102002.7      46.7237      46.7237      46.7237 
   36000    91.875725   -7324.2043   -6849.8718   -612.61894     102002.7      46.7237      46.7237      46.7237 
   37000    91.748882   -7351.6427   -6877.9649   -636.60079     102002.7      46.7237      46.7237      46.7237 
   38000    94.819715   -7326.3656   -6836.8339   -630.61732     102002.7      46.7237      46.7237      46.7237 
   39000    91.499754   -7340.5053   -6868.1138   -547.87885     102002.7      46.7237      46.7237      46.7237 
   40000    88.867524   -7340.1762   -6881.3742   -902.94066     102002.7      46.7237      46.7237      46.7237 
   41000    90.557923   -7334.0748   -6866.5457    -746.9084     102002.7      46.7237      46.7237      46.7237 
   42000    89.929926   -7352.0885   -6887.8016   -541.24207     102002.7      46.7237      46.7237      46.7237 
   43000     91.28553   -7347.4663   -6876.1808   -507.83763     102002.7      46.7237      46.7237      46.7237 
   44000     94.97482   -7322.7121   -6832.3796   -600.47942     102002.7      46.7237      46.7237      46.7237 
   45000     91.69291   -7341.5331   -6868.1444   -794.00909     102002.7      46.7237      46.7237      46.7237 
   46000    91.275543   -7323.1554   -6851.9214   -713.92218     102002.7      46.7237      46.7237      46.7237 
   47000    91.759371   -7361.2702   -6887.5384   -696.97947     102002.7      46.7237      46.7237      46.7237 
   48000    90.728794    -7324.495   -6856.0837     -846.734     102002.7      46.7237      46.7237      46.7237 
   49000    94.354109   -7333.3244   -6846.1965   -637.03046     102002.7      46.7237      46.7237      46.7237 
   50000    91.698017   -7337.1244   -6863.7093   -733.81202     102002.7      46.7237      46.7237      46.7237 
   51000    86.069248   -7354.1372   -6909.7821   -648.21346     102002.7      46.7237      46.7237      46.7237 
   52000    92.555066   -7337.3217   -6859.4818    -968.7307     102002.7      46.7237      46.7237      46.7237 
   53000    91.738042   -7353.5088   -6879.8871   -537.28791     102002.7      46.7237      46.7237      46.7237 
   54000    93.470348   -7321.9045   -6839.3393   -853.92339     102002.7      46.7237      46.7237      46.7237 
   55000    91.212033   -7345.2973   -6874.3912     -823.952     102002.7      46.7237      46.7237      46.7237 
   56000    92.977553    -7314.794   -6834.7729   -662.63406     102002.7      46.7237      46.7237      46.7237 
   57000    90.452913   -7339.2064   -6872.2195   -844.65556     102002.7      46.7237      46.7237      46.7237 
   58000    94.060291   -7328.6662   -6843.0552   -855.39199     102002.7      46.7237      46.7237      46.7237 
   59000    90.663965   -7353.5239   -6885.4474   -834.92013     102002.7      46.7237      46.7237      46.7237 
   60000    90.287225   -7330.2187   -6864.0871    -675.6659     102002.7      46.7237      46.7237      46.7237 
   61000    91.258572   -7331.2016   -6860.0552   -646.98592     102002.7      46.7237      46.7237      46.7237 
   62000    87.383387   -7324.9187    -6873.779   -682.31197     102002.7      46.7237      46.7237      46.7237 
   63000    90.838711    -7320.925   -6851.9462   -593.60433     102002.7      46.7237      46.7237      46.7237 
   64000    88.763583   -7325.5044    -6867.239   -554.02233     102002.7      46.7237      46.7237      46.7237 
   65000    90.556716   -7336.7311   -6869.2083   -533.66094     102002.7      46.7237      46.7237      46.7237 
   66000    90.422745   -7338.2722    -6871.441   -792.28616     102002.7      46.7237      46.7237      46.7237 
   67000    89.176207   -7327.9588   -6867.5631   -758.78079     102002.7      46.7237      46.7237      46.7237 
   68000    89.902107    -7345.789   -6881.6457   -643.46618     102002.7      46.7237      46.7237      46.7237 
   69000    90.207044   -7314.9054   -6849.1879    -554.1235     102002.7      46.7237      46.7237      46.7237 
   70000    90.953907   -7340.3973   -6870.8239   -654.11701     102002.7      46.7237      46.7237      46.7237 
   71000    90.325367   -7327.6657   -6861.3372    -870.6737     102002.7      46.7237      46.7237      46.7237 
   72000    91.156096   -7351.6871   -6881.0698   -772.06986     102002.7      46.7237      46.7237      46.7237 
   73000    92.430309   -7341.2518    -6864.056   -814.21909     102002.7      46.7237      46.7237      46.7237 
   74000     90.80558   -7340.7607    -6871.953   -755.23811     102002.7      46.7237      46.7237      46.7237 
   75000    90.094136   -7334.3197    -6869.185   -663.33031     102002.7      46.7237      46.7237      46.7237 
   76000    92.415075   -7323.5609   -6846.4438   -745.57431     102002.7      46.7237      46.7237      46.7237 
   77000    92.264012   -7328.4219   -6852.0846   -587.27907     102002.7      46.7237      46.7237      46.7237 
   78000    88.826794   -7344.9539   -6886.3622   -700.78615     102002.7      46.7237      46.7237      46.7237 
   79000    91.578519   -7339.0953   -6866.2971   -685.13365     102002.7      46.7237      46.7237      46.7237 
   80000    88.549217   -7338.1107   -6880.9521   -932.94424     102002.7      46.7237      46.7237      46.7237 
   81000    90.739129   -7337.5263   -6869.0617   -742.27933     102002.7      46.7237      46.7237      46.7237 
   82000    94.945598   -7333.3365   -6843.1549   -462.98198     102002.7      46.7237      46.7237      46.7237 
   83000    91.717915   -7328.6625   -6855.1446    -656.2395     102002.7      46.7237      46.7237      46.7237 
   84000    89.545038   -7341.1466   -6878.8468    -561.4203     102002.7      46.7237      46.7237      46.7237 
   85000    90.541715   -7340.2119   -6872.7664   -468.01198     102002.7      46.7237      46.7237      46.7237 
   86000    92.541209   -7338.3124    -6860.544   -594.12322     102002.7      46.7237      46.7237      46.7237 
   87000    90.888085   -7343.5097    -6874.276   -404.72463     102002.7      46.7237      46.7237      46.7237 
   88000    86.072739   -7335.4667   -6891.0935    -441.6568     102002.7      46.7237      46.7237      46.7237 
   89000    91.104227   -7330.4625    -6860.113   -508.64525     102002.7      46.7237      46.7237      46.7237 
   90000    93.031348   -7348.6838    -6868.385   -835.03726     102002.7      46.7237      46.7237      46.7237 
   91000    88.807741   -7339.1462   -6880.6529   -752.22342     102002.7      46.7237      46.7237      46.7237 
   92000    89.746531   -7348.9243   -6885.5842   -626.21702     102002.7      46.7237      46.7237      46.7237 
   93000    91.765541   -7338.8431   -6865.0794   -615.52884     102002.7      46.7237      46.7237      46.7237 
   94000    92.155016   -7357.4985    -6881.724   -613.35408     102002.7      46.7237      46.7237      46.7237 
   95000    93.548954    -7339.721   -6856.7499   -893.40164     102002.7      46.7237      46.7237      46.7237 
   96000     91.94029   -7316.5569   -6841.8909   -928.88562     102002.7      46.7237      46.7237      46.7237 
   97000    89.456391   -7331.1503   -6869.3081   -646.36209     102002.7      46.7237      46.7237      46.7237 
   98000    93.273188   -7324.7428   -6843.1955    -811.9404     102002.7      46.7237      46.7237      46.7237 
   99000    89.756624   -7324.2238   -6860.8317   -757.63295     102002.7      46.7237      46.7237      46.7237 
  100000    88.435756    -7349.724   -6893.1512   -913.28536     102002.7      46.7237      46.7237      46.7237 
  101000    89.859988   -7326.5388    -6862.613   -865.36898     102002.7      46.7237      46.7237      46.7237 
  102000    90.639448   -7352.3991   -6884.4491   -704.46212     102002.7      46.7237      46.7237      46.7237 
  103000    88.514343    -7329.233   -6872.2545   -902.84821     102002.7      46.7237      46.7237      46.7237 
  104000     91.17248    -7335.258   -6864.5561   -809.06728     102002.7      46.7237      46.7237      46.7237 
  105000    86.073633   -7336.7341   -6892.3563    -924.0325     102002.7      46.7237      46.7237      46.7237 
  106000    90.777085   -7333.6172   -6864.9566   -849.00337     102002.7      46.7237      46.7237      46.7237 
  107000    90.093765   -7335.4845   -6870.3518    -757.6521     102002.7      46.7237      46.7237      46.7237 
  108000    91.311689   -7354.7577   -6883.3371   -687.46167     102002.7      46.7237      46.7237      46.7237 
  109000    89.593906   -7335.1693   -6872.6172   -957.82052     102002.7      46.7237      46.7237      46.7237 
  110000    89.485597   -7337.6088   -6875.6158   -509.87704     102002.7      46.7237      46.7237      46.7237 
  111000    91.127107   -7346.9599   -6876.4922   -671.85066     102002.7      46.7237      46.7237      46.7237 
  112000    90.168827   -7347.1672   -6881.6469   -676.69505     102002.7      46.7237      46.7237      46.7237 
  113000    94.433868   -7351.5188   -6863.9791   -701.34868     102002.7      46.7237      46.7237      46.7237 
  114000    91.066218   -7339.8926   -6869.7393   -876.94936     102002.7      46.7237      46.7237      46.7237 
  115000    89.768372   -7346.2297   -6882.7768   -379.88596     102002.7      46.7237      46.7237      46.7237 
  116000    91.963609   -7339.6705   -6864.8842   -1018.3499     102002.7      46.7237      46.7237      46.7237 
  117000    94.051399   -7350.2798   -6864.7147   -609.57681     102002.7      46.7237      46.7237      46.7237 
  118000    90.852376   -7340.6236   -6871.5743   -467.47966     102002.7      46.7237      46.7237      46.7237 
  119000    91.902001   -7342.4068   -6867.9385   -864.50964     102002.7      46.7237      46.7237      46.7237 
  120000    93.340661   -7323.7983   -6841.9025   -835.49742     102002.7      46.7237      46.7237      46.7237 
  121000    91.777163   -7345.6341   -6871.8103    -788.8682     102002.7      46.7237      46.7237      46.7237 
  122000     92.10172   -7344.9904   -6869.4911   -798.73625     102002.7      46.7237      46.7237      46.7237 
  123000    92.407562   -7338.5984     -6861.52   -793.17558     102002.7      46.7237      46.7237      46.7237 
  124000    90.652899   -7343.3291   -6875.3097   -487.42716     102002.7      46.7237      46.7237      46.7237 
  125000    90.718411   -7332.4282   -6864.0705   -884.24663     102002.7      46.7237      46.7237      46.7237 
  126000    93.996081   -7331.3017   -6846.0222   -877.30707     102002.7      46.7237      46.7237      46.7237 
  127000    90.556666    -7334.792   -6867.2694   -856.41619     102002.7      46.7237      46.7237      46.7237 
  128000    92.128099   -7346.5098   -6870.8743   -694.48115     102002.7      46.7237      46.7237      46.7237 
  129000    91.189498   -7332.1562   -6861.3664   -674.69962     102002.7      46.7237      46.7237      46.7237 
  130000    91.390584   -7351.0115   -6879.1835    -802.3974     102002.7      46.7237      46.7237      46.7237 
  131000     92.25402   -7345.2669   -6868.9813    -694.2256     102002.7      46.7237      46.7237      46.7237 
  132000    95.881166   -7338.2381   -6843.2263   -731.32393     102002.7      46.7237      46.7237      46.7237 
  133000    90.434323    -7332.051   -6865.1601   -706.86325     102002.7      46.7237      46.7237      46.7237 
  134000    92.973346    -7352.965   -6872.9657   -662.09105     102002.7      46.7237      46.7237      46.7237 
  135000    89.758645    -7326.916   -6863.5134   -695.42188     102002.7      46.7237      46.7237      46.7237 
  136000    86.964104    -7345.126    -6896.151   -515.67509     102002.7      46.7237      46.7237      46.7237 
  137000    91.699523   -7330.6644   -6857.2415   -473.48626     102002.7      46.7237      46.7237      46.7237 
  138000    93.109732   -7323.9136   -6843.2101   -750.60886     102002.7      46.7237      46.7237      46.7237 
  139000    90.699933   -7340.0361   -6871.7738   -868.78486     102002.7      46.7237      46.7237      46.7237 
  140000    91.466763   -7318.6517   -6846.4305   -812.14558     102002.7      46.7237      46.7237      46.7237 
  141000    91.760885   -7334.8722   -6861.1325    -811.7933     102002.7      46.7237      46.7237      46.7237 
  142000    89.778065   -7343.7579   -6880.2551   -652.93981     102002.7      46.7237      46.7237      46.7237 
  143000    89.940185   -7332.0318   -6867.6919   -493.42079     102002.7      46.7237      46.7237      46.7237 
  144000    90.790815   -7322.5381   -6853.8067   -574.67964     102002.7      46.7237      46.7237      46.7237 
  145000    91.957806   -7337.7801   -6863.0238   -363.65842     102002.7      46.7237      46.7237      46.7237 
  146000    93.163276   -7323.1925   -6842.2126   -607.76179     102002.7      46.7237      46.7237      46.7237 
  147000    90.104945    -7333.184   -6867.9935   -717.18661     102002.7      46.7237      46.7237      46.7237 
  148000    90.253283   -7334.9641   -6869.0078   -625.70431     102002.7      46.7237      46.7237      46.7237 
  149000    90.371537   -7334.3368     -6867.77   -764.01998     102002.7      46.7237      46.7237      46.7237 
  150000    95.640757   -7337.3234   -6843.5529    -404.8535     102002.7      46.7237      46.7237      46.7237 
  151000    93.060228   -7338.7617   -6858.3138   -532.33911     102002.7      46.7237      46.7237      46.7237 
  152000    85.847683    -7338.901   -6895.6898   -349.58274     102002.7      46.7237      46.7237      46.7237 
  153000    92.478853   -7342.5407   -6865.0943   -434.25491     102002.7      46.7237      46.7237      46.7237 
  154000    94.015056   -7335.9701   -6850.5927   -500.68595     102002.7      46.7237      46.7237      46.7237 
  155000    90.185785   -7336.1553   -6870.5475   -577.35248     102002.7      46.7237      46.7237      46.7237 
  156000    91.986435   -7329.6831   -6854.7789   -602.54493     102002.7      46.7237      46.7237      46.7237 
  157000     88.32302   -7349.6048    -6893.614   -752.19243     102002.7      46.7237      46.7237      46.7237 
  158000    93.475545   -7335.2557   -6852.6636   -420.75445     102002.7      46.7237      46.7237      46.7237 
  159000    88.608107    -7336.073   -6878.6104   -377.76371     102002.7      46.7237      46.7237      46.7237 
  160000    89.621735   -7351.0014   -6888.3056   -896.67242     102002.7      46.7237      46.7237      46.7237 
  161000    91.766282   -7327.0371   -6853.2695   -421.04036     102002.7      46.7237      46.7237      46.7237 
  162000    88.507053    -7320.158    -6863.217   -732.82781     102002.7      46.7237      46.7237      46.7237 
  163000    90.158167   -7329.7494   -6864.2842   -588.02305     102002.7      46.7237      46.7237      46.7237 
  164000    88.240166   -7338.8736   -6883.3106   -713.84014     102002.7      46.7237      46.7237      46.7237 
  165000    93.545296   -7308.4923   -6825.5401   -756.36134     102002.7      46.7237      46.7237      46.7237 
  166000    90.126157   -7339.9215   -6874.6215    -387.0544     102002.7      46.7237      46.7237      46.7237 
  167000    90.918101   -7320.8677   -6851.4791   -766.44109     102002.7      46.7237      46.7237      46.7237 
  168000    88.608507   -7331.6983   -6874.2335   -556.40989     102002.7      46.7237      46.7237      46.7237 
  169000    90.729303   -7335.8229    -6867.409   -822.09214     102002.7      46.7237      46.7237      46.7237 
  170000    89.417578   -7341.6129   -6879.9711   -803.36849     102002.7      46.7237      46.7237      46.7237 
  171000    94.967624   -7346.2818   -6855.9865   -422.91769     102002.7      46.7237      46.7237      46.7237 
  172000    88.212213   -7336.6625   -6881.2438   -465.85707     102002.7      46.7237      46.7237      46.7237 
  173000    93.387233   -7344.6786   -6862.5425   -488.70627     102002.7      46.7237      46.7237      46.7237 
  174000    87.115609   -7344.9939   -6895.2366     -438.397     102002.7      46.7237      46.7237      46.7237 
  175000    91.120626   -7342.1045   -6871.6703   -773.94783     102002.7      46.7237      46.7237      46.7237 
  176000    92.571279   -7331.5219   -6853.5983   -852.72529     102002.7      46.7237      46.7237      46.7237 
  177000    90.901656   -7337.6247    -6868.321   -779.65269     102002.7      46.7237      46.7237      46.7237 
  178000    92.768692   -7324.7973   -6845.8546   -402.10796     102002.7      46.7237      46.7237      46.7237 
  179000    92.223306   -7344.1979   -6868.0709   -651.37931     102002.7      46.7237      46.7237      46.7237 
  180000    89.382681    -7344.903   -6883.4414   -711.02613     102002.7      46.7237      46.7237      46.7237 
  181000    91.882294   -7339.4056   -6865.0391   -752.19508     102002.7      46.7237      46.7237      46.7237 
  182000     87.40451   -7339.7287   -6888.4799    -408.0257     102002.7      46.7237      46.7237      46.7237 
  183000    92.065873   -7328.5254   -6853.2111   -616.95409     102002.7      46.7237      46.7237      46.7237 
  184000    91.851493    -7332.037   -6857.8296   -637.66095     102002.7      46.7237      46.7237      46.7237 
  185000    92.033123   -7334.1614   -6859.0162   -620.69824     102002.7      46.7237      46.7237      46.7237 
  186000    89.755647   -7339.1336   -6875.7465   -540.20611     102002.7      46.7237      46.7237      46.7237 
  187000    89.330675   -7347.5315   -6886.3384   -726.72964     102002.7      46.7237      46.7237      46.7237 
  188000    91.785524   -7340.5611   -6866.6942   -699.13126     102002.7      46.7237      46.7237      46.7237 
  189000    89.769886   -7334.0524   -6870.5917   -714.83456     102002.7      46.7237      46.7237      46.7237 
  190000    92.841896   -7331.8093   -6852.4886   -658.51993     102002.7      46.7237      46.7237      46.7237 
  191000     91.00734   -7347.8169   -6877.9676   -837.58831     102002.7      46.7237      46.7237      46.7237 
  192000    90.967958   -7325.4944   -6855.8484   -392.45757     102002.7      46.7237      46.7237      46.7237 
  193000    89.783371   -7341.3077   -6877.7774   -1030.0518     102002.7      46.7237      46.7237      46.7237 
  194000    94.263223   -7325.7119   -6839.0532   -724.76808     102002.7      46.7237      46.7237      46.7237 
  195000    92.141314   -7344.6355   -6868.9318   -639.89761     102002.7      46.7237      46.7237      46.7237 
  196000    90.964034   -7346.8043   -6877.1786   -514.92778     102002.7      46.7237      46.7237      46.7237 
  197000    89.612296   -7349.6611    -6887.014   -550.66528     102002.7      46.7237      46.7237      46.7237 
  198000    91.254701   -7339.5927   -6868.4663   -680.84187     102002.7      46.7237      46.7237      46.7237 
  199000    93.230752   -7334.9338   -6853.6055   -630.55112     102002.7      46.7237      46.7237      46.7237 
  200000    92.049204    -7350.154   -6874.9257   -642.40541     102002.7      46.7237      46.7237      46.7237 
  201000    94.117915   -7333.9397   -6848.0312   -475.76038     102002.7      46.7237      46.7237      46.7237 
  202000    87.869293   -7321.9625   -6868.3142   -474.44884     102002.7      46.7237      46.7237      46.7237 
  203000    92.860094   -7342.3276   -6862.9129    -717.6116     102002.7      46.7237      46.7237      46.7237 
  204000    89.796134   -7331.3651   -6867.7689   -599.94874     102002.7      46.7237      46.7237      46.7237 
  205000    89.388824   -7338.2218   -6876.7285   -680.57437     102002.7      46.7237      46.7237      46.7237 
  206000    91.160064   -7340.7081   -6870.0703   -785.33821     102002.7      46.7237      46.7237      46.7237 
  207000    90.528579   -7346.4892   -6879.1116   -680.04549     102002.7      46.7237      46.7237      46.7237 
  208000    90.717638   -7326.8629   -6858.5092   -829.21468     102002.7      46.7237      46.7237      46.7237 
  209000    92.160581   -7348.0637   -6872.2605   -654.61863     102002.7      46.7237      46.7237      46.7237 
  210000    92.713965    -7318.215   -6839.5547   -512.46291     102002.7      46.7237      46.7237      46.7237 
  211000    89.394952   -7324.1048   -6862.5798   -575.26494     102002.7      46.7237      46.7237      46.7237 
  212000    88.212499    -7330.926   -6875.5057   -691.42755     102002.7      46.7237      46.7237      46.7237 
  213000     93.16328   -7345.0693   -6864.0894   -646.42651     102002.7      46.7237      46.7237      46.7237 
  214000    89.799247   -7338.7807   -6875.1685   -942.89347     102002.7      46.7237      46.7237      46.7237 
  215000    92.954385   -7341.4729   -6861.5714   -797.20163     102002.7      46.7237      46.7237      46.7237 
  216000    89.066565   -7339.9874   -6880.1578   -726.04864     102002.7      46.7237      46.7237      46.7237 
  217000    92.399236    -7321.144   -6844.1086   -642.87192     102002.7      46.7237      46.7237      46.7237 
  218000     91.42597   -7342.6346   -6870.6239   -626.28092     102002.7      46.7237      46.7237      46.7237 
  219000    89.252041    -7345.585   -6884.7978   -593.44248     102002.7      46.7237      46.7237      46.7237 
  220000    94.312206   -7336.0381   -6849.1265   -691.27592     102002.7      46.7237      46.7237      46.7237 
  221000     93.13797   -7330.3652    -6849.516   -532.89452     102002.7      46.7237      46.7237      46.7237 
  222000    89.360713   -7334.9696   -6873.6214   -820.16228     102002.7      46.7237      46.7237      46.7237 
  223000    91.958764   -7338.9803    -6864.219   -851.94047     102002.7      46.7237      46.7237      46.7237 
  224000     88.22896   -7333.9164   -6878.4112   -662.92962     102002.7      46.7237      46.7237      46.7237 
  225000    91.851939   -7331.9678    -6857.758   -537.63572     102002.7      46.7237      46.7237      46.7237 
  226000    88.157882   -7325.9787   -6870.8405   -463.91289     102002.7      46.7237      46.7237      46.7237 
  227000    90.997909   -7336.3002   -6866.4995   -553.11917     102002.7      46.7237      46.7237      46.7237 
  228000      88.7336   -7344.0811   -6885.9706    -733.8596     102002.7      46.7237      46.7237      46.7237 
  229000    91.396852   -7338.3967   -6866.5364   -773.97742     102002.7      46.7237      46.7237      46.7237 
  230000    91.301471   -7354.4494   -6883.0815   -637.72228     102002.7      46.7237      46.7237      46.7237 
  231000    93.604311   -7351.3275   -6868.0706   -727.85609     102002.7      46.7237      46.7237      46.7237 
  232000    90.795523   -7302.2361   -6833.4804   -851.03422     102002.7      46.7237      46.7237      46.7237 
  233000    90.578969   -7339.7382   -6872.1005   -851.69045     102002.7      46.7237      46.7237      46.7237 
  234000    91.803383   -7339.9584   -6865.9992   -827.48235     102002.7      46.7237      46.7237      46.7237 
  235000    91.090729   -7337.1814   -6866.9015    -457.8895     102002.7      46.7237      46.7237      46.7237 
  236000    91.867309   -7347.3936   -6873.1044   -781.83175     102002.7      46.7237      46.7237      46.7237 
  237000    90.370621   -7337.4712   -6870.9091   -774.98264     102002.7      46.7237      46.7237      46.7237 
  238000    88.830663   -7337.2703   -6878.6587   -570.63739     102002.7      46.7237      46.7237      46.7237 
  239000    91.892633   -7320.7591   -6846.3393   -542.24803     102002.7      46.7237      46.7237      46.7237 
  240000    92.418816   -7338.7703   -6861.6338   -484.89577     102002.7      46.7237      46.7237      46.7237 
  241000    92.021507   -7338.7322    -6863.647   -409.07396     102002.7      46.7237      46.7237      46.7237 
  242000    92.310535   -7348.1062   -6871.5287   -537.49104     102002.7      46.7237      46.7237      46.7237 
  243000    88.026365   -7346.8525   -6892.3932   -755.22926     102002.7      46.7237      46.7237      46.7237 
  244000    90.044853   -7320.8549   -6855.9747   -757.48629     102002.7      46.7237      46.7237      46.7237 
  245000    91.823145   -7336.7908   -6862.7296   -623.96191     102002.7      46.7237      46.7237      46.7237 
  246000    90.920253   -7332.3694   -6862.9697   -591.13336     102002.7      46.7237      46.7237      46.7237 
  247000    89.857299   -7331.3949    -6867.483   -673.69541     102002.7      46.7237      46.7237      46.7237 
  248000     93.80873   -7335.1334   -6850.8211   -542.29921     102002.7      46.7237      46.7237      46.7237 
  249000    90.172596   -7330.0145   -6864.4748    -758.4217     102002.7      46.7237      46.7237      46.7237 
  250000    91.095303   -7344.5739   -6874.2705   -743.52879     102002.7      46.7237      46.7237      46.7237 
  251000    90.631043   -7318.1852   -6850.2786   -822.26394     102002.7      46.7237      46.7237      46.7237 
  252000    90.836093   -7340.8348   -6871.8696   -628.28253     102002.7      46.7237      46.7237      46.7237 
  253000    90.167345   -7325.3698   -6859.8572    -599.5851     102002.7      46.7237      46.7237      46.7237 
  254000     91.78972    -7324.397   -6850.5084   -271.90101     102002.7      46.7237      46.7237      46.7237 
  255000    91.577758    -7350.451   -6877.6568   -507.55846     102002.7      46.7237      46.7237      46.7237 
  256000    90.490658   -7342.2317   -6875.0498   -450.04043     102002.7      46.7237      46.7237      46.7237 
  257000    89.287273   -7326.5796   -6865.6106   -661.72579     102002.7      46.7237      46.7237      46.7237 
  258000    92.251683   -7335.5901   -6859.3166   -736.77176     102002.7      46.7237      46.7237      46.7237 
  259000    91.928407   -7332.7477   -6858.1431   -660.22634     102002.7      46.7237      46.7237      46.7237 
  260000    91.601493   -7336.9692   -6864.0524   -656.10233     102002.7      46.7237      46.7237      46.7237 
  261000    88.434556   -7349.0001   -6892.4335   -652.59431     102002.7      46.7237      46.7237      46.7237 
  262000    91.237754   -7338.1457   -6867.1068    -644.8281     102002.7      46.7237      46.7237      46.7237 
  263000    94.012449   -7323.5099   -6838.1459   -937.98373     102002.7      46.7237      46.7237      46.7237 
  264000    90.414327    -7324.896   -6858.1082   -688.91853     102002.7      46.7237      46.7237      46.7237 
  265000    91.861449   -7343.3689     -6869.11   -806.54738     102002.7      46.7237      46.7237      46.7237 
  266000    91.511254   -7343.9895   -6871.5386   -612.41342     102002.7      46.7237      46.7237      46.7237 
  267000    92.187473   -7335.0209   -6859.0788   -524.87629     102002.7      46.7237      46.7237      46.7237 
  268000    93.008246   -7330.3216   -6850.1421   -608.23356     102002.7      46.7237      46.7237      46.7237 
  269000    91.647524   -7331.1175    -6857.963   -634.68933     102002.7      46.7237      46.7237      46.7237 
  270000    92.645234   -7323.8311   -6845.5257   -779.81498     102002.7      46.7237      46.7237      46.7237 
  271000    90.889736   -7324.5008   -6855.2586   -815.55336     102002.7      46.7237      46.7237      46.7237 
  272000    89.166968   -7345.7621   -6885.4142    -678.4075     102002.7      46.7237      46.7237      46.7237 
  273000    91.338839   -7339.2255   -6867.6647   -393.06013     102002.7      46.7237      46.7237      46.7237 
  274000    90.232298   -7338.5687   -6872.7207   -681.83737     102002.7      46.7237      46.7237      46.7237 
  275000    93.062496   -7344.1139   -6863.6543   -743.34336     102002.7      46.7237      46.7237      46.7237 
  276000     90.95169   -7332.0149   -6862.4529   -603.49244     102002.7      46.7237      46.7237      46.7237 
  277000    90.306545   -7349.6673    -6883.436   -926.31503     102002.7      46.7237      46.7237      46.7237 
  278000    92.596042   -7350.7938   -6872.7424   -581.08005     102002.7      46.7237      46.7237      46.7237 
  279000    94.517948   -7347.5663   -6859.5925   -685.42936     102002.7      46.7237      46.7237      46.7237 
  280000    90.408731   -7340.5334   -6873.7745   -625.24905     102002.7      46.7237      46.7237      46.7237 
  281000    93.512276   -7337.6958   -6854.9141   -308.45854     102002.7      46.7237      46.7237      46.7237 
  282000    91.211555   -7337.3548   -6866.4512   -787.80267     102002.7      46.7237      46.7237      46.7237 
  283000    92.388037   -7344.7717   -6867.7942   -577.46991     102002.7      46.7237      46.7237      46.7237 
  284000     91.78705    -7326.038   -6852.1633   -535.20728     102002.7      46.7237      46.7237      46.7237 
  285000    86.351484   -7349.6737   -6903.8614   -843.89392     102002.7      46.7237      46.7237      46.7237 
  286000    88.601218   -7323.5572   -6866.1301    -893.5059     102002.7      46.7237      46.7237      46.7237 
  287000    89.170734    -7330.832   -6870.4646   -639.63927     102002.7      46.7237      46.7237      46.7237 
  288000    94.338306   -7326.1458   -6839.0995   -761.28078     102002.7      46.7237      46.7237      46.7237 
  289000    93.760434   -7353.3052   -6869.2423   -686.36607     102002.7      46.7237      46.7237      46.7237 
  290000    92.352736   -7345.9616   -6869.1663   -497.83115     102002.7      46.7237      46.7237      46.7237 
  291000    89.511754   -7321.2486   -6859.1206   -855.62695     102002.7      46.7237      46.7237      46.7237 
  292000    88.689981   -7342.1116   -6884.2263   -647.37665     102002.7      46.7237      46.7237      46.7237 
  293000    94.511464   -7340.4571   -6852.5168   -580.34826     102002.7      46.7237      46.7237      46.7237 
  294000    90.054203    -7336.371   -6871.4425    -771.1472     102002.7      46.7237      46.7237      46.7237 
  295000    93.425894   -7317.5167   -6835.1809    -441.7639     102002.7      46.7237      46.7237      46.7237 
  296000    91.861419   -7351.6527   -6877.3939   -818.81324     102002.7      46.7237      46.7237      46.7237 
  297000    92.884205    -7314.335   -6834.7958   -662.59687     102002.7      46.7237      46.7237      46.7237 
  298000    91.122591   -7339.3883    -6868.944   -922.36682     102002.7      46.7237      46.7237      46.7237 
  299000    90.531997   -7337.9312   -6870.5359   -909.99497     102002.7      46.7237      46.7237      46.7237 
  300000    92.679287   -7327.9703   -6849.4891   -983.78575     102002.7      46.7237      46.7237      46.7237 
  301000    88.543936   -7340.6183   -6883.4869   -741.45609     102002.7      46.7237      46.7237      46.7237 
  302000    89.841903    -7323.059   -6859.2265   -562.16904     102002.7      46.7237      46.7237      46.7237 
  303000    90.077162   -7338.0584   -6873.0114    -875.9341     102002.7      46.7237      46.7237      46.7237 
  304000    92.627669   -7327.0384   -6848.8237   -809.53483     102002.7      46.7237      46.7237      46.7237 
  305000    92.914591   -7351.0793   -6871.3833   -703.75126     102002.7      46.7237      46.7237      46.7237 
  306000    92.746828    -7340.352   -6861.5221   -765.95996     102002.7      46.7237      46.7237      46.7237 
  307000    88.641296   -7339.5542   -6881.9202   -778.39496     102002.7      46.7237      46.7237      46.7237 
  308000    90.031314   -7320.2967   -6855.4864   -809.30218     102002.7      46.7237      46.7237      46.7237 
  309000    90.618086   -7336.1951   -6868.3554   -295.92736     102002.7      46.7237      46.7237      46.7237 
  310000    93.800372   -7334.8034   -6850.5343   -766.51615     102002.7      46.7237      46.7237      46.7237 
  311000     93.63181   -7335.0844   -6851.6856   -456.33458     102002.7      46.7237      46.7237      46.7237 
  312000    90.661885   -7341.5657   -6873.4999   -609.66168     102002.7      46.7237      46.7237      46.7237 
  313000    92.158534    -7350.592   -6874.7993   -706.74155     102002.7      46.7237      46.7237      46.7237 
  314000    91.525722   -7348.5363   -6876.0107   -809.14996     102002.7      46.7237      46.7237      46.7237 
  315000    91.586178   -7335.9899   -6863.1521   -670.35481     102002.7      46.7237      46.7237      46.7237 
  316000    92.438016   -7339.7004   -6862.4648   -542.82989     102002.7      46.7237      46.7237      46.7237 
  317000    89.197232   -7345.5425   -6885.0383   -679.46029     102002.7      46.7237      46.7237      46.7237 
  318000    91.281386   -7337.8165   -6866.5523   -845.80032     102002.7      46.7237      46.7237      46.7237 
  319000    91.042706   -7344.9261   -6874.8942   -858.59503     102002.7      46.7237      46.7237      46.7237 
  320000    89.439223    -7331.555   -6869.8015   -648.05691     102002.7      46.7237      46.7237      46.7237 
  321000    92.782991   -7335.6988   -6856.6822   -719.53138     102002.7      46.7237      46.7237      46.7237 
  322000    90.746557   -7344.7533   -6876.2504   -660.35391     102002.7      46.7237      46.7237      46.7237 
  323000     91.10668   -7332.7884   -6862.4262   -661.90005     102002.7      46.7237      46.7237      46.7237 
  324000    89.374353   -7335.7075   -6874.2889   -873.39598     102002.7      46.7237      46.7237      46.7237 
  325000     91.07273   -7327.5985   -6857.4116   -752.93661     102002.7      46.7237      46.7237      46.7237 
  326000    89.218534   -7334.6009   -6873.9867   -656.42595     102002.7      46.7237      46.7237      46.7237 
  327000    88.898803   -7334.8734   -6875.9099   -846.90579     102002.7      46.7237      46.7237      46.7237 
  328000    91.966058    -7323.779   -6848.9801   -849.87865     102002.7      46.7237      46.7237      46.7237 
  329000    90.048573   -7336.4518   -6871.5524   -807.48732     102002.7      46.7237      46.7237      46.7237 
  330000    92.938128   -7348.0835   -6868.2659   -824.62051     102002.7      46.7237      46.7237      46.7237 
  331000    93.337424    -7340.136    -6858.257   -747.67862     102002.7      46.7237      46.7237      46.7237 
  332000    89.313866   -7340.6639   -6879.5576    -599.0769     102002.7      46.7237      46.7237      46.7237 
  333000    90.700657   -7331.9313   -6863.6653   -639.29656     102002.7      46.7237      46.7237      46.7237 
  334000     90.63159   -7346.7579   -6878.8485   -749.80623     102002.7      46.7237      46.7237      46.7237 
  335000    92.867273   -7339.3186   -6859.8669   -780.15036     102002.7      46.7237      46.7237      46.7237 
  336000    88.641317   -7347.5069   -6889.8728   -895.54209     102002.7      46.7237      46.7237      46.7237 
  337000    88.612387   -7326.1704   -6868.6856   -719.64307     102002.7      46.7237      46.7237      46.7237 
  338000    89.817583   -7341.9939    -6878.287   -711.58048     102002.7      46.7237      46.7237      46.7237 
  339000    89.808934   -7324.0413    -6860.379   -737.53532     102002.7      46.7237      46.7237      46.7237 
  340000    91.273049   -7344.7299   -6873.5088   -650.55144     102002.7      46.7237      46.7237      46.7237 
  341000    90.468329   -7326.3023   -6859.2357    -825.3301     102002.7      46.7237      46.7237      46.7237 
  342000    93.493104   -7343.8316   -6861.1488   -707.77096     102002.7      46.7237      46.7237      46.7237 
  343000    92.428059   -7341.3556   -6864.1714   -818.99847     102002.7      46.7237      46.7237      46.7237 
  344000    87.737778   -7360.0977   -6907.1283   -815.37656     102002.7      46.7237      46.7237      46.7237 
  345000    90.153127   -7323.7412    -6858.302   -513.22821     102002.7      46.7237      46.7237      46.7237 
  346000    89.141829   -7332.5539   -6872.3358    -883.3287     102002.7      46.7237      46.7237      46.7237 
  347000    87.972994   -7346.2852   -6892.1015   -488.61602     102002.7      46.7237      46.7237      46.7237 
  348000    93.549249   -7337.2245   -6854.2519   -640.15022     102002.7      46.7237      46.7237      46.7237 
  349000    95.340195   -7341.7962   -6849.5773   -594.29736     102002.7      46.7237      46.7237      46.7237 
  350000    90.113964   -7335.6301   -6870.3931     -539.034     102002.7      46.7237      46.7237      46.7237 
  351000    92.238696    -7327.969   -6851.7625   -913.00615     102002.7      46.7237      46.7237      46.7237 
  352000    91.302315   -7329.5965   -6858.2243   -457.99172     102002.7      46.7237      46.7237      46.7237 
  353000    92.247869   -7343.9888    -6867.735   -604.14824     102002.7      46.7237      46.7237      46.7237 
  354000    93.562228   -7337.9638   -6854.9242   -522.03691     102002.7      46.7237      46.7237      46.7237 
  355000    89.820018   -7334.2287   -6870.5092   -669.08019     102002.7      46.7237      46.7237      46.7237 
  356000    90.912443   -7344.4851   -6875.1257   -723.79614     102002.7      46.7237      46.7237      46.7237 
  357000    91.388258   -7323.4805   -6851.6646   -682.21604     102002.7      46.7237      46.7237      46.7237 
  358000    88.134359   -7345.5398    -6890.523   -738.26144     102002.7      46.7237      46.7237      46.7237 
  359000    89.987843   -7331.2235   -6866.6376   -638.54215     102002.7      46.7237      46.7237      46.7237 
  360000    91.691469   -7337.3613     -6863.98   -958.52617     102002.7      46.7237      46.7237      46.7237 
  361000    88.084047   -7330.4987   -6875.7416   -637.96728     102002.7      46.7237      46.7237      46.7237 
  362000    93.345822   -7329.4361   -6847.5138   -435.01273     102002.7      46.7237      46.7237      46.7237 
  363000    91.717559   -7329.6314   -6856.1154     -390.802     102002.7      46.7237      46.7237      46.7237 
  364000    91.426151   -7334.1702   -6862.1586   -447.10338     102002.7      46.7237      46.7237      46.7237 
  365000    90.701942   -7333.6379   -6865.3653   -466.37759     102002.7      46.7237      46.7237      46.7237 
  366000    90.939511   -7335.9573   -6866.4582   -445.98749     102002.7      46.7237      46.7237      46.7237 
  367000    90.928243   -7357.0283   -6887.5874   -632.99014     102002.7      46.7237      46.7237      46.7237 
  368000    91.195754   -7331.8292   -6861.0072   -618.77919     102002.7      46.7237      46.7237      46.7237 
  369000    91.665338   -7327.9439   -6854.6974   -637.21325     102002.7      46.7237      46.7237      46.7237 
  370000    91.434681   -7338.4064   -6866.3508   -711.85339     102002.7      46.7237      46.7237      46.7237 
  371000    93.297567   -7358.4256   -6876.7524   -581.34254     102002.7      46.7237      46.7237      46.7237 
  372000    90.330615   -7325.4316    -6859.076   -636.39706     102002.7      46.7237      46.7237      46.7237 
  373000    91.685547   -7339.3649   -6866.0142   -613.38443     102002.7      46.7237      46.7237      46.7237 
  374000    92.230427   -7321.2958    -6845.132   -837.55298     102002.7      46.7237      46.7237      46.7237 
  375000    91.424879   -7350.5033   -6878.4983    -443.2612     102002.7      46.7237      46.7237      46.7237 
  376000    89.770615   -7340.3374    -6876.873   -469.20498     102002.7      46.7237      46.7237      46.7237 
  377000    93.444051     -7309.75   -6827.3205   -813.94741     102002.7      46.7237      46.7237      46.7237 
  378000    90.324191   -7347.1911   -6880.8687   -692.48595     102002.7      46.7237      46.7237      46.7237 
  379000    90.881508   -7344.2131   -6875.0134   -691.88067     102002.7      46.7237      46.7237      46.7237 
  380000     90.60079   -7320.8686   -6853.1182   -626.49119     102002.7      46.7237      46.7237      46.7237 
  381000    88.921749   -7346.9478   -6887.8659   -738.42563     102002.7      46.7237      46.7237      46.7237 
  382000    91.275393   -7336.6559   -6865.4227   -706.76552     102002.7      46.7237      46.7237      46.7237 
  383000    89.551528   -7342.0441   -6879.7108   -888.06244     102002.7      46.7237      46.7237      46.7237 
  384000    88.848673   -7342.2844   -6883.5797   -687.22598     102002.7      46.7237      46.7237      46.7237 
  385000    91.980746   -7328.7175   -6853.8427   -854.32096     102002.7      46.7237      46.7237      46.7237 
  386000    91.603406   -7337.6678   -6864.7411   -574.13304     102002.7      46.7237      46.7237      46.7237 
  387000    90.002307   -7327.0948   -6862.4342   -693.59828     102002.7      46.7237      46.7237      46.7237 
  388000    92.625261   -7337.1344   -6858.9322   -672.50442     102002.7      46.7237      46.7237      46.7237 
  389000    91.781324   -7335.6207   -6861.7755   -618.68212     102002.7      46.7237      46.7237      46.7237 
  390000    89.373459   -7337.0524   -6875.6384   -771.06158     102002.7      46.7237      46.7237      46.7237 
  391000    92.369381   -7334.7212     -6857.84   -852.31882     102002.7      46.7237      46.7237      46.7237 
  392000    92.063562   -7322.9562   -6847.6539   -642.33312     102002.7      46.7237      46.7237      46.7237 
  393000    89.355341   -7335.3966   -6874.0761   -804.45387     102002.7      46.7237      46.7237      46.7237 
  394000    90.266296   -7324.3595    -6858.336   -296.65376     102002.7      46.7237      46.7237      46.7237 
  395000    92.829815   -7330.6053    -6851.347   -525.34898     102002.7      46.7237      46.7237      46.7237 
  396000    90.264531   -7348.8838   -6882.8694   -501.65076     102002.7      46.7237      46.7237      46.7237 
  397000    88.233785      -7319.4   -6863.8699   -517.07639     102002.7      46.7237      46.7237      46.7237 
  398000    92.322879   -7337.1582   -6860.5171   -575.04667     102002.7      46.7237      46.7237      46.7237 
  399000    91.727518   -7349.7426   -6876.1752   -687.13489     102002.7      46.7237      46.7237      46.7237 
  400000    93.179909   -7346.1096   -6865.0438   -686.07789     102002.7      46.7237      46.7237      46.7237 
  401000    89.879025   -7342.1394   -6878.1153   -903.63185     102002.7      46.7237      46.7237      46.7237 
  402000    92.101916     -7334.99   -6859.4896   -744.66904     102002.7      46.7237      46.7237      46.7237 
  403000    90.320108   -7327.1279   -6860.8266   -750.12704     102002.7      46.7237      46.7237      46.7237 
  404000    89.494033   -7329.7845    -6867.748    -669.5628     102002.7      46.7237      46.7237      46.7237 
  405000    96.051255   -7328.0313   -6832.1414   -954.80569     102002.7      46.7237      46.7237      46.7237 
  406000    90.390821   -7342.1247   -6875.4584    -675.7815     102002.7      46.7237      46.7237      46.7237 
  407000    93.302897   -7313.1381   -6831.4373   -996.17116     102002.7      46.7237      46.7237      46.7237 
  408000    91.199775   -7339.1183   -6868.2755   -527.71018     102002.7      46.7237      46.7237      46.7237 
  409000    93.584766   -7339.8064   -6856.6505   -674.33929     102002.7      46.7237      46.7237      46.7237 
  410000    89.214688   -7337.9971   -6877.4028   -726.45173     102002.7      46.7237      46.7237      46.7237 
  411000    90.919558    -7341.737   -6872.3409    -494.7972     102002.7      46.7237      46.7237      46.7237 
  412000    91.669332   -7335.8311    -6862.564   -869.30811     102002.7      46.7237      46.7237      46.7237 
  413000    92.363079   -7332.7424   -6855.8937   -426.33084     102002.7      46.7237      46.7237      46.7237 
  414000    89.376819   -7337.1834   -6875.7521     -657.124     102002.7      46.7237      46.7237      46.7237 
  415000    88.767795   -7327.7281   -6869.4411   -534.14005     102002.7      46.7237      46.7237      46.7237 
  416000     93.42888    -7345.517   -6863.1658   -585.08238     102002.7      46.7237      46.7237      46.7237 
  417000    91.161975   -7314.7913   -6844.1436   -755.02308     102002.7      46.7237      46.7237      46.7237 
  418000    90.308221   -7345.6653   -6879.4254   -692.07276     102002.7      46.7237      46.7237      46.7237 
  419000    90.820767   -7334.7027   -6865.8166   -873.58523     102002.7      46.7237      46.7237      46.7237 
  420000    92.409247   -7340.5125   -6863.4254    -356.3262     102002.7      46.7237      46.7237      46.7237 
  421000    92.315428   -7335.9341   -6859.3314   -608.79349     102002.7      46.7237      46.7237      46.7237 
  422000    90.448925   -7332.9019   -6865.9356   -754.96955     102002.7      46.7237      46.7237      46.7237 
  423000    89.664235    -7343.261   -6880.3458   -767.11409     102002.7      46.7237      46.7237      46.7237 
  424000    92.998613   -7340.8181   -6860.6883   -818.82184     102002.7      46.7237      46.7237      46.7237 
  425000    90.088277    -7324.187   -6859.0826   -792.18664     102002.7      46.7237      46.7237      46.7237 
  426000    91.203576   -7338.5221   -6867.6597   -772.90788     102002.7      46.7237      46.7237      46.7237 
  427000    91.222258   -7346.7541   -6875.7952   -607.69056     102002.7      46.7237      46.7237      46.7237 
  428000    92.618348   -7336.1509   -6857.9843   -663.34029     102002.7      46.7237      46.7237      46.7237 
  429000      90.5775   -7317.7903   -6850.1601   -979.52513     102002.7      46.7237      46.7237      46.7237 
  430000    90.448764   -7353.9377   -6886.9721   -799.20426     102002.7      46.7237      46.7237      46.7237 
  431000    92.711404   -7338.0781    -6859.431   -721.71129     102002.7      46.7237      46.7237      46.7237 
  432000    90.833007   -7324.9253    -6855.976   -766.66097     102002.7      46.7237      46.7237      46.7237 
  433000    90.236297   -7336.3128   -6870.4442   -680.78997     102002.7      46.7237      46.7237      46.7237 
  434000    89.353598   -7340.6749   -6879.3634   -728.61123     102002.7      46.7237      46.7237      46.7237 
  435000    91.410415   -7327.0762   -6855.1459   -866.60504     102002.7      46.7237      46.7237      46.7237 
  436000    93.668113   -7341.1618   -6857.5755     -565.188     102002.7      46.7237      46.7237      46.7237 
  437000    88.401593   -7331.8089   -6875.4124   -705.76998     102002.7      46.7237      46.7237      46.7237 
  438000    91.123732   -7334.2628   -6863.8126   -573.58374     102002.7      46.7237      46.7237      46.7237 
  439000     88.64324   -7330.2913   -6872.6472   -672.02799     102002.7      46.7237      46.7237      46.7237 
  440000    92.200983   -7338.9433   -6862.9314   -513.27624     102002.7      46.7237      46.7237      46.7237 
  441000    91.146165   -7324.2552   -6853.6892   -618.62859     102002.7      46.7237      46.7237      46.7237 
  442000    92.167807   -7342.4622   -6866.6217   -601.94817     102002.7      46.7237      46.7237      46.7237 
  443000    91.583107   -7342.8138    -6869.992   -538.16569     102002.7      46.7237      46.7237      46.7237 
  444000     94.44401   -7331.6312   -6844.0392   -646.12321     102002.7      46.7237      46.7237      46.7237 
  445000    90.051262   -7323.4964   -6858.5831   -493.50723     102002.7      46.7237      46.7237      46.7237 
  446000    91.731197   -7343.2504   -6869.6639   -686.07206     102002.7      46.7237      46.7237      46.7237 
  447000     93.03917   -7348.5077   -6868.1685   -401.44619     102002.7      46.7237      46.7237      46.7237 
  448000    92.451807   -7333.8758    -6856.569    -477.0996     102002.7      46.7237      46.7237      46.7237 
  449000    90.189458   -7341.2043   -6875.5775   -450.61716     102002.7      46.7237      46.7237      46.7237 
  450000    92.440613   -7339.0034   -6861.7545   -627.80018     102002.7      46.7237      46.7237      46.7237 
  451000    90.969313    -7342.285    -6872.632   -735.85984     102002.7      46.7237      46.7237      46.7237 
  452000    93.233113   -7353.0772   -6871.7368   -748.95952     102002.7      46.7237      46.7237      46.7237 
  453000    90.330882    -7330.742   -6864.3851   -806.32618     102002.7      46.7237      46.7237      46.7237 
  454000    94.014559   -7346.2375   -6860.8626   -669.00947     102002.7      46.7237      46.7237      46.7237 
  455000    93.027729   -7334.3057   -6854.0256   -766.24599     102002.7      46.7237      46.7237      46.7237 
  456000    93.098418   -7335.0295   -6854.3845    -632.0388     102002.7      46.7237      46.7237      46.7237 
  457000    87.647261    -7346.824   -6894.3219   -781.71727     102002.7      46.7237      46.7237      46.7237 
  458000    90.906393   -7344.1967   -6874.8685   -738.59251     102002.7      46.7237      46.7237      46.7237 
  459000    94.875569   -7329.6402   -6839.8201   -898.70162     102002.7      46.7237      46.7237      46.7237 
  460000    91.806454   -7345.8901   -6871.9152   -706.99126     102002.7      46.7237      46.7237      46.7237 
  461000    89.114335   -7314.8841   -6854.8079     -737.933     102002.7      46.7237      46.7237      46.7237 
  462000    92.022634   -7346.2899   -6871.1988   -711.41364     102002.7      46.7237      46.7237      46.7237 
  463000    89.945959   -7346.8253   -6882.4556   -542.88865     102002.7      46.7237      46.7237      46.7237 
  464000     92.16161   -7341.1612   -6865.3527   -275.04549     102002.7      46.7237      46.7237      46.7237 
  465000    92.280033   -7343.2961   -6866.8761   -927.79411     102002.7      46.7237      46.7237      46.7237 
  466000    92.300484   -7339.9272   -6863.4016    -567.5728     102002.7      46.7237      46.7237      46.7237 
  467000     92.90699   -7326.7354   -6847.0787   -821.53555     102002.7      46.7237      46.7237      46.7237 
  468000    91.998445   -7346.0013   -6871.0352   -611.52552     102002.7      46.7237      46.7237      46.7237 
  469000    87.895366   -7321.5564   -6867.7735   -625.79319     102002.7      46.7237      46.7237      46.7237 
  470000    92.179197   -7330.3642   -6854.4649   -759.82673     102002.7      46.7237      46.7237      46.7237 
  471000      90.6194   -7332.4821   -6864.6356   -853.23676     102002.7      46.7237      46.7237      46.7237 
  472000    91.692914   -7332.1533   -6858.7645   -912.83789     102002.7      46.7237      46.7237      46.7237 
  473000    91.359434   -7347.7036   -6876.0365   -753.97177     102002.7      46.7237      46.7237      46.7237 
  474000     90.50857     -7352.79   -6885.5157   -569.20903     102002.7      46.7237      46.7237      46.7237 
  475000     89.65739   -7324.6341   -6861.7543   -780.08687     102002.7      46.7237      46.7237      46.7237 
  476000     85.97566    -7341.401    -6897.529   -643.76051     102002.7      46.7237      46.7237      46.7237 
  477000     89.31572   -7337.1268   -6876.0109   -736.89311     102002.7      46.7237      46.7237      46.7237 
  478000    91.374754   -7332.5836   -6860.8374   -871.23957     102002.7      46.7237      46.7237      46.7237 
  479000    89.834278   -7364.2595   -6900.4664   -601.91903     102002.7      46.7237      46.7237      46.7237 
  480000    91.499102   -7334.9643   -6862.5761   -689.28783     102002.7      46.7237      46.7237      46.7237 
  481000    90.837203   -7348.4275   -6879.4565   -690.54566     102002.7      46.7237      46.7237      46.7237 
  482000    90.424032   -7337.2972   -6870.4593    -773.0231     102002.7      46.7237      46.7237      46.7237 
  483000    92.954531   -7333.1807   -6853.2785   -658.76306     102002.7      46.7237      46.7237      46.7237 
  484000    90.892104   -7328.5653   -6859.3109   -846.13617     102002.7      46.7237      46.7237      46.7237 
  485000    90.947689   -7331.6298   -6862.0884     -997.052     102002.7      46.7237      46.7237      46.7237 
  486000    92.428305    -7335.895   -6858.7096   -780.58307     102002.7      46.7237      46.7237      46.7237 
  487000     90.41054   -7336.3754   -6869.6072   -868.53675     102002.7      46.7237      46.7237      46.7237 
  488000    90.639063   -7347.0973   -6879.1493   -649.95976     102002.7      46.7237      46.7237      46.7237 
  489000    93.969378   -7319.5428   -6834.4011   -587.15022     102002.7      46.7237      46.7237      46.7237 
  490000    89.435091   -7335.7299   -6873.9977   -534.56238     102002.7      46.7237      46.7237      46.7237 
  491000    93.442562   -7325.1303   -6842.7085   -383.92029     102002.7      46.7237      46.7237      46.7237 
  492000    89.445296    -7344.362   -6882.5772   -763.14125     102002.7      46.7237      46.7237      46.7237 
  493000    87.355684   -7337.8256   -6886.8289   -468.01678     102002.7      46.7237      46.7237      46.7237 
  494000    93.142508   -7338.9367    -6858.064   -707.89015     102002.7      46.7237      46.7237      46.7237 
  495000    94.202938   -7330.4489   -6844.1015   -774.51095     102002.7      46.7237      46.7237      46.7237 
  496000    88.432629    -7341.975   -6885.4183    -529.3271     102002.7      46.7237      46.7237      46.7237 
  497000     90.59937   -7324.7633   -6857.0203   -909.29274     102002.7      46.7237      46.7237      46.7237 
  498000    89.509004    -7340.283   -6878.1692   -513.99413     102002.7      46.7237      46.7237      46.7237 
  499000    92.011481   -7329.4978   -6854.4643   -763.39661     102002.7      46.7237      46.7237      46.7237 
  500000    90.100988   -7343.3672   -6878.1971   -667.96533     102002.7      46.7237      46.7237      46.7237 
  500505    91.396598   -7330.9808   -6859.1218   -788.88749     102002.7      46.7237      46.7237      46.7237 
Loop time of 1272.39 on 16 procs for 500000 steps with 1733 atoms

Performance: 33.952 ns/day, 0.707 hours/ns, 392.960 timesteps/s
99.9% CPU use with 16 MPI tasks x no OpenMP threads

MPI task timing breakdown:
Section |  min time  |  avg time  |  max time  |%varavg| %total
---------------------------------------------------------------
Pair    | 506.88     | 682.49     | 859.05     | 458.1 | 53.64
Bond    | 164.81     | 174.04     | 183.85     |  33.9 | 13.68
Neigh   | 2.9882     | 3.019      | 3.0741     |   1.8 |  0.24
Comm    | 219.19     | 400.4      | 585.49     | 599.2 | 31.47
Output  | 0.020723   | 0.021089   | 0.024062   |   0.5 |  0.00
Modify  | 6.7598     | 7.2989     | 7.7934     |  12.0 |  0.57
Other   |            | 5.127      |            |       |  0.40

Nlocal:    108.312 ave 133 max 82 min
Histogram: 1 0 1 3 2 5 0 2 1 1
Nghost:    2196.56 ave 2225 max 2171 min
Histogram: 1 2 1 1 3 2 4 1 0 1
Neighs:    11463.7 ave 15402 max 7760 min
Histogram: 3 0 2 1 2 3 1 0 3 1

Total # of neighbors = 183419
Ave neighs/atom = 105.839
Ave special neighs/atom = 6.64743
Neighbor list builds = 2611
Dangerous builds = 0
Neighbor list info ...
  update every 1 steps, delay 10 steps, check yes
  max neighbors/atom: 2000, page size: 100000
  master list distance cutoff = 16
  ghost atom cutoff = 16
  binsize = 8, bins = 6 6 6
  3 neighbor lists, perpetual/occasional/extra = 3 0 0
  (1) pair buck6d/coul/gauss/dsf, perpetual, skip from (3)
      attributes: half, newton on
      pair build: skip
      stencil: none
      bin: none
  (2) pair lj/cut, perpetual, skip from (3)
      attributes: half, newton on
      pair build: skip
      stencil: none
      bin: none
  (3) neighbor class addition, perpetual
      attributes: half, newton on
      pair build: half/bin/newton
      stencil: half/bin/3d/newton
      bin: standard
Setting up Verlet run ...
  Unit style    : real
  Current step  : 500505
  Time step     : 1
WARNING: Inconsistent image flags (../domain.cpp:786)
Per MPI rank memory allocation (min/avg/max) = 22.87 | 23.3 | 23.34 Mbytes
Step Time TotEng KinEng PotEng E_mol E_pair Temp Pxx Pyy Pzz Pxy Pxz Pyz Cella Cellb Cellc CellAlpha CellBeta CellGamma Volume Press 
  500505       500000   -6859.1218    471.85898   -7330.9808    4208.7352   -11539.716    91.396598   -985.32589    -483.6708   -897.66577    32.698535   -244.10655     66.43018      46.7237      46.7237      46.7237           90           90           90     102002.7   -788.88749 
  501000       500495   -6851.6261    474.69115   -7326.3173     4220.952   -11547.269    91.945176   -972.72141   -660.90532   -617.20805   -22.824662   -187.22863   -9.6703245      46.7237      46.7237      46.7237           90           90           90     102002.7   -750.27826 
  502000       501495   -6856.0884    469.89438   -7325.9828    4222.7781   -11548.761    91.016066   -920.23683   -793.07068    -991.2919   -98.368817   -31.512928     17.22156      46.7237      46.7237      46.7237           90           90           90     102002.7   -901.53313 
  503000       502495   -6905.6751    443.42296   -7349.0981    4195.1002   -11544.198    85.888691   -411.06422   -1057.3002    -1062.531    244.44042   -9.7204325    40.957283      46.7237      46.7237      46.7237           90           90           90     102002.7   -843.63178 
  504000       503495   -6858.1719    480.42608   -7338.5979    4224.1382   -11562.736    93.056001   -748.07565   -656.53289   -755.71785   -121.92206    318.45066   -89.293544      46.7237      46.7237      46.7237           90           90           90     102002.7    -720.1088 
  505000       504495   -6875.8957    465.94745   -7341.8432    4206.9448   -11548.788    90.251566   -679.94005   -947.18826   -594.29535     331.5703   -75.470366   -52.358909      46.7237      46.7237      46.7237           90           90           90     102002.7   -740.47455 
  506000       505495   -6850.5062     476.1682   -7326.6744    4228.1188   -11554.793    92.231272   -501.43204   -768.76244   -966.47434    58.811323    93.752887    50.910237      46.7237      46.7237      46.7237           90           90           90     102002.7   -745.55627 
  507000       506495   -6882.8092    461.85834   -7344.6675    4219.4451   -11564.113    89.459528   -951.79354   -1007.2814   -442.13887    22.252322    50.434173   -197.42554      46.7237      46.7237      46.7237           90           90           90     102002.7   -800.40461 
  508000       507495   -6857.1213    469.28444   -7326.4057    4217.6711   -11544.077    90.897923   -740.09024   -812.05976   -986.02967    229.36435   -84.908266    53.190093      46.7237      46.7237      46.7237           90           90           90     102002.7   -846.05989 
  509000       508495    -6890.515    452.53608    -7343.051    4211.4113   -11554.462    87.653855   -635.09455   -998.11874   -931.50691   -90.488548   -200.01752   -21.812499      46.7237      46.7237      46.7237           90           90           90     102002.7   -854.90673 
  510000       509495   -6855.5462    475.01778    -7330.564    4227.6226   -11558.187    92.008442   -354.39157   -453.82882   -1259.8603   -77.760739    177.18853   -104.24437      46.7237      46.7237      46.7237           90           90           90     102002.7   -689.36022 
  511000       510495   -6876.1314    461.69539   -7337.8268    4228.5923   -11566.419    89.427965   -1067.3928   -920.38375   -513.95125    35.431184   -14.301757    55.296682      46.7237      46.7237      46.7237           90           90           90     102002.7   -833.90926 
  512000       511495   -6885.8632    461.91456   -7347.7778    4193.1469   -11540.925    89.470416   -771.84648   -783.90198   -981.32294    177.42244    -9.126237  -0.34515522      46.7237      46.7237      46.7237           90           90           90     102002.7   -845.69046 
  513000       512495   -6860.2196     474.7685   -7334.9881    4215.8007   -11550.789    91.960158   -402.95853   -734.53863   -806.54975   -207.31373    121.32751   -55.915207      46.7237      46.7237      46.7237           90           90           90     102002.7   -648.01563 
  514000       513495    -6870.538    462.47782   -7333.0159    4221.3418   -11554.358    89.579518   -879.30463   -828.39502   -492.29838   -210.09508    74.567434     107.4269      46.7237      46.7237      46.7237           90           90           90     102002.7   -733.33268 
  515000       514495   -6857.7158    470.79622   -7328.5121    4217.5359   -11546.048    91.190749    -600.6621   -557.83492   -474.96602    123.75022   -103.30239    48.501118      46.7237      46.7237      46.7237           90           90           90     102002.7   -544.48768 
  516000       515495   -6867.1024     471.5912   -7338.6936    4211.3002   -11549.994    91.344731   -318.65507   -594.95464   -517.12642    101.51953    131.51622   -118.02051      46.7237      46.7237      46.7237           90           90           90     102002.7   -476.91204 
  517000       516495   -6864.9461    467.99052   -7332.9367    4208.4299   -11541.367    90.647299   -552.70637   -1335.4836   -220.92237   -19.944956    -207.0547    193.82976      46.7237      46.7237      46.7237           90           90           90     102002.7   -703.03746 
  518000       517495   -6848.6451    480.22589    -7328.871    4217.4836   -11546.355    93.017226   -773.74212   -698.30986   -303.33661    17.873011   -56.540965   -16.266502      46.7237      46.7237      46.7237           90           90           90     102002.7    -591.7962 
  519000       518495   -6877.0226    448.37214   -7325.3948      4219.94   -11545.335    86.847323   -173.11857   -610.78403   -613.93983    189.56362   -56.638611     95.30575      46.7237      46.7237      46.7237           90           90           90     102002.7   -465.94748 
  520000       519495    -6849.518    489.48803    -7339.006    4202.6937     -11541.7    94.811253   -426.46599   -535.07525   -325.95123   -72.607993    56.517012   -128.73693      46.7237      46.7237      46.7237           90           90           90     102002.7   -429.16415 
  521000       520495   -6860.1561      487.033   -7347.1891    4202.9593   -11550.148    94.335727   -670.01279   -549.05329   -620.00824   -85.993953    -109.9646   -26.911865      46.7237      46.7237      46.7237           90           90           90     102002.7   -613.02477 
  522000       521495   -6889.7842    462.07383    -7351.858     4202.716   -11554.574    89.501267   -331.15633   -736.10372   -837.70887    149.63061    176.19837    201.38533      46.7237      46.7237      46.7237           90           90           90     102002.7   -634.98964 
  523000       522495   -6876.7798    471.99235   -7348.7722     4192.761   -11541.533    91.422431   -461.99742   -799.05318   -953.95978   -202.43864    194.00296    76.258165      46.7237      46.7237      46.7237           90           90           90     102002.7   -738.33679 
  524000       523495   -6843.9958    469.88227    -7313.878    4247.3446   -11561.223    91.013721   -894.50264   -818.29186   -654.32286   -175.99537     139.6475    80.063994      46.7237      46.7237      46.7237           90           90           90     102002.7   -789.03912 
  525000       524495   -6865.9929     474.1169   -7340.1098     4224.326   -11564.436    91.833947   -408.18814   -1126.2984   -469.27459   -154.94956    53.391017    106.66744      46.7237      46.7237      46.7237           90           90           90     102002.7   -667.92038 
  526000       525495   -6882.5783    465.93101   -7348.5093    4199.3349   -11547.844    90.248382   -648.46907   -464.33409   -693.78731    76.405353    -98.23073   -119.29309      46.7237      46.7237      46.7237           90           90           90     102002.7   -602.19682 
  527000       526495   -6877.6423    478.32461   -7355.9669    4176.0379   -11532.005    92.648957   -902.06082     -970.841   -353.51731    -33.52443    31.654713    201.19742      46.7237      46.7237      46.7237           90           90           90     102002.7   -742.13971 
  528000       527495   -6868.9223     469.2257    -7338.148    4216.7261   -11554.874    90.886546   -426.97695   -709.51593   -975.83641   -56.141396   -38.939871    4.7685893      46.7237      46.7237      46.7237           90           90           90     102002.7   -704.10976 
  529000       528495   -6851.0165     496.3004   -7347.3169    4196.2391   -11543.556    96.130773   -500.05838   -140.45918   -666.27867    283.41932    2.3934719    47.721622      46.7237      46.7237      46.7237           90           90           90     102002.7   -435.59875 
  530000       529495   -6871.6098    460.96613   -7332.5759    4210.6284   -11543.204    89.286712    -375.0501   -722.20957   -576.04006    109.26117    42.646207    41.573253      46.7237      46.7237      46.7237           90           90           90     102002.7   -557.76658 
  531000       530495   -6859.5603    468.65837   -7328.2187    4209.4658   -11537.685    90.776658   -236.49365   -581.13282   -1012.4405   -28.296252   -38.143794    66.559438      46.7237      46.7237      46.7237           90           90           90     102002.7   -610.02231 
  532000       531495   -6870.7363     481.6026   -7352.3389    4208.2336   -11560.573    93.283887   -818.09087    -516.9291   -51.919836    31.330048   -58.257718    44.309026      46.7237      46.7237      46.7237           90           90           90     102002.7   -462.31327 
  533000       532495   -6866.9432    465.36423   -7332.3074    4225.4725    -11557.78    90.138599   -539.14422   -175.83288   -959.71348    14.179355   -48.542104     31.98187      46.7237      46.7237      46.7237           90           90           90     102002.7   -558.23019 
  534000       533495   -6866.3445    469.27942   -7335.6239    4200.7939   -11536.418    90.896953   -593.93982   -513.38336   -892.59158   -18.285419    159.18235    4.5572318      46.7237      46.7237      46.7237           90           90           90     102002.7   -666.63825 
  535000       534495   -6861.9916    474.64166   -7336.6333    4217.8748   -11554.508     91.93559   -625.98558   -930.59108   -680.58262    39.309867    19.044311    79.328068      46.7237      46.7237      46.7237           90           90           90     102002.7   -745.71976 
  536000       535495   -6880.4639    463.69021   -7344.1542     4210.128   -11554.282    89.814351   -547.99565   -801.34567   -877.75296       55.772    82.051399    56.028986      46.7237      46.7237      46.7237           90           90           90     102002.7   -742.36476 
  537000       536495   -6868.4565    469.44721   -7337.9037    4215.3373   -11553.241    90.929453    -646.5985   -273.46523   -1301.0778   -70.610148    19.085842   -255.58842      46.7237      46.7237      46.7237           90           90           90     102002.7   -740.38051 
  538000       537495   -6857.3661    479.58864   -7336.9547    4227.3375   -11564.292    92.893793   -617.23156   -610.67905   -775.63944    38.457254    -120.2866   -168.71847      46.7237      46.7237      46.7237           90           90           90     102002.7   -667.85002 
  539000       538495   -6879.3992    461.47543   -7340.8747     4182.896   -11523.771     89.38536   -171.40533   -357.25058   -511.79731   -100.85193    41.802585   -8.1874833      46.7237      46.7237      46.7237           90           90           90     102002.7   -346.81774 
  540000       539495   -6868.5558    479.97887   -7348.5347    4202.5861   -11551.121    92.969378   -1023.1031   -288.70657   -474.73584    114.40811    350.79998     -76.9655      46.7237      46.7237      46.7237           90           90           90     102002.7   -595.51515 
  541000       540495    -6872.413    455.60073   -7328.0138    4230.4549   -11558.469    88.247461   -290.35778   -681.21315   -182.32824    43.853843   -4.0770736    75.973102      46.7237      46.7237      46.7237           90           90           90     102002.7   -384.63306 
  542000       541495   -6871.1659    467.76282   -7338.9288    4201.6725   -11540.601    90.603195   -636.80028   -615.01591   -639.46085    53.942578   -38.691832   -210.42906      46.7237      46.7237      46.7237           90           90           90     102002.7   -630.42568 
  543000       542495   -6866.5805    457.27497   -7323.8554    4231.5016   -11555.357    88.571752   -559.42377   -512.08091   -565.04185   -5.1576519    143.56961    1.8665617      46.7237      46.7237      46.7237           90           90           90     102002.7   -545.51551 
  544000       543495   -6896.2034    454.86302   -7351.0664    4198.3513   -11549.418    88.104571   -704.15554   -590.92856   -999.94618   -117.55278   -180.10134   -128.96233      46.7237      46.7237      46.7237           90           90           90     102002.7   -765.01009 
  545000       544495   -6868.3661    475.62682   -7343.9929    4212.6458   -11556.639    92.126411   -397.82237   -635.80128   -1038.0621    97.416161    -4.238079    120.11874      46.7237      46.7237      46.7237           90           90           90     102002.7   -690.56192 
  546000       545495   -6848.2532    487.18806   -7335.4412     4205.862   -11541.303    94.365761   -324.36935   -213.77975   -1009.9701     119.8358    30.289277   -170.02469      46.7237      46.7237      46.7237           90           90           90     102002.7   -516.03974 
  547000       546495   -6869.4499    461.57735   -7331.0273    4227.2735   -11558.301    89.405101   -398.70965   -1091.2019   -667.57817   -150.62174   -127.31034    4.4289734      46.7237      46.7237      46.7237           90           90           90     102002.7   -719.16323 
  548000       547495   -6838.7356    474.21395   -7312.9495    4238.6185   -11551.568    91.852745   -834.39953   -951.49162   -1141.2508  -0.35208059    9.7239165    -76.73078      46.7237      46.7237      46.7237           90           90           90     102002.7   -975.71399 
  549000       548495   -6875.3239     462.7152   -7338.0391    4204.3598   -11542.399    89.625498   -782.59217   -782.14522   -946.42594   -50.748223    22.636898   -21.339202      46.7237      46.7237      46.7237           90           90           90     102002.7   -837.05444 
  550000       549495    -6849.092    485.11921   -7334.2112    4215.3572   -11549.568    93.965035   -908.94475   -1359.2173   -1048.0917    155.34447   -204.03247    112.01131      46.7237      46.7237      46.7237           90           90           90     102002.7   -1105.4179 
  551000       550495   -6866.3436    456.72542    -7323.069    4219.8143   -11542.883    88.465307   -845.92912   -811.49337   -381.08435   -109.31332   -112.50745   -40.990761      46.7237      46.7237      46.7237           90           90           90     102002.7   -679.50228 
  552000       551495   -6844.2337    489.06346   -7333.2972     4222.249   -11555.546    94.729016   -618.71955   -779.03459    -1369.384   -166.55892   -58.777077    203.83391      46.7237      46.7237      46.7237           90           90           90     102002.7   -922.37936 
  553000       552495   -6884.7773    451.10075    -7335.878     4223.328   -11559.206     87.37584   -650.11831   -963.76405   -926.67149    210.91141   -222.65278    309.07886      46.7237      46.7237      46.7237           90           90           90     102002.7   -846.85128 
  554000       553495   -6866.2659     460.7694   -7327.0353     4219.618   -11546.653    89.248606   -686.41772   -708.37148    -938.0144    89.758233   -150.33243    151.16548      46.7237      46.7237      46.7237           90           90           90     102002.7    -777.6012 
  555000       554495   -6847.8242    466.11078    -7313.935    4230.4287   -11544.364    90.283202   -761.73958   -1052.4105   -991.22033    53.329237    160.79435    56.203172      46.7237      46.7237      46.7237           90           90           90     102002.7   -935.12345 
[...]
  936000       935495   -6888.1603    457.93142   -7346.0917    4209.4745   -11555.566    88.698905   -1064.5095    -739.3114   -1061.3837    130.64604   -7.8541591   -118.43938      46.7237      46.7237      46.7237           90           90           90     102002.7   -955.06822 
  937000       936495   -6862.7686    473.07214   -7335.8407    4205.5695    -11541.41    91.631581   -557.04606   -718.08539   -560.16558    61.026249    16.656126   -1.8827375      46.7237      46.7237      46.7237           90           90           90     102002.7   -611.76567 
  938000       937495   -6874.3008    472.61448   -7346.9153    4192.2676   -11539.183    91.542934   -588.04434   -987.56445   -298.24673    21.238027   -76.826544   -127.04407      46.7237      46.7237      46.7237           90           90           90     102002.7   -624.61851 
  939000       938495   -6865.4526    475.58549   -7341.0381    4224.5142   -11565.552    92.118404   -683.92934   -601.84871   -823.38055    -100.7768   -67.345548   -158.01665      46.7237      46.7237      46.7237           90           90           90     102002.7   -703.05287 
  940000       939495   -6840.4109    474.74263   -7315.1536    4238.6147   -11553.768    91.955146   -868.27258   -636.31596   -469.18962    99.031219   -143.06141   -169.29594      46.7237      46.7237      46.7237           90           90           90     102002.7   -657.92606 
  941000       940495   -6873.0819    468.15197   -7341.2339    4205.2569   -11546.491    90.678571   -210.25327   -584.87027   -386.15887   -105.11324    136.72807   -209.68613      46.7237      46.7237      46.7237           90           90           90     102002.7    -393.7608 
  942000       941495   -6838.8532    477.70401   -7316.5573    4236.6797   -11553.237    92.528751    -502.9697   -518.20181   -494.78222    18.149027   -205.05794    -83.00239      46.7237      46.7237      46.7237           90           90           90     102002.7   -505.31791 
  943000       942495   -6866.8885    470.41319   -7337.3017    4207.1917   -11544.493    91.116557   -695.10591   -1079.0809   -357.06983   -50.743806   -110.28925   -163.56665      46.7237      46.7237      46.7237           90           90           90     102002.7   -710.41889 
  944000       943495   -6869.2683    468.18869    -7337.457    4205.2046   -11542.662    90.685684   -452.92414   -924.71224   -497.44451   -173.81982    52.302244    57.353395      46.7237      46.7237      46.7237           90           90           90     102002.7   -625.02696 
  945000       944495   -6865.3986    471.71574   -7337.1143    4212.8664   -11549.981    91.368854   -648.92414   -724.51134   -549.14635   -58.510627   -94.224665    10.103035      46.7237      46.7237      46.7237           90           90           90     102002.7   -640.86061 
  946000       945495   -6864.3354    476.82036   -7341.1557    4191.7204   -11532.876    92.357592   -335.40309   -769.07323   -723.17007    230.57297   -118.81724   -76.150004      46.7237      46.7237      46.7237           90           90           90     102002.7   -609.21546 
  947000       946495   -6866.1866    461.20518   -7327.3918     4217.494   -11544.886    89.333014   -674.57511   -744.77825   -863.05226   -195.01903    244.28449    30.921444      46.7237      46.7237      46.7237           90           90           90     102002.7   -760.80187 
  948000       947495    -6870.383    470.29296   -7340.6759    4204.3049   -11544.981    91.093268   -690.33475   -848.57983   -856.79263   -197.08544    207.13766    64.550727      46.7237      46.7237      46.7237           90           90           90     102002.7   -798.56907 
  949000       948495   -6861.6613    467.53705   -7329.1983    4222.1114    -11551.31    90.559464   -742.34028   -787.01798   -450.91025   -11.810528    81.555166   -41.408394      46.7237      46.7237      46.7237           90           90           90     102002.7    -660.0895 
  950000       949495   -6881.4724    471.59962    -7353.072    4200.3771   -11553.449    91.346361   -796.28233   -737.27597    -695.0073   -120.61935   -19.131706    67.198267      46.7237      46.7237      46.7237           90           90           90     102002.7    -742.8552 
  951000       950495   -6870.8827    468.00617   -7338.8889     4205.935   -11544.824     90.65033   -395.18065   -752.51877   -956.44978   -291.55969    229.71381     177.8546      46.7237      46.7237      46.7237           90           90           90     102002.7   -701.38307 
  952000       951495   -6864.2268    469.34355   -7333.5703    4214.9427   -11548.513    90.909373     -1020.09   -815.76638   -812.59073   -57.672059   -50.307042   -250.53302      46.7237      46.7237      46.7237           90           90           90     102002.7   -882.81569 
  953000       952495   -6892.9705    464.85266   -7357.8231    4195.6305   -11553.454    90.039511   -530.90712   -954.25018    -1072.846    296.24192   -17.351949    54.364043      46.7237      46.7237      46.7237           90           90           90     102002.7   -852.66776 
  954000       953495   -6860.7033    474.71223   -7335.4155    4223.6789   -11559.094    91.949258   -1165.2912    -634.7561   -800.70611    116.61908    71.511256    176.51886      46.7237      46.7237      46.7237           90           90           90     102002.7   -866.91781 
  955000       954495   -6856.3472    476.94092   -7333.2881    4214.4664   -11547.755    92.380944   -457.62782   -789.25606   -794.89934    66.992203   -24.279965    66.113423      46.7237      46.7237      46.7237           90           90           90     102002.7    -680.5944 
  956000       955495   -6868.0349    467.79553   -7335.8304    4220.1914   -11556.022    90.609529   -657.63863   -1006.6827   -620.82695   -65.408851    165.20946    142.00283      46.7237      46.7237      46.7237           90           90           90     102002.7   -761.71608 
  957000       956495   -6844.5454    474.19474   -7318.7401    4225.7624   -11544.503    91.849024   -767.06225   -535.81903   -825.98194   -94.968337    191.27942   -57.623574      46.7237      46.7237      46.7237           90           90           90     102002.7   -709.62107 
  958000       957495   -6877.1061    471.49724   -7348.6033    4206.8361   -11555.439    91.326531   -498.58959   -453.23469   -567.15306    -205.1228    164.83922    13.551693      46.7237      46.7237      46.7237           90           90           90     102002.7   -506.32578 
  959000       958495   -6849.6655     477.3522   -7327.0177    4221.3542   -11548.372    92.460608   -666.21271    -709.5416   -816.29697    37.627667    10.967753    207.25107      46.7237      46.7237      46.7237           90           90           90     102002.7   -730.68376 
  960000       959495   -6857.5693    463.10762   -7320.6769    4225.5984   -11546.275    89.701506   -565.12525   -455.11583   -1219.8848    45.580119    51.747249     153.4475      46.7237      46.7237      46.7237           90           90           90     102002.7   -746.70861 
  961000       960495   -6881.8427    463.96641   -7345.8091    4204.9471   -11550.756    89.867849   -722.28113   -259.23029   -456.66319   -187.25693   -275.06971   -83.636207      46.7237      46.7237      46.7237           90           90           90     102002.7   -479.39153 
  962000       961495   -6857.7577    466.46053   -7324.2182    4218.3367   -11542.555    90.350947   -683.74475   -888.51966    -776.7966   -30.112127   -233.13039    78.901754      46.7237      46.7237      46.7237           90           90           90     102002.7   -783.02033 
  963000       962495   -6885.9641    467.37699   -7353.3411    4201.9488    -11555.29     90.52846   -540.07313   -735.32831   -705.24395   -129.29365    74.043452   -18.454487      46.7237      46.7237      46.7237           90           90           90     102002.7   -660.21513 
  964000       963495    -6853.278    480.13309   -7333.4111    4220.2212   -11553.632    92.999251   -859.65523   -464.12002   -352.48964     13.19598    -155.0315     29.21045      46.7237      46.7237      46.7237           90           90           90     102002.7   -558.75496 
  965000       964495   -6857.8322    474.60117   -7332.4334    4193.8385   -11526.272    91.927748   -370.94555   -400.42923    -305.3716    73.754708    163.52134    112.58351      46.7237      46.7237      46.7237           90           90           90     102002.7   -358.91546 
  966000       965495   -6880.2343    463.21702   -7343.4513    4208.6496   -11552.101    89.722697   -569.49581   -855.67165   -425.95964    -25.75769    40.477506   -8.6304855      46.7237      46.7237      46.7237           90           90           90     102002.7   -617.04236 
  967000       966495   -6881.8926    461.87545    -7343.768     4190.283   -11534.051    89.462842   -884.87224   -716.78622   -1030.6993    88.237795    156.16014    22.088814      46.7237      46.7237      46.7237           90           90           90     102002.7   -877.45259 
  968000       967495   -6876.7497    471.16801   -7347.9177    4204.8349   -11552.753    91.262761   -648.64932   -647.46468   -467.11943    38.799271    82.463438    53.301812      46.7237      46.7237      46.7237           90           90           90     102002.7   -587.74448 
  969000       968495   -6858.3918    467.04075   -7325.4326    4206.3087   -11531.741    90.463333   -892.48234   -655.02796   -973.63822    110.66196    71.658528    74.879057      46.7237      46.7237      46.7237           90           90           90     102002.7   -840.38284 
  970000       969495   -6899.1196    449.43494   -7348.5546    4201.7676   -11550.322     87.05318    -546.6804   -593.34621   -748.15854    331.53815    197.24705   -117.96631      46.7237      46.7237      46.7237           90           90           90     102002.7   -629.39505 
  971000       970495   -6864.1697    481.16807   -7345.3378    4219.4445   -11564.782    93.199721   -865.17989    -840.9453   -482.35341   -110.13336      14.7074   -24.119322      46.7237      46.7237      46.7237           90           90           90     102002.7   -729.49286 
  972000       971495   -6849.9145    477.20326   -7327.1178    4217.0369   -11544.155    92.431758   -688.49544   -680.94123   -408.75978   -49.551166    -80.72063   -228.63158      46.7237      46.7237      46.7237           90           90           90     102002.7   -592.73215 
  973000       972495   -6871.0861    467.59321   -7338.6793    4219.2398   -11557.919    90.570343   -185.09083   -702.00224   -916.01098    124.80186    13.783781   -26.783714      46.7237      46.7237      46.7237           90           90           90     102002.7   -601.03468 
  974000       973495   -6851.9472    475.30559   -7327.2528    4221.2788   -11548.532    92.064189   -523.97382   -739.50001    -539.9924    120.42954    25.255571   -37.917823      46.7237      46.7237      46.7237           90           90           90     102002.7   -601.15541 
  975000       974495   -6873.5266    471.14909   -7344.6757    4220.9211   -11565.597    91.259096   -715.18303   -1217.6156   -584.59431   -118.31911   -70.956611   -103.86095      46.7237      46.7237      46.7237           90           90           90     102002.7   -839.13097 
  976000       975495   -6846.1734    474.53502   -7320.7084    4232.2844   -11552.993    91.914933   -715.19192   -753.29171   -863.79761    7.9641278   -49.187546   -109.12563      46.7237      46.7237      46.7237           90           90           90     102002.7   -777.42708 
  977000       976495   -6882.2504    470.00644   -7352.2568    4206.0162   -11558.273    91.037771   -818.66479   -523.24198   -929.48516   -84.516197    18.612908   -34.261938      46.7237      46.7237      46.7237           90           90           90     102002.7   -757.13064 
  978000       977495   -6852.1753    474.17635   -7326.3517    4228.0944   -11554.446    91.845462   -1204.2604   -424.72105   -1082.3965   -77.435108    -190.0458   -387.12429      46.7237      46.7237      46.7237           90           90           90     102002.7   -903.79267 
  979000       978495   -6859.9502    480.33925   -7340.2895    4209.3216   -11549.611    93.039183   -808.62076   -350.49771   -570.27096    35.418822    115.59958   -153.53027      46.7237      46.7237      46.7237           90           90           90     102002.7   -576.46314 
  980000       979495   -6896.9046    444.60963   -7341.5142    4193.3704   -11534.885    86.118544   -1377.4259   -774.35799   -1019.6929   -207.73746     75.06135   -20.513333      46.7237      46.7237      46.7237           90           90           90     102002.7   -1057.1589 
  981000       980495    -6870.446    475.25405   -7345.7001    4212.6306   -11558.331    92.054207    -1015.516   -444.24379   -1049.5533   -82.997587   -245.20762   -24.749755      46.7237      46.7237      46.7237           90           90           90     102002.7   -836.43771 
  982000       981495   -6854.3951    490.28433   -7344.6795    4205.2502    -11549.93    94.965491   -454.61982   -978.41205   -541.92389   -109.97977   -16.360293   -74.430297      46.7237      46.7237      46.7237           90           90           90     102002.7   -658.31859 
  983000       982495   -6876.1987    453.48909   -7329.6878    4208.3819    -11538.07    87.838448   -1168.2407   -800.35806   -1217.8963   -82.496852    30.599423   -48.935867      46.7237      46.7237      46.7237           90           90           90     102002.7    -1062.165 
  984000       983495   -6851.9435    474.85689   -7326.8003    4227.5708   -11554.371    91.977278   -618.27945   -965.71829   -1120.2419   -49.253768   -356.37944   -41.570537      46.7237      46.7237      46.7237           90           90           90     102002.7    -901.4132 
  985000       984495   -6856.1253    486.92784   -7343.0531    4210.0224   -11553.075    94.315358   -1162.2019    -823.0664   -929.45574   -169.51247   -129.03141    60.351197      46.7237      46.7237      46.7237           90           90           90     102002.7   -971.57467 
  986000       985495   -6876.8531    469.84975   -7346.7028    4199.7098   -11546.413    91.007421   -742.85409   -497.93253   -508.17807   -85.322527    179.99989   -108.16803      46.7237      46.7237      46.7237           90           90           90     102002.7   -582.98823 
  987000       986495   -6867.8987    474.25668   -7342.1554    4202.1855   -11544.341    91.861021   -981.75124   -308.13463   -718.85428    118.04088    87.157739    72.136726      46.7237      46.7237      46.7237           90           90           90     102002.7   -669.58005 
  988000       987495   -6867.8668    472.70917    -7340.576    4210.4533   -11551.029    91.561277   -459.27066   -615.25627   -776.21389   -174.80571   -63.429678    62.408368      46.7237      46.7237      46.7237           90           90           90     102002.7   -616.91361 
  989000       988495    -6874.182    456.85522   -7331.0372    4216.7541   -11547.791    88.490449   -625.54763   -705.16114   -769.08847    10.789892   -115.85364    -126.9642      46.7237      46.7237      46.7237           90           90           90     102002.7   -699.93241 
  990000       989495   -6856.5762    477.28546   -7333.8617    4216.9087    -11550.77     92.44768   -32.699893   -417.82125   -654.78282   -87.663558    106.62573   -100.19729      46.7237      46.7237      46.7237           90           90           90     102002.7   -368.43466 
  991000       990495   -6881.2803    468.04129   -7349.3216    4198.6713   -11547.993    90.657132   -444.62029   -924.16141   -766.77331     130.8993    35.244202    -32.55536      46.7237      46.7237      46.7237           90           90           90     102002.7   -711.85167 
  992000       991495   -6835.7983    488.97913   -7324.7774    4218.7434   -11543.521    94.712681   -617.55833   -576.99852   -631.59163   -202.59562   -184.07768   -179.31044      46.7237      46.7237      46.7237           90           90           90     102002.7   -608.71616 
  993000       992495   -6884.0506    457.62008   -7341.6707    4218.8735   -11560.544    88.638598   -647.73117    -795.6737   -502.99147   -169.22839   -25.593515    -162.1547      46.7237      46.7237      46.7237           90           90           90     102002.7   -648.79878 
  994000       993495   -6869.3642     471.0281   -7340.3923    4212.5277    -11552.92    91.235662   -898.75373   -346.89341   -769.99553    83.809195   -13.716956    25.961389      46.7237      46.7237      46.7237           90           90           90     102002.7   -671.88089 
  995000       994495   -6863.6193    480.36636   -7343.9857    4189.9481   -11533.934    93.044434   -615.45129   -284.23981   -660.61476    120.81924   -192.36302    62.111665      46.7237      46.7237      46.7237           90           90           90     102002.7   -520.10196 
  996000       995495   -6885.7867    456.80802   -7342.5947    4203.6414   -11546.236    88.481308   -114.99181   -780.66793   -688.37264   -86.184969   -274.17823   -89.449049      46.7237      46.7237      46.7237           90           90           90     102002.7   -528.01079 
  997000       996495   -6862.2249    468.25583   -7330.4807    4209.2888   -11539.769    90.698687    -338.8354   -332.57588   -454.95216    73.839799    148.14844   -108.02697      46.7237      46.7237      46.7237           90           90           90     102002.7   -375.45448 
  998000       997495   -6848.9108    475.49358   -7324.4043    4226.6345   -11551.039    92.100602   -429.35483   -563.32353   -552.11848   -57.692087    103.51681   -157.45521      46.7237      46.7237      46.7237           90           90           90     102002.7   -514.93228 
  999000       998495   -6870.3306    478.67957   -7349.0102    4197.2895     -11546.3    92.717711   -620.03966   -654.31659   -481.94611     77.57923   -54.244035   -198.66335      46.7237      46.7237      46.7237           90           90           90     102002.7   -585.43412 
 1000000       999495   -6847.6256     474.0029   -7321.6285    4238.7348   -11560.363    91.811866   -799.34355   -890.04279   -933.46957   -39.594019    35.148786   -104.00401      46.7237      46.7237      46.7237           90           90           90     102002.7    -874.2853 
 1000505      1000000   -6854.8881     476.2727   -7331.1608    4225.0244   -11556.185    92.251514   -813.80434   -784.45531   -709.71847    111.84325   -45.119904     93.89649      46.7237      46.7237      46.7237           90           90           90     102002.7   -769.32604 
Loop time of 1402.22 on 16 procs for 500000 steps with 1733 atoms

Performance: 30.808 ns/day, 0.779 hours/ns, 356.577 timesteps/s
99.9% CPU use with 16 MPI tasks x no OpenMP threads

MPI task timing breakdown:
Section |  min time  |  avg time  |  max time  |%varavg| %total
---------------------------------------------------------------
Pair    | 567.17     | 767.58     | 951.44     | 467.1 | 54.74
Bond    | 175.9      | 183.28     | 191.35     |  33.8 | 13.07
Neigh   | 2.8186     | 2.8483     | 2.9006     |   1.8 |  0.20
Comm    | 242.4      | 422.06     | 623.02     | 626.1 | 30.10
Output  | 0.097058   | 0.10238    | 0.10284    |   0.4 |  0.01
Modify  | 20.747     | 21.189     | 21.629     |   7.0 |  1.51
Other   |            | 5.16       |            |       |  0.37

Nlocal:    108.312 ave 142 max 78 min
Histogram: 1 2 2 0 3 3 2 1 1 1
Nghost:    2200.56 ave 2223 max 2162 min
Histogram: 1 0 1 0 3 3 3 0 1 4
Neighs:    11455.2 ave 17814 max 7386 min
Histogram: 1 3 4 1 1 4 0 1 0 1

Total # of neighbors = 183284
Ave neighs/atom = 105.761
Ave special neighs/atom = 6.64743
Neighbor list builds = 2504
Dangerous builds = 0
Total wall time: 0:44:38
