LAMMPS (30 Mar 2018)
Reading data file ...
  orthogonal box = (0 0 0) to (46.7237 46.7237 46.7237)
  2 by 3 by 4 MPI processor grid
  reading atoms ...
  2205 atoms
  scanning bonds ...
  5 = max bonds/atom
  scanning angles ...
  10 = max angles/atom
  scanning dihedrals ...
  32 = max dihedrals/atom
  scanning impropers ...
  3 = max impropers/atom
  reading bonds ...
  2064 bonds
  reading angles ...
  3696 angles
  reading dihedrals ...
  6240 dihedrals
  reading impropers ...
  1008 impropers
Finding 1-2 1-3 1-4 neighbors ...
  special bond factors lj:   0          0          0         
  special bond factors coul: 0          0          0         
  5 = max # of 1-2 neighbors
  8 = max # of 1-3 neighbors
  20 = max # of 1-4 neighbors
  19 = max # of special neighbors
Finding 1-2 1-3 1-4 neighbors ...
  special bond factors lj:   0          0          1         
  special bond factors coul: 1          1          1         
  5 = max # of 1-2 neighbors
  8 = max # of 1-3 neighbors
  19 = max # of special neighbors
WARNING: Using 'neigh_modify every 1 delay 0 check yes' setting during minimization (../min.cpp:168)
Neighbor list info ...
  update every 1 steps, delay 0 steps, check yes
  max neighbors/atom: 2000, page size: 100000
  master list distance cutoff = 16
  ghost atom cutoff = 16
  binsize = 8, bins = 6 6 6
  3 neighbor lists, perpetual/occasional/extra = 3 0 0
  (1) pair buck6d/coul/gauss/dsf, perpetual, skip from (3)
      attributes: half, newton on
      pair build: skip
      stencil: none
      bin: none
  (2) pair lj/cut, perpetual, skip from (3)
      attributes: half, newton on
      pair build: skip
      stencil: none
      bin: none
  (3) neighbor class addition, perpetual
      attributes: half, newton on
      pair build: half/bin/newton
      stencil: half/bin/3d/newton
      bin: standard
Setting up cg style minimization ...
  Unit style    : real
  Current step  : 0
WARNING: Inconsistent image flags (../domain.cpp:786)
Per MPI rank memory allocation (min/avg/max) = 22.9 | 23.31 | 24.45 Mbytes
Step Temp E_pair E_mol TotEng Press 
       0            0   -12873.531    6482.8914   -6390.6395    6054.5749 
     501            0   -13083.911    3736.3341   -9347.5771     -782.637 
Loop time of 1.44252 on 24 procs for 501 steps with 2205 atoms

99.1% CPU use with 24 MPI tasks x no OpenMP threads

Minimization stats:
  Stopping criterion = max force evaluations
  Energy initial, next-to-last, final = 
        -6390.63949166     -9347.48122635     -9347.57706848
  Force two-norm initial, final = 2574.56 14.5676
  Force max component initial, final = 152.046 2.9181
  Final line search alpha, max atom move = 0.00318861 0.00930471
  Iterations, force evaluations = 501 1001

MPI task timing breakdown:
Section |  min time  |  avg time  |  max time  |%varavg| %total
---------------------------------------------------------------
Pair    | 0.53376    | 0.74463    | 0.99102    |  14.0 | 51.62
Bond    | 0.11558    | 0.15774    | 0.18642    |   4.9 | 10.93
Neigh   | 0.013059   | 0.01362    | 0.014364   |   0.3 |  0.94
Comm    | 0.24618    | 0.50215    | 0.72485    |  17.3 | 34.81
Output  | 0          | 0          | 0          |   0.0 |  0.00
Modify  | 0          | 0          | 0          |   0.0 |  0.00
Other   |            | 0.02438    |            |       |  1.69

Nlocal:    91.875 ave 110 max 66 min
Histogram: 1 0 2 3 5 1 3 3 2 4
Nghost:    2454.12 ave 2623 max 2346 min
Histogram: 5 10 1 0 0 0 0 0 2 6
Neighs:    7638.29 ave 12981 max 4391 min
Histogram: 2 5 4 1 5 3 1 2 0 1

Total # of neighbors = 183319
Ave neighs/atom = 83.1379
Ave special neighs/atom = 5.22449
Neighbor list builds = 14
Dangerous builds = 0
Neighbor list info ...
  update every 1 steps, delay 10 steps, check yes
  max neighbors/atom: 2000, page size: 100000
  master list distance cutoff = 16
  ghost atom cutoff = 16
  binsize = 8, bins = 6 6 6
  3 neighbor lists, perpetual/occasional/extra = 3 0 0
  (1) pair buck6d/coul/gauss/dsf, perpetual, skip from (3)
      attributes: half, newton on
      pair build: skip
      stencil: none
      bin: none
  (2) pair lj/cut, perpetual, skip from (3)
      attributes: half, newton on
      pair build: skip
      stencil: none
      bin: none
  (3) neighbor class addition, perpetual
      attributes: half, newton on
      pair build: half/bin/newton
      stencil: half/bin/3d/newton
      bin: standard
Setting up Verlet run ...
  Unit style    : real
  Current step  : 501
  Time step     : 1
WARNING: Inconsistent image flags (../domain.cpp:786)
Per MPI rank memory allocation (min/avg/max) = 22.55 | 22.74 | 23.33 Mbytes
Step Temp PotEng TotEng Press Volume Lx Ly Lz 
     501          110   -9347.5771   -8624.9095   -458.77518     102002.7      46.7237      46.7237      46.7237 
    1000    92.083157   -8699.1821   -8094.2229   -636.71362     102002.7      46.7237      46.7237      46.7237 
    2000    113.77093   -8611.5752   -7864.1337   -887.57359     102002.7      46.7237      46.7237      46.7237 
    3000    111.56112   -8579.9427    -7847.019   -546.37912     102002.7      46.7237      46.7237      46.7237 
    4000    108.46259   -8569.1389   -7856.5717   -820.97963     102002.7      46.7237      46.7237      46.7237 
    5000    107.47639   -8586.1768   -7880.0886   -789.04163     102002.7      46.7237      46.7237      46.7237 
    6000    107.24243   -8584.0623   -7879.5111   -800.49034     102002.7      46.7237      46.7237      46.7237 
    7000    108.87375   -8571.8664   -7856.5979   -805.28888     102002.7      46.7237      46.7237      46.7237 
    8000     114.4934    -8577.641   -7825.4531   -611.08804     102002.7      46.7237      46.7237      46.7237 
    9000    109.17524   -8588.0347   -7870.7856   -784.18236     102002.7      46.7237      46.7237      46.7237 
   10000    111.17718   -8577.9435   -7847.5421   -931.60823     102002.7      46.7237      46.7237      46.7237 
   11000    109.18318   -8584.7404   -7867.4391   -835.10303     102002.7      46.7237      46.7237      46.7237 
   12000    112.06824   -8570.6712   -7834.4159   -567.23293     102002.7      46.7237      46.7237      46.7237 
   13000    107.15804   -8617.1578   -7913.1611   -869.31403     102002.7      46.7237      46.7237      46.7237 
   14000    109.06039   -8572.3878   -7855.8931   -895.22973     102002.7      46.7237      46.7237      46.7237 
   15000    110.76325   -8587.0515   -7859.3696    -448.4796     102002.7      46.7237      46.7237      46.7237 
   16000    111.06987   -8587.6955   -7857.9992   -731.80441     102002.7      46.7237      46.7237      46.7237 
   17000    107.82346   -8596.3304    -7887.962   -616.99805     102002.7      46.7237      46.7237      46.7237 
   18000    111.15814    -8582.102   -7851.8257   -843.70834     102002.7      46.7237      46.7237      46.7237 
   19000    110.28619   -8592.2643   -7867.7165   -902.14037     102002.7      46.7237      46.7237      46.7237 
   20000    104.92503   -8599.0403   -7909.7137   -831.52797     102002.7      46.7237      46.7237      46.7237 
   21000    111.93476   -8607.7669   -7872.3885   -822.88447     102002.7      46.7237      46.7237      46.7237 
   22000    108.40998   -8571.9759   -7859.7543   -748.98927     102002.7      46.7237      46.7237      46.7237 
   23000    109.44058   -8598.4061   -7879.4138   -666.42977     102002.7      46.7237      46.7237      46.7237 
   24000    109.40094   -8574.5798   -7855.8479   -620.88377     102002.7      46.7237      46.7237      46.7237 
   25000    112.32571   -8570.7775   -7832.8307   -850.41222     102002.7      46.7237      46.7237      46.7237 
   26000    108.22551   -8579.3786   -7868.3689   -699.87369     102002.7      46.7237      46.7237      46.7237 
   27000    112.42262   -8561.0636   -7822.4801   -717.52884     102002.7      46.7237      46.7237      46.7237 
   28000    108.56007   -8574.4143   -7861.2066   -1158.2976     102002.7      46.7237      46.7237      46.7237 
   29000    110.38419   -8571.7144   -7846.5229   -841.85731     102002.7      46.7237      46.7237      46.7237 
   30000    110.17713   -8582.4365   -7858.6052   -777.50458     102002.7      46.7237      46.7237      46.7237 
   31000    110.27578   -8551.0955   -7826.6161   -854.63185     102002.7      46.7237      46.7237      46.7237 
   32000    105.95571   -8587.1682   -7891.0703   -758.23897     102002.7      46.7237      46.7237      46.7237 
   33000    108.85659   -8590.1078   -7874.9521   -886.54194     102002.7      46.7237      46.7237      46.7237 
   34000    110.08063   -8595.1248   -7871.9275   -788.29126     102002.7      46.7237      46.7237      46.7237 
   35000    109.08027   -8583.9023   -7867.2771   -604.01053     102002.7      46.7237      46.7237      46.7237 
   36000    108.32776   -8579.7312   -7868.0497   -711.43304     102002.7      46.7237      46.7237      46.7237 
   37000    111.81777   -8588.7661   -7854.1563   -612.41133     102002.7      46.7237      46.7237      46.7237 
   38000    111.86491    -8578.272   -7843.3525   -932.91518     102002.7      46.7237      46.7237      46.7237 
   39000    107.77129   -8601.0857   -7893.0601   -873.67321     102002.7      46.7237      46.7237      46.7237 
   40000    108.94097   -8585.2371    -7869.527    -860.2355     102002.7      46.7237      46.7237      46.7237 
   41000    110.67139   -8591.5118   -7864.4334   -874.16831     102002.7      46.7237      46.7237      46.7237 
   42000    111.80195   -8585.8895   -7851.3836   -891.78462     102002.7      46.7237      46.7237      46.7237 
   43000    111.20041   -8587.2348   -7856.6809   -989.55313     102002.7      46.7237      46.7237      46.7237 
   44000    112.78377    -8585.869   -7844.9128   -468.14229     102002.7      46.7237      46.7237      46.7237 
   45000    112.29949   -8603.3641   -7865.5895   -774.90471     102002.7      46.7237      46.7237      46.7237 
   46000    108.62321   -8584.2219   -7870.5995    -1067.327     102002.7      46.7237      46.7237      46.7237 
   47000    114.18368   -8547.8314   -7797.6783   -754.95473     102002.7      46.7237      46.7237      46.7237 
   48000    109.15074   -8591.5196   -7874.4314   -853.41029     102002.7      46.7237      46.7237      46.7237 
   49000    107.69172   -8575.5803   -7868.0774   -975.61139     102002.7      46.7237      46.7237      46.7237 
   50000    111.65108   -8582.7802   -7849.2655   -1025.3272     102002.7      46.7237      46.7237      46.7237 
   51000    111.07947   -8584.6665   -7854.9071   -979.04778     102002.7      46.7237      46.7237      46.7237 
   52000    111.69188   -8592.9052   -7859.1225   -397.36042     102002.7      46.7237      46.7237      46.7237 
   53000    110.51543   -8565.0562   -7839.0024   -877.07027     102002.7      46.7237      46.7237      46.7237 
   54000    113.01547   -8571.7095   -7829.2311   -915.16066     102002.7      46.7237      46.7237      46.7237 
   55000    111.53546    -8579.875   -7847.1199   -706.47787     102002.7      46.7237      46.7237      46.7237 
   56000    107.66504   -8593.7799   -7886.4524   -814.05595     102002.7      46.7237      46.7237      46.7237 
   57000    112.88856   -8565.2314   -7823.5868   -934.24196     102002.7      46.7237      46.7237      46.7237 
   58000    109.70309   -8598.5803   -7877.8633   -901.46364     102002.7      46.7237      46.7237      46.7237 
   59000    112.02164   -8562.0026   -7826.0535   -850.78642     102002.7      46.7237      46.7237      46.7237 
   60000    110.71435   -8597.1693   -7869.8086   -847.47918     102002.7      46.7237      46.7237      46.7237 
   61000    108.07591   -8587.9637   -7877.9368    -963.7375     102002.7      46.7237      46.7237      46.7237 
   62000    109.95997    -8570.415   -7848.0104   -626.40172     102002.7      46.7237      46.7237      46.7237 
   63000    108.67373   -8577.3123    -7863.358   -601.68918     102002.7      46.7237      46.7237      46.7237 
   64000    110.41104   -8584.6975   -7859.3295   -937.33492     102002.7      46.7237      46.7237      46.7237 
   65000      109.718    -8590.661   -7869.8461   -612.36371     102002.7      46.7237      46.7237      46.7237 
   66000    111.29838   -8606.1285   -7874.9309   -688.97188     102002.7      46.7237      46.7237      46.7237 
   67000     109.9383   -8604.0795   -7881.8173   -987.19106     102002.7      46.7237      46.7237      46.7237 
   68000    108.46833   -8593.2023   -7880.5973   -831.41563     102002.7      46.7237      46.7237      46.7237 
   69000    113.88919   -8599.6439   -7851.4254   -908.03978     102002.7      46.7237      46.7237      46.7237 
   70000    110.03375   -8575.6086   -7852.7192   -797.44345     102002.7      46.7237      46.7237      46.7237 
   71000    108.91634   -8572.0741   -7856.5258   -960.77619     102002.7      46.7237      46.7237      46.7237 
   72000    111.34119   -8586.9277   -7855.4489   -845.14225     102002.7      46.7237      46.7237      46.7237 
   73000    108.69859   -8595.4712   -7881.3535   -1042.0874     102002.7      46.7237      46.7237      46.7237 
   74000    106.19416   -8581.5959   -7883.9316   -750.60829     102002.7      46.7237      46.7237      46.7237 
   75000    111.02953    -8574.548   -7845.1167   -787.17528     102002.7      46.7237      46.7237      46.7237 
   76000     109.1575   -8573.6041   -7856.4715   -920.68443     102002.7      46.7237      46.7237      46.7237 
   77000    108.23116   -8583.8962   -7872.8494   -1125.0211     102002.7      46.7237      46.7237      46.7237 
   78000    108.38684   -8597.6381   -7885.5684   -1107.6633     102002.7      46.7237      46.7237      46.7237 
   79000    109.76907   -8570.4389   -7849.2884    -842.0334     102002.7      46.7237      46.7237      46.7237 
   80000    113.66688   -8595.6839    -7848.926    -652.2269     102002.7      46.7237      46.7237      46.7237 
   81000    111.77374   -8585.9257   -7851.6052   -912.95608     102002.7      46.7237      46.7237      46.7237 
   82000    107.03833   -8594.4398   -7891.2296   -865.47499     102002.7      46.7237      46.7237      46.7237 
   83000    109.19977   -8593.3023    -7875.892   -921.69406     102002.7      46.7237      46.7237      46.7237 
   84000    109.33736   -8600.7725   -7882.4582   -686.31941     102002.7      46.7237      46.7237      46.7237 
   85000    110.39451   -8571.8853   -7846.6259   -573.89997     102002.7      46.7237      46.7237      46.7237 
   86000    110.97865   -8583.3578   -7854.2608   -990.10335     102002.7      46.7237      46.7237      46.7237 
   87000    109.86586   -8578.4225   -7856.6362    -795.8494     102002.7      46.7237      46.7237      46.7237 
   88000    110.82496   -8575.8566   -7847.7692   -844.76322     102002.7      46.7237      46.7237      46.7237 
   89000    110.95108    -8579.745   -7850.8291   -724.37775     102002.7      46.7237      46.7237      46.7237 
   90000    110.51167   -8558.1819   -7832.1529   -703.52477     102002.7      46.7237      46.7237      46.7237 
   91000    110.01595    -8573.033   -7850.2606   -1093.1528     102002.7      46.7237      46.7237      46.7237 
   92000    108.72613   -8567.7927    -7853.494   -921.35267     102002.7      46.7237      46.7237      46.7237 
   93000    109.26581   -8571.4318   -7853.5876   -943.78973     102002.7      46.7237      46.7237      46.7237 
   94000    109.49309   -8590.8251   -7871.4877   -930.43102     102002.7      46.7237      46.7237      46.7237 
   95000    113.64495   -8585.5676   -7838.9537   -716.41795     102002.7      46.7237      46.7237      46.7237 
   96000     112.4443   -8568.2066   -7829.4807   -918.62824     102002.7      46.7237      46.7237      46.7237 
   97000    108.47722   -8572.0868   -7859.4235   -612.47328     102002.7      46.7237      46.7237      46.7237 
   98000    107.47826   -8584.5099   -7878.4094   -500.26135     102002.7      46.7237      46.7237      46.7237 
   99000    107.50334   -8546.8673   -7840.6021   -625.74673     102002.7      46.7237      46.7237      46.7237 
  100000    109.65276   -8568.9557   -7848.5694   -564.17769     102002.7      46.7237      46.7237      46.7237 
  101000    111.12124   -8569.2206   -7839.1868   -828.82688     102002.7      46.7237      46.7237      46.7237 
  102000     110.2605   -8565.6211   -7841.2421    -581.0746     102002.7      46.7237      46.7237      46.7237 
  103000    109.47019   -8589.7446   -7870.5577   -591.48199     102002.7      46.7237      46.7237      46.7237 
  104000    110.59211   -8579.7444   -7853.1869   -1002.2238     102002.7      46.7237      46.7237      46.7237 
  105000    110.34534   -8554.2282   -7829.2918   -850.89991     102002.7      46.7237      46.7237      46.7237 
  106000    109.13021    -8557.909   -7840.9556   -867.08606     102002.7      46.7237      46.7237      46.7237 
  107000    109.49874   -8581.2772   -7861.9027   -764.04681     102002.7      46.7237      46.7237      46.7237 
  108000    109.35297   -8562.8726   -7844.4558   -724.35979     102002.7      46.7237      46.7237      46.7237 
  109000     108.8873   -8549.4808   -7834.1233   -826.56124     102002.7      46.7237      46.7237      46.7237 
  110000    108.49333   -8557.8741   -7845.1049   -801.85798     102002.7      46.7237      46.7237      46.7237 
  111000    110.45844   -8559.8249   -7834.1456   -971.32167     102002.7      46.7237      46.7237      46.7237 
  112000    108.32274   -8558.0669   -7846.4184   -912.82626     102002.7      46.7237      46.7237      46.7237 
  113000    112.82436   -8589.5839   -7848.3611    -820.8418     102002.7      46.7237      46.7237      46.7237 
  114000     109.1119   -8592.8489   -7876.0159   -650.36242     102002.7      46.7237      46.7237      46.7237 
  115000    113.81766   -8580.9999   -7833.2514   -536.01166     102002.7      46.7237      46.7237      46.7237 
  116000     109.6037   -8587.1074   -7867.0434   -1035.5584     102002.7      46.7237      46.7237      46.7237 
  117000     107.2013   -8588.6862   -7884.4052    -1079.332     102002.7      46.7237      46.7237      46.7237 
  118000    113.01988   -8581.5725   -7839.0652   -975.62443     102002.7      46.7237      46.7237      46.7237 
  119000    107.45614   -8578.1725   -7872.2173   -885.43465     102002.7      46.7237      46.7237      46.7237 
  120000    110.18086   -8569.0498    -7845.194   -1043.3857     102002.7      46.7237      46.7237      46.7237 
  121000    111.12775    -8567.659   -7837.5824   -1065.0897     102002.7      46.7237      46.7237      46.7237 
  122000    113.33866   -8579.7358   -7835.1342   -759.15393     102002.7      46.7237      46.7237      46.7237 
  123000     110.3949    -8570.482     -7845.22   -893.82093     102002.7      46.7237      46.7237      46.7237 
  124000    111.87327   -8578.0833   -7843.1088   -831.86131     102002.7      46.7237      46.7237      46.7237 
  125000    113.63104   -8568.0799   -7821.5574   -788.56767     102002.7      46.7237      46.7237      46.7237 
  126000    110.87025   -8604.3513   -7875.9664   -743.19721     102002.7      46.7237      46.7237      46.7237 
  127000    108.43188   -8557.7286   -7845.3631   -866.94479     102002.7      46.7237      46.7237      46.7237 
  128000    110.82684   -8577.5031   -7849.4034   -893.06365     102002.7      46.7237      46.7237      46.7237 
  129000    109.61495   -8582.4684   -7862.3304   -941.07447     102002.7      46.7237      46.7237      46.7237 
  130000    109.49846   -8594.5523   -7875.1797   -1006.0429     102002.7      46.7237      46.7237      46.7237 
  131000    109.93498   -8593.4105   -7871.1701   -1011.8958     102002.7      46.7237      46.7237      46.7237 
  132000    111.89506   -8572.9852   -7837.8676   -1182.2498     102002.7      46.7237      46.7237      46.7237 
  133000    112.13521   -8585.8672   -7849.1719   -883.97131     102002.7      46.7237      46.7237      46.7237 
  134000    109.91692   -8565.2504   -7843.1286   -926.62699     102002.7      46.7237      46.7237      46.7237 
  135000    107.80017   -8591.8913   -7883.6759   -1154.2641     102002.7      46.7237      46.7237      46.7237 
  136000    106.61961   -8564.9254   -7864.4659   -797.66338     102002.7      46.7237      46.7237      46.7237 
  137000    113.45264   -8575.9992   -7830.6488   -745.49886     102002.7      46.7237      46.7237      46.7237 
  138000    110.11641   -8579.9767   -7856.5443   -1075.9876     102002.7      46.7237      46.7237      46.7237 
  139000    107.81371   -8590.7284   -7882.4241   -1010.7901     102002.7      46.7237      46.7237      46.7237 
  140000    106.78188   -8542.8427   -7841.3172   -603.67517     102002.7      46.7237      46.7237      46.7237 
  141000     109.7227   -8582.6606   -7861.8148   -730.28049     102002.7      46.7237      46.7237      46.7237 
  142000    110.92075   -8554.3939   -7825.6772   -509.74266     102002.7      46.7237      46.7237      46.7237 
  143000    109.98024   -8561.1332   -7838.5954   -353.08962     102002.7      46.7237      46.7237      46.7237 
  144000    110.80141   -8560.7714   -7832.8388    -634.6544     102002.7      46.7237      46.7237      46.7237 
  145000    108.64656   -8563.2208   -7849.4449   -687.23138     102002.7      46.7237      46.7237      46.7237 
  146000    109.72449   -8591.8779   -7871.0203   -649.50576     102002.7      46.7237      46.7237      46.7237 
  147000    111.12752   -8560.4508   -7830.3757   -596.09719     102002.7      46.7237      46.7237      46.7237 
  148000    107.52114   -8588.0284   -7881.6462   -453.21578     102002.7      46.7237      46.7237      46.7237 
  149000    106.28251   -8568.6146   -7870.3699   -589.60463     102002.7      46.7237      46.7237      46.7237 
  150000    110.03803   -8565.8866   -7842.9691    -597.7233     102002.7      46.7237      46.7237      46.7237 
  151000    109.05306   -8591.6321   -7875.1857    -735.7792     102002.7      46.7237      46.7237      46.7237 
  152000     112.7141   -8566.1501   -7825.6517   -766.57214     102002.7      46.7237      46.7237      46.7237 
  153000    109.94546   -8591.3392   -7869.0299   -711.88913     102002.7      46.7237      46.7237      46.7237 
  154000     108.0214   -8574.6248   -7864.9561   -843.93289     102002.7      46.7237      46.7237      46.7237 
  155000    110.45862   -8590.1861   -7864.5055   -823.15827     102002.7      46.7237      46.7237      46.7237 
  156000    112.26616   -8569.1638   -7831.6082    -633.9809     102002.7      46.7237      46.7237      46.7237 
  157000    113.37849    -8578.452   -7833.5887   -916.65308     102002.7      46.7237      46.7237      46.7237 
  158000    111.83949   -8604.8615    -7870.109   -714.46921     102002.7      46.7237      46.7237      46.7237 
  159000     110.8944   -8561.3012   -7832.7577   -796.16114     102002.7      46.7237      46.7237      46.7237 
  160000    110.74266   -8581.7198   -7854.1732   -882.86892     102002.7      46.7237      46.7237      46.7237 
  161000    111.66557   -8580.3703   -7846.7605   -770.16061     102002.7      46.7237      46.7237      46.7237 
  162000    106.98112   -8594.0572   -7891.2228   -901.98873     102002.7      46.7237      46.7237      46.7237 
  163000    107.37065   -8569.8193   -7864.4258   -841.57508     102002.7      46.7237      46.7237      46.7237 
  164000    115.69058   -8568.7477   -7808.6947   -1020.2896     102002.7      46.7237      46.7237      46.7237 
  165000    108.76517    -8570.206   -7855.6508   -998.72273     102002.7      46.7237      46.7237      46.7237 
  166000    107.81475   -8576.4432    -7868.132    -899.0803     102002.7      46.7237      46.7237      46.7237 
  167000    111.55081   -8578.0637   -7845.2077   -998.91176     102002.7      46.7237      46.7237      46.7237 
  168000     107.1083   -8583.3864   -7879.7165   -804.50201     102002.7      46.7237      46.7237      46.7237 
  169000    109.37949   -8585.2984   -7866.7074   -1032.2501     102002.7      46.7237      46.7237      46.7237 
  170000    112.58682   -8584.0994   -7844.4372   -773.11416     102002.7      46.7237      46.7237      46.7237 
  171000    109.08057   -8587.1919   -7870.5647   -817.28833     102002.7      46.7237      46.7237      46.7237 
  172000    111.35551   -8562.5582   -7830.9853   -925.85866     102002.7      46.7237      46.7237      46.7237 
  173000    107.41779   -8569.9384   -7864.2352    -1066.005     102002.7      46.7237      46.7237      46.7237 
  174000    108.72394    -8555.696   -7841.4117   -949.08206     102002.7      46.7237      46.7237      46.7237 
  175000    109.32128   -8584.8121   -7866.6035    -897.2459     102002.7      46.7237      46.7237      46.7237 
  176000    108.64434    -8573.599   -7859.8377   -935.86632     102002.7      46.7237      46.7237      46.7237 
  177000    111.26023   -8570.6565   -7839.7096   -726.19878     102002.7      46.7237      46.7237      46.7237 
  178000    110.17071   -8581.4194   -7857.6303   -827.40931     102002.7      46.7237      46.7237      46.7237 
  179000    111.74184    -8592.879    -7858.768    -541.8938     102002.7      46.7237      46.7237      46.7237 
  180000    108.90027   -8594.3948   -7878.9522   -846.26344     102002.7      46.7237      46.7237      46.7237 
  181000    106.25631   -8575.5812   -7877.5085   -633.85092     102002.7      46.7237      46.7237      46.7237 
  182000    110.07196   -8592.1324    -7868.992   -786.27036     102002.7      46.7237      46.7237      46.7237 
  183000    111.95303   -8594.1989   -7858.7005    -954.0928     102002.7      46.7237      46.7237      46.7237 
  184000    112.29855   -8564.8028   -7827.0345   -778.81401     102002.7      46.7237      46.7237      46.7237 
  185000    111.67793   -8564.4923   -7830.8012   -595.85105     102002.7      46.7237      46.7237      46.7237 
  186000    110.76606   -8580.0316   -7852.3312   -433.10781     102002.7      46.7237      46.7237      46.7237 
  187000    110.92094   -8564.9643   -7836.2463   -609.64773     102002.7      46.7237      46.7237      46.7237 
  188000    111.04684   -8568.6238   -7839.0788   -843.09674     102002.7      46.7237      46.7237      46.7237 
  189000    112.16972   -8586.7421     -7849.82   -538.18118     102002.7      46.7237      46.7237      46.7237 
  190000    111.42401   -8572.7452   -7840.7223   -842.99697     102002.7      46.7237      46.7237      46.7237 
  191000      111.225   -8586.4735    -7855.758    -817.0475     102002.7      46.7237      46.7237      46.7237 
  192000    106.74965   -8564.8161   -7863.5023   -911.04776     102002.7      46.7237      46.7237      46.7237 
  193000    112.74663   -8556.4873   -7815.7751   -1001.5748     102002.7      46.7237      46.7237      46.7237 
  194000     111.3329   -8592.6497   -7861.2253   -1139.4329     102002.7      46.7237      46.7237      46.7237 
  195000    109.22671   -8583.4252   -7865.8379   -834.23743     102002.7      46.7237      46.7237      46.7237 
  196000    110.42173   -8612.5802    -7887.142   -624.27551     102002.7      46.7237      46.7237      46.7237 
  197000    110.54966   -8577.9549   -7851.6762   -766.45486     102002.7      46.7237      46.7237      46.7237 
  198000    110.29006   -8560.6286   -7836.0554   -799.03105     102002.7      46.7237      46.7237      46.7237 
  199000    110.95845   -8588.1348   -7859.1705   -860.44933     102002.7      46.7237      46.7237      46.7237 
  200000    112.94932   -8567.2267    -7825.183   -898.24962     102002.7      46.7237      46.7237      46.7237 
  201000    112.34934   -8586.8984   -7848.7963   -1098.8283     102002.7      46.7237      46.7237      46.7237 
  202000    110.92951   -8576.3249   -7847.5507   -688.68114     102002.7      46.7237      46.7237      46.7237 
  203000    109.53856   -8610.5254   -7890.8893   -905.56364     102002.7      46.7237      46.7237      46.7237 
  204000    110.10267   -8588.0727   -7864.7306   -790.40312     102002.7      46.7237      46.7237      46.7237 
  205000    111.77814   -8585.1665    -7850.817   -761.45231     102002.7      46.7237      46.7237      46.7237 
  206000    109.68513   -8592.4115   -7871.8125   -704.70419     102002.7      46.7237      46.7237      46.7237 
  207000    108.77968   -8589.2862   -7874.6357   -576.63829     102002.7      46.7237      46.7237      46.7237 
  208000     107.8919   -8573.0086   -7864.1906   -709.61408     102002.7      46.7237      46.7237      46.7237 
  209000    109.15833   -8591.7099   -7874.5718   -778.25683     102002.7      46.7237      46.7237      46.7237 
  210000    108.63296   -8589.2992   -7875.6126   -1008.5502     102002.7      46.7237      46.7237      46.7237 
  211000    112.43115   -8588.4737   -7849.8342   -723.30966     102002.7      46.7237      46.7237      46.7237 
  212000    110.18662   -8597.1011   -7873.2075     -706.289     102002.7      46.7237      46.7237      46.7237 
  213000     109.3142   -8599.5418   -7881.3797     -782.695     102002.7      46.7237      46.7237      46.7237 
  214000    109.18821   -8598.6431   -7881.3087   -610.18707     102002.7      46.7237      46.7237      46.7237 
  215000    111.42228   -8597.7378   -7865.7262   -1062.7801     102002.7      46.7237      46.7237      46.7237 
  216000    111.00796   -8573.7241   -7844.4345   -718.11332     102002.7      46.7237      46.7237      46.7237 
  217000     116.1285   -8585.3517   -7822.4217   -567.09505     102002.7      46.7237      46.7237      46.7237 
  218000    108.80593   -8582.0481   -7867.2252    -731.2766     102002.7      46.7237      46.7237      46.7237 
  219000    105.64498   -8556.1067   -7862.0503   -707.69848     102002.7      46.7237      46.7237      46.7237 
  220000    108.89083   -8590.2067    -7874.826   -741.49635     102002.7      46.7237      46.7237      46.7237 
  221000    109.00219   -8587.1043    -7870.992   -722.87957     102002.7      46.7237      46.7237      46.7237 
  222000    110.68572    -8569.743   -7842.5704   -767.99196     102002.7      46.7237      46.7237      46.7237 
  223000    109.23277   -8577.0416   -7859.4145   -615.85526     102002.7      46.7237      46.7237      46.7237 
  224000    110.70527   -8565.5854   -7838.2844   -507.29073     102002.7      46.7237      46.7237      46.7237 
  225000    110.11416   -8595.4107   -7871.9931   -740.99305     102002.7      46.7237      46.7237      46.7237 
  226000    109.87967   -8614.9206   -7893.0435   -794.95138     102002.7      46.7237      46.7237      46.7237 
  227000    108.30846   -8580.5687   -7869.0141   -1039.2679     102002.7      46.7237      46.7237      46.7237 
  228000    112.19768   -8551.4761   -7814.3704   -708.36693     102002.7      46.7237      46.7237      46.7237 
  229000    109.10664   -8595.7149   -7878.9165   -853.01064     102002.7      46.7237      46.7237      46.7237 
  230000    109.46504   -8579.6258   -7860.4728   -1006.5522     102002.7      46.7237      46.7237      46.7237 
  231000    110.02225   -8584.8331   -7862.0193   -580.41409     102002.7      46.7237      46.7237      46.7237 
  232000    111.41595   -8577.6362   -7845.6663   -679.27851     102002.7      46.7237      46.7237      46.7237 
  233000    108.27462   -8604.1156   -7892.7833   -538.37617     102002.7      46.7237      46.7237      46.7237 
  234000    109.44696   -8576.7196   -7857.6853    -759.8758     102002.7      46.7237      46.7237      46.7237 
  235000      108.213    -8569.237   -7858.3095   -681.38341     102002.7      46.7237      46.7237      46.7237 
  236000    112.16442   -8583.9672     -7847.08   -851.18598     102002.7      46.7237      46.7237      46.7237 
  237000    110.54565   -8604.2487   -7877.9964   -806.61058     102002.7      46.7237      46.7237      46.7237 
  238000    111.07329   -8603.9812   -7874.2624   -1123.0973     102002.7      46.7237      46.7237      46.7237 
  239000    112.26396   -8571.5131   -7833.9719    -955.2641     102002.7      46.7237      46.7237      46.7237 
  240000    109.18498   -8581.8986   -7864.5855   -928.10898     102002.7      46.7237      46.7237      46.7237 
  241000     109.2251   -8593.1068   -7875.5301   -776.58323     102002.7      46.7237      46.7237      46.7237 
  242000    110.32297   -8586.7185   -7861.9291    -1095.228     102002.7      46.7237      46.7237      46.7237 
  243000    112.59829   -8606.3027   -7866.5651   -1100.8132     102002.7      46.7237      46.7237      46.7237 
  244000    114.35277   -8575.4181   -7824.1542   -1050.9342     102002.7      46.7237      46.7237      46.7237 
  245000    110.65625   -8588.8591   -7861.8801   -1049.7616     102002.7      46.7237      46.7237      46.7237 
  246000    113.22257   -8592.9476   -7849.1087   -629.57522     102002.7      46.7237      46.7237      46.7237 
  247000    110.09183   -8575.7237   -7852.4528    -1068.923     102002.7      46.7237      46.7237      46.7237 
  248000    111.86033   -8602.7614    -7867.872   -952.12817     102002.7      46.7237      46.7237      46.7237 
  249000    110.20728    -8609.337   -7885.3077   -816.99261     102002.7      46.7237      46.7237      46.7237 
  250000     109.0222   -8577.9941   -7861.7503   -1077.2207     102002.7      46.7237      46.7237      46.7237 
  251000    114.75633   -8594.4474   -7840.5322   -897.98826     102002.7      46.7237      46.7237      46.7237 
  252000    111.69828    -8586.521   -7852.6962   -707.27897     102002.7      46.7237      46.7237      46.7237 
  253000    110.82206   -8603.2822   -7875.2139   -583.25524     102002.7      46.7237      46.7237      46.7237 
  254000    110.16598   -8604.3124   -7880.5543    -628.1939     102002.7      46.7237      46.7237      46.7237 
  255000    109.19687   -8579.1646   -7861.7733   -716.09558     102002.7      46.7237      46.7237      46.7237 
  256000    108.33878   -8572.8681   -7861.1142   -708.58908     102002.7      46.7237      46.7237      46.7237 
  257000    108.33906   -8581.7137    -7869.958   -737.16923     102002.7      46.7237      46.7237      46.7237 
  258000    109.64229    -8600.401   -7880.0835   -1124.0536     102002.7      46.7237      46.7237      46.7237 
  259000    111.60011   -8586.9928    -7853.813   -853.59914     102002.7      46.7237      46.7237      46.7237 
  260000    108.82262   -8578.9765    -7864.044    -950.8779     102002.7      46.7237      46.7237      46.7237 
  261000    110.55774   -8594.8731   -7868.5413   -968.42397     102002.7      46.7237      46.7237      46.7237 
  262000    110.66154   -8590.3032   -7863.2895   -747.75944     102002.7      46.7237      46.7237      46.7237 
  263000    109.23875   -8580.6192   -7862.9528   -873.20257     102002.7      46.7237      46.7237      46.7237 
  264000    110.03837   -8574.4229   -7851.5032    -876.3661     102002.7      46.7237      46.7237      46.7237 
  265000    110.61197   -8595.8907   -7869.2026   -911.50932     102002.7      46.7237      46.7237      46.7237 
  266000    110.28671   -8574.7357   -7850.1845   -1122.3598     102002.7      46.7237      46.7237      46.7237 
  267000    110.26086   -8580.5112   -7856.1299   -1014.8134     102002.7      46.7237      46.7237      46.7237 
  268000    112.75667   -8595.4963   -7854.7182   -1152.2714     102002.7      46.7237      46.7237      46.7237 
  269000    112.83883   -8591.6826   -7850.3648   -989.16528     102002.7      46.7237      46.7237      46.7237 
  270000    108.35357   -8581.3866   -7869.5355   -817.85795     102002.7      46.7237      46.7237      46.7237 
  271000    110.80507   -8616.2752   -7888.3186   -668.94585     102002.7      46.7237      46.7237      46.7237 
  272000    108.78244   -8593.1116    -7878.443   -825.02038     102002.7      46.7237      46.7237      46.7237 
  273000    110.63528   -8588.2932    -7861.452   -988.21082     102002.7      46.7237      46.7237      46.7237 
  274000    108.06758   -8587.7141   -7877.7419    -486.6492     102002.7      46.7237      46.7237      46.7237 
  275000    109.26062   -8585.8988   -7868.0887   -530.48458     102002.7      46.7237      46.7237      46.7237 
  276000    111.74509   -8598.7233    -7864.591   -562.86216     102002.7      46.7237      46.7237      46.7237 
  277000    110.16182   -8568.8312   -7845.1005   -409.81799     102002.7      46.7237      46.7237      46.7237 
  278000     108.2103   -8591.8953   -7880.9854   -631.98716     102002.7      46.7237      46.7237      46.7237 
  279000    109.19789   -8564.0142   -7846.6163   -527.39656     102002.7      46.7237      46.7237      46.7237 
  280000    112.08442   -8574.4068   -7838.0452   -869.24837     102002.7      46.7237      46.7237      46.7237 
  281000    111.23633   -8589.4144   -7858.6245   -917.45181     102002.7      46.7237      46.7237      46.7237 
  282000    112.13234   -8596.7354   -7860.0589   -1061.5538     102002.7      46.7237      46.7237      46.7237 
  283000    110.51482   -8598.0038    -7871.954   -871.64293     102002.7      46.7237      46.7237      46.7237 
  284000    106.49983   -8578.8995    -7879.227   -578.93352     102002.7      46.7237      46.7237      46.7237 
  285000    108.90302    -8578.044   -7862.5832   -826.50101     102002.7      46.7237      46.7237      46.7237 
  286000    110.65526   -8594.1284   -7867.1559   -803.58921     102002.7      46.7237      46.7237      46.7237 
  287000    110.23385   -8592.8171   -7868.6132    -932.9311     102002.7      46.7237      46.7237      46.7237 
  288000    111.88194   -8597.7694    -7862.738    -826.6983     102002.7      46.7237      46.7237      46.7237 
  289000      109.973   -8577.3922    -7854.902   -935.97662     102002.7      46.7237      46.7237      46.7237 
  290000    110.07331   -8596.6204   -7873.4711   -996.60854     102002.7      46.7237      46.7237      46.7237 
  291000     111.5107   -8577.4408   -7844.8484   -793.70108     102002.7      46.7237      46.7237      46.7237 
  292000    112.27093   -8597.8162   -7860.2292   -929.25346     102002.7      46.7237      46.7237      46.7237 
  293000    107.03571   -8591.2499   -7888.0569   -892.12874     102002.7      46.7237      46.7237      46.7237 
  294000    108.59002   -8582.0589   -7868.6545   -735.32437     102002.7      46.7237      46.7237      46.7237 
  295000    112.25582    -8583.468   -7845.9804   -865.81391     102002.7      46.7237      46.7237      46.7237 
  296000    105.86393   -8587.6022   -7892.1073   -1059.9646     102002.7      46.7237      46.7237      46.7237 
  297000     108.5768   -8575.4046    -7862.087    -1110.191     102002.7      46.7237      46.7237      46.7237 
  298000    107.47054   -8576.4949   -7870.4451   -648.97822     102002.7      46.7237      46.7237      46.7237 
  299000    112.98963   -8595.9133   -7853.6047   -646.39692     102002.7      46.7237      46.7237      46.7237 
  300000     111.8104   -8605.8476   -7871.2863   -899.71828     102002.7      46.7237      46.7237      46.7237 
  301000    109.51619   -8607.8383   -7888.3492   -816.72271     102002.7      46.7237      46.7237      46.7237 
  302000    111.95982    -8592.795    -7857.252   -1131.1667     102002.7      46.7237      46.7237      46.7237 
  303000    110.57688   -8573.4005    -7846.943   -797.68075     102002.7      46.7237      46.7237      46.7237 
  304000     108.3919   -8600.9212   -7888.8184   -764.12162     102002.7      46.7237      46.7237      46.7237 
  305000    109.33548   -8573.8742   -7855.5724   -837.61212     102002.7      46.7237      46.7237      46.7237 
  306000    107.66777    -8595.961   -7888.6155   -705.96554     102002.7      46.7237      46.7237      46.7237 
  307000    106.93218   -8556.3106   -7853.7977    -777.0804     102002.7      46.7237      46.7237      46.7237 
  308000    111.16838   -8575.2036   -7844.8601   -848.76253     102002.7      46.7237      46.7237      46.7237 
  309000     110.2061   -8599.9881   -7875.9665   -847.27769     102002.7      46.7237      46.7237      46.7237 
  310000    111.23465   -8583.5769    -7852.798   -720.26489     102002.7      46.7237      46.7237      46.7237 
  311000    112.57841   -8599.9193   -7860.3123   -920.11921     102002.7      46.7237      46.7237      46.7237 
  312000    109.50476   -8582.6274   -7863.2134   -525.69712     102002.7      46.7237      46.7237      46.7237 
  313000    108.43483   -8611.2378   -7898.8529   -833.53439     102002.7      46.7237      46.7237      46.7237 
  314000    108.25318    -8564.151   -7852.9595   -911.55015     102002.7      46.7237      46.7237      46.7237 
  315000    109.99789   -8561.7876   -7839.1338   -781.31958     102002.7      46.7237      46.7237      46.7237 
  316000    108.62976    -8557.527   -7843.8615   -954.39064     102002.7      46.7237      46.7237      46.7237 
  317000    111.43024   -8588.3239   -7856.2601   -1168.2679     102002.7      46.7237      46.7237      46.7237 
  318000    113.64879   -8563.7197   -7817.0806     -911.503     102002.7      46.7237      46.7237      46.7237 
  319000    111.93178   -8566.4415   -7831.0827   -712.41548     102002.7      46.7237      46.7237      46.7237 
  320000    109.02802   -8569.6936   -7853.4116    -684.8492     102002.7      46.7237      46.7237      46.7237 
  321000    106.57208   -8585.3324   -7885.1852   -894.92041     102002.7      46.7237      46.7237      46.7237 
  322000    111.41495   -8579.2339   -7847.2705   -915.18431     102002.7      46.7237      46.7237      46.7237 
  323000    109.88954   -8540.0857   -7818.1438   -916.96534     102002.7      46.7237      46.7237      46.7237 
  324000    106.52659   -8553.8267   -7853.9784   -792.31299     102002.7      46.7237      46.7237      46.7237 
  325000    109.85643   -8550.5455   -7828.8211   -555.85957     102002.7      46.7237      46.7237      46.7237 
  326000    110.55692   -8583.8173   -7857.4909   -633.88249     102002.7      46.7237      46.7237      46.7237 
  327000    107.14336   -8574.3021   -7870.4018   -795.56975     102002.7      46.7237      46.7237      46.7237 
  328000    111.95601   -8587.2982   -7851.7803   -1029.6471     102002.7      46.7237      46.7237      46.7237 
  329000    110.12779   -8573.6448   -7850.1376   -850.97556     102002.7      46.7237      46.7237      46.7237 
  330000    107.03641   -8586.6593   -7883.4616   -799.11191     102002.7      46.7237      46.7237      46.7237 
  331000    108.40318   -8557.1053   -7844.9284    -918.3622     102002.7      46.7237      46.7237      46.7237 
  332000    111.01119   -8578.8223   -7849.5115   -546.65018     102002.7      46.7237      46.7237      46.7237 
  333000    108.26558   -8568.7031   -7857.4302   -887.30103     102002.7      46.7237      46.7237      46.7237 
  334000    110.32332   -8569.2029   -7844.4112   -706.80417     102002.7      46.7237      46.7237      46.7237 
  335000    112.40119   -8559.8117    -7821.369   -792.06628     102002.7      46.7237      46.7237      46.7237 
  336000    109.90016   -8569.4162   -7847.4045   -940.81318     102002.7      46.7237      46.7237      46.7237 
  337000    108.58577   -8580.4661   -7867.0896   -785.88538     102002.7      46.7237      46.7237      46.7237 
  338000    111.86775   -8578.5814   -7843.6433   -905.83724     102002.7      46.7237      46.7237      46.7237 
  339000    109.52259   -8569.9462   -7850.4151   -979.86927     102002.7      46.7237      46.7237      46.7237 
  340000     107.9781    -8582.595   -7873.2107   -684.29378     102002.7      46.7237      46.7237      46.7237 
  341000    112.91169   -8573.5864   -7831.7899   -834.81596     102002.7      46.7237      46.7237      46.7237 
  342000    108.43517   -8569.3026   -7856.9155   -831.38012     102002.7      46.7237      46.7237      46.7237 
  343000    109.29902   -8591.9833    -7873.921   -845.94816     102002.7      46.7237      46.7237      46.7237 
  344000    107.16074   -8577.2145      -7873.2   -716.64297     102002.7      46.7237      46.7237      46.7237 
  345000    113.25407   -8570.5343   -7826.4885   -735.29712     102002.7      46.7237      46.7237      46.7237 
  346000    110.92024   -8575.8349   -7847.1216   -757.56702     102002.7      46.7237      46.7237      46.7237 
  347000     108.2245   -8565.4297   -7854.4266   -838.99906     102002.7      46.7237      46.7237      46.7237 
  348000    107.36444   -8584.9674   -7879.6147   -670.50755     102002.7      46.7237      46.7237      46.7237 
  349000    109.55349   -8588.5768   -7868.8427   -913.39322     102002.7      46.7237      46.7237      46.7237 
  350000    109.53399   -8579.7081   -7860.1021   -673.72021     102002.7      46.7237      46.7237      46.7237 
  351000    105.22855   -8593.3409   -7902.0203   -529.49389     102002.7      46.7237      46.7237      46.7237 
  352000    112.54923   -8611.3274   -7871.9121   -754.52389     102002.7      46.7237      46.7237      46.7237 
  353000    110.22593   -8563.9937   -7839.8418   -737.30432     102002.7      46.7237      46.7237      46.7237 
  354000    107.74119   -8612.4849   -7904.6571   -611.94297     102002.7      46.7237      46.7237      46.7237 
  355000    108.39713   -8558.4413   -7846.3041   -1250.7562     102002.7      46.7237      46.7237      46.7237 
  356000    106.75154   -8552.1711   -7850.8449   -695.87433     102002.7      46.7237      46.7237      46.7237 
  357000    109.52504   -8591.0026   -7871.4554   -689.97515     102002.7      46.7237      46.7237      46.7237 
  358000    113.38793   -8581.8962   -7836.9709   -871.51067     102002.7      46.7237      46.7237      46.7237 
  359000    113.69254   -8562.3815    -7815.455   -655.42454     102002.7      46.7237      46.7237      46.7237 
  360000    110.69477   -8581.6369   -7854.4049    -930.0497     102002.7      46.7237      46.7237      46.7237 
  361000     111.5655   -8578.6946   -7845.7422   -680.03661     102002.7      46.7237      46.7237      46.7237 
  362000    109.60411    -8604.833   -7884.7663   -774.45478     102002.7      46.7237      46.7237      46.7237 
  363000    108.64367   -8566.1987   -7852.4418   -653.80329     102002.7      46.7237      46.7237      46.7237 
  364000    109.17976   -8601.7711   -7884.4923   -864.46038     102002.7      46.7237      46.7237      46.7237 
  365000    107.72833   -8591.9984   -7884.2551   -619.67371     102002.7      46.7237      46.7237      46.7237 
  366000    108.68397   -8561.6868   -7847.6651   -697.33356     102002.7      46.7237      46.7237      46.7237 
  367000    110.73368   -8589.2228   -7861.7351   -595.22646     102002.7      46.7237      46.7237      46.7237 
  368000    112.17303   -8574.9374   -7837.9936   -864.94079     102002.7      46.7237      46.7237      46.7237 
  369000     109.3633    -8578.133   -7859.6484   -930.97943     102002.7      46.7237      46.7237      46.7237 
  370000    109.11934    -8590.469   -7873.5871   -951.92713     102002.7      46.7237      46.7237      46.7237 
  371000    109.53402   -8589.9766   -7870.3704    -717.6664     102002.7      46.7237      46.7237      46.7237 
  372000    111.20373   -8605.2865   -7874.7108   -969.14306     102002.7      46.7237      46.7237      46.7237 
  373000     112.7924   -8582.0456   -7841.0328   -696.97599     102002.7      46.7237      46.7237      46.7237 
  374000    108.26994   -8600.1306    -7888.829   -774.64506     102002.7      46.7237      46.7237      46.7237 
  375000    113.04794   -8589.3469   -7846.6553   -702.70931     102002.7      46.7237      46.7237      46.7237 
  376000    112.39487   -8598.3744   -7859.9732   -741.76244     102002.7      46.7237      46.7237      46.7237 
  377000    112.93217   -8582.1882   -7840.2571   -763.00772     102002.7      46.7237      46.7237      46.7237 
  378000    112.42019   -8590.9032   -7852.3356   -539.79367     102002.7      46.7237      46.7237      46.7237 
  379000    108.65989   -8593.5436   -7879.6801   -623.46146     102002.7      46.7237      46.7237      46.7237 
  380000    109.60958   -8589.4846    -7869.382   -725.28263     102002.7      46.7237      46.7237      46.7237 
  381000    115.14758   -8578.9343   -7822.4486   -942.70393     102002.7      46.7237      46.7237      46.7237 
  382000    106.78577   -8557.3688   -7855.8177   -1007.7739     102002.7      46.7237      46.7237      46.7237 
  383000    110.50178   -8610.7512   -7884.7871    -719.9484     102002.7      46.7237      46.7237      46.7237 
  384000      110.209   -8579.7243   -7855.6837    -727.0061     102002.7      46.7237      46.7237      46.7237 
  385000    111.39089   -8612.4724   -7880.6671   -833.79785     102002.7      46.7237      46.7237      46.7237 
  386000    105.32753   -8604.6277   -7912.6569   -779.53223     102002.7      46.7237      46.7237      46.7237 
  387000    109.21025   -8579.4386   -7861.9594    -809.3646     102002.7      46.7237      46.7237      46.7237 
  388000    110.75349   -8605.7289   -7878.1111   -860.14942     102002.7      46.7237      46.7237      46.7237 
  389000    109.97011   -8583.3639   -7860.8927   -834.20734     102002.7      46.7237      46.7237      46.7237 
  390000    106.15916   -8604.3203   -7906.8859    -936.8957     102002.7      46.7237      46.7237      46.7237 
  391000    107.70049   -8578.1213   -7870.5608   -903.50639     102002.7      46.7237      46.7237      46.7237 
  392000    108.95299   -8579.0424   -7863.2534   -674.38756     102002.7      46.7237      46.7237      46.7237 
  393000    111.82391   -8573.5775   -7838.9274   -909.80182     102002.7      46.7237      46.7237      46.7237 
  394000    110.41755   -8593.1996   -7867.7888   -1159.1292     102002.7      46.7237      46.7237      46.7237 
  395000    107.44152   -8593.2936   -7887.4345   -673.26274     102002.7      46.7237      46.7237      46.7237 
  396000    109.35216   -8568.3104   -7849.8989   -773.03111     102002.7      46.7237      46.7237      46.7237 
  397000    107.65286   -8598.7002   -7891.4526   -847.07354     102002.7      46.7237      46.7237      46.7237 
  398000    111.37426   -8571.7059   -7840.0098   -793.43842     102002.7      46.7237      46.7237      46.7237 
  399000    106.82711   -8601.9179   -7900.0952   -583.00997     102002.7      46.7237      46.7237      46.7237 
  400000    112.58348   -8580.5609   -7840.9206   -380.70362     102002.7      46.7237      46.7237      46.7237 
  401000    113.08918   -8570.9018   -7827.9392   -1026.8594     102002.7      46.7237      46.7237      46.7237 
  402000    108.11443   -8587.2175   -7876.9375   -881.18301     102002.7      46.7237      46.7237      46.7237 
  403000    105.07631   -8579.3919   -7889.0715   -461.83603     102002.7      46.7237      46.7237      46.7237 
  404000    111.10822   -8594.4174   -7864.4691   -464.15651     102002.7      46.7237      46.7237      46.7237 
  405000    111.55115   -8585.1932    -7852.335   -638.83082     102002.7      46.7237      46.7237      46.7237 
  406000    111.74114   -8593.8707   -7859.7643   -637.68609     102002.7      46.7237      46.7237      46.7237 
  407000    109.15945   -8597.7513   -7880.6059   -543.47949     102002.7      46.7237      46.7237      46.7237 
  408000    111.60016   -8563.1742   -7829.9941    -498.4137     102002.7      46.7237      46.7237      46.7237 
  409000    111.87953   -8566.7317   -7831.7162   -801.12733     102002.7      46.7237      46.7237      46.7237 
  410000    108.49741   -8582.2912   -7869.4952   -781.86859     102002.7      46.7237      46.7237      46.7237 
  411000    113.72251   -8569.3496   -7822.2262   -529.62205     102002.7      46.7237      46.7237      46.7237 
  412000    109.62251    -8585.671   -7865.4833   -597.11925     102002.7      46.7237      46.7237      46.7237 
  413000    112.30069    -8597.264   -7859.4815   -696.04852     102002.7      46.7237      46.7237      46.7237 
  414000    110.80024   -8584.9604   -7857.0355   -667.58466     102002.7      46.7237      46.7237      46.7237 
  415000    110.47543   -8596.9167   -7871.1257   -769.34247     102002.7      46.7237      46.7237      46.7237 
  416000    111.41596   -8607.8723   -7875.9023   -517.69628     102002.7      46.7237      46.7237      46.7237 
  417000    106.51715    -8578.778   -7878.9916   -711.56473     102002.7      46.7237      46.7237      46.7237 
  418000    107.95212   -8593.7503   -7884.5366   -838.17449     102002.7      46.7237      46.7237      46.7237 
  419000    111.53346   -8597.2219     -7864.48   -577.57254     102002.7      46.7237      46.7237      46.7237 
  420000    107.58801   -8573.0892   -7866.2677   -851.55546     102002.7      46.7237      46.7237      46.7237 
  421000     111.3632   -8593.8501   -7862.2267   -642.64164     102002.7      46.7237      46.7237      46.7237 
  422000    113.51442   -8606.1986   -7860.4423   -766.14851     102002.7      46.7237      46.7237      46.7237 
  423000    107.65413   -8579.5468   -7872.2909   -985.52628     102002.7      46.7237      46.7237      46.7237 
  424000    112.08838   -8603.9253   -7867.5377   -855.43595     102002.7      46.7237      46.7237      46.7237 
  425000     109.6275   -8565.6583   -7845.4379   -890.34353     102002.7      46.7237      46.7237      46.7237 
  426000    108.65386   -8587.8936   -7874.0698   -801.61459     102002.7      46.7237      46.7237      46.7237 
  427000     109.5801   -8567.3336   -7847.4247   -1145.5693     102002.7      46.7237      46.7237      46.7237 
  428000    109.12173   -8602.7674   -7885.8697    -999.3501     102002.7      46.7237      46.7237      46.7237 
  429000    111.52621    -8564.483   -7831.7886   -786.32042     102002.7      46.7237      46.7237      46.7237 
  430000    107.40943   -8580.4104   -7874.7621   -792.39202     102002.7      46.7237      46.7237      46.7237 
  431000    111.10044   -8566.3186   -7836.4214   -847.64805     102002.7      46.7237      46.7237      46.7237 
  432000    109.78656   -8607.9856   -7886.7203   -318.93609     102002.7      46.7237      46.7237      46.7237 
  433000    107.50159    -8589.516   -7883.2622   -1058.8296     102002.7      46.7237      46.7237      46.7237 
  434000    107.50711   -8602.0025   -7895.7124   -673.74992     102002.7      46.7237      46.7237      46.7237 
  435000    110.27622   -8602.3249   -7877.8426    -486.6866     102002.7      46.7237      46.7237      46.7237 
  436000    108.93991   -8591.0012    -7875.298   -905.78436     102002.7      46.7237      46.7237      46.7237 
  437000    114.75158    -8592.678    -7838.794   -733.85276     102002.7      46.7237      46.7237      46.7237 
  438000     110.6305   -8598.8887   -7872.0789   -844.98392     102002.7      46.7237      46.7237      46.7237 
  439000    111.52713   -8567.0297   -7834.3293   -854.16448     102002.7      46.7237      46.7237      46.7237 
  440000    111.20771   -8599.4388   -7868.8369   -796.95005     102002.7      46.7237      46.7237      46.7237 
  441000    107.45526    -8581.881   -7875.9316    -976.3527     102002.7      46.7237      46.7237      46.7237 
  442000    110.40605   -8585.1061   -7859.7709   -819.78885     102002.7      46.7237      46.7237      46.7237 
  443000    109.93761   -8600.8462   -7878.5885    -982.6263     102002.7      46.7237      46.7237      46.7237 
  444000    108.24447   -8575.0534   -7863.9191   -552.19947     102002.7      46.7237      46.7237      46.7237 
  445000    108.80903   -8566.5396   -7851.6963   -597.32453     102002.7      46.7237      46.7237      46.7237 
  446000    107.80623   -8595.4355   -7887.1803   -1111.8679     102002.7      46.7237      46.7237      46.7237 
  447000    111.81715   -8602.3061   -7867.7004   -865.39267     102002.7      46.7237      46.7237      46.7237 
  448000    110.73347   -8576.7802   -7849.2939   -918.05281     102002.7      46.7237      46.7237      46.7237 
  449000    109.18811   -8593.2155   -7875.8818   -934.52688     102002.7      46.7237      46.7237      46.7237 
  450000    109.93416   -8608.9177   -7886.6827   -888.78078     102002.7      46.7237      46.7237      46.7237 
  451000    112.11069   -8590.2952    -7853.761   -715.68769     102002.7      46.7237      46.7237      46.7237 
  452000    111.74001    -8546.606   -7812.5071   -539.97767     102002.7      46.7237      46.7237      46.7237 
  453000    108.58251   -8582.1588   -7868.8037   -870.25591     102002.7      46.7237      46.7237      46.7237 
  454000    113.04666   -8580.4443   -7837.7611   -886.80751     102002.7      46.7237      46.7237      46.7237 
  455000    111.33615   -8594.8019   -7863.3562     -672.007     102002.7      46.7237      46.7237      46.7237 
  456000    110.26184   -8567.9953   -7843.6075   -925.81924     102002.7      46.7237      46.7237      46.7237 
  457000    110.43939   -8594.5255   -7868.9712    -769.5694     102002.7      46.7237      46.7237      46.7237 
  458000    106.61832   -8585.7146   -7885.2637   -933.39943     102002.7      46.7237      46.7237      46.7237 
  459000    110.70178     -8577.94   -7850.6619   -834.27291     102002.7      46.7237      46.7237      46.7237 
  460000    110.14443   -8575.3173   -7851.7009   -634.30279     102002.7      46.7237      46.7237      46.7237 
  461000    113.38375   -8570.5223   -7825.6245   -896.09956     102002.7      46.7237      46.7237      46.7237 
  462000    112.49863   -8583.6548   -7844.5719   -636.67944     102002.7      46.7237      46.7237      46.7237 
  463000    105.57641    -8584.143   -7890.5371    -499.4146     102002.7      46.7237      46.7237      46.7237 
  464000    106.36182   -8571.6462   -7872.8804   -975.17209     102002.7      46.7237      46.7237      46.7237 
  465000    111.74489   -8567.7937   -7833.6627   -587.84922     102002.7      46.7237      46.7237      46.7237 
  466000    109.03069   -8572.5299   -7856.2304   -688.61283     102002.7      46.7237      46.7237      46.7237 
  467000    110.86577   -8568.6724    -7840.317   -538.68644     102002.7      46.7237      46.7237      46.7237 
  468000    108.12555   -8611.0239   -7900.6709   -640.89545     102002.7      46.7237      46.7237      46.7237 
  469000    111.25461   -8586.1656   -7855.2556   -1057.9879     102002.7      46.7237      46.7237      46.7237 
  470000     109.5216   -8607.9989   -7888.4742   -799.10065     102002.7      46.7237      46.7237      46.7237 
  471000    111.39695   -8601.1897   -7869.3445   -791.75664     102002.7      46.7237      46.7237      46.7237 
  472000    109.04419   -8569.3873   -7852.9991   -1059.7086     102002.7      46.7237      46.7237      46.7237 
  473000    112.06952   -8594.7218   -7858.4581   -728.46991     102002.7      46.7237      46.7237      46.7237 
  474000    107.32377   -8590.7005   -7885.6149   -835.27658     102002.7      46.7237      46.7237      46.7237 
  475000    111.62322   -8567.3639   -7834.0322   -666.20697     102002.7      46.7237      46.7237      46.7237 
  476000    110.55085   -8588.0897   -7861.8032   -851.13408     102002.7      46.7237      46.7237      46.7237 
  477000    109.59597   -8561.3908   -7841.3776   -1111.1794     102002.7      46.7237      46.7237      46.7237 
  478000     108.6913   -8575.5594   -7861.4895   -732.21917     102002.7      46.7237      46.7237      46.7237 
  479000    111.48521   -8573.2239   -7840.7989   -820.83813     102002.7      46.7237      46.7237      46.7237 
  480000     109.4328   -8560.9853    -7842.044   -993.38189     102002.7      46.7237      46.7237      46.7237 
  481000    108.49289   -8579.4892   -7866.7229   -498.93305     102002.7      46.7237      46.7237      46.7237 
  482000    107.69652   -8567.3705   -7859.8361   -797.21821     102002.7      46.7237      46.7237      46.7237 
  483000    107.39186   -8606.6693   -7901.1365   -516.26459     102002.7      46.7237      46.7237      46.7237 
  484000    108.06995    -8595.198   -7885.2102   -815.09064     102002.7      46.7237      46.7237      46.7237 
  485000    108.96752   -8582.7314   -7866.8469   -815.80841     102002.7      46.7237      46.7237      46.7237 
  486000     109.7315   -8581.6811   -7860.7774   -999.48376     102002.7      46.7237      46.7237      46.7237 
  487000    111.80488   -8598.6863   -7864.1612   -947.12536     102002.7      46.7237      46.7237      46.7237 
  488000    112.49964   -8587.4759   -7848.3865   -470.94525     102002.7      46.7237      46.7237      46.7237 
  489000    111.42661   -8577.4731   -7845.4331   -773.13107     102002.7      46.7237      46.7237      46.7237 
  490000    110.03289   -8594.5561   -7871.6724   -896.78286     102002.7      46.7237      46.7237      46.7237 
  491000    109.40772    -8595.562   -7876.7856   -672.32197     102002.7      46.7237      46.7237      46.7237 
  492000     108.6482   -8589.3334   -7875.5468   -1080.6701     102002.7      46.7237      46.7237      46.7237 
  493000    109.95354   -8598.2379   -7875.8755   -1052.3625     102002.7      46.7237      46.7237      46.7237 
  494000    109.40092   -8604.3113   -7885.5795   -866.90721     102002.7      46.7237      46.7237      46.7237 
  495000    109.95215   -8600.8394   -7878.4862   -939.97271     102002.7      46.7237      46.7237      46.7237 
  496000    107.56961   -8598.7774   -7892.0768   -924.50835     102002.7      46.7237      46.7237      46.7237 
  497000    111.45836   -8585.4281   -7853.1795   -1095.7924     102002.7      46.7237      46.7237      46.7237 
  498000    112.02519   -8570.2976   -7834.3251   -904.20317     102002.7      46.7237      46.7237      46.7237 
  499000    106.98482   -8582.8776   -7880.0188   -946.51273     102002.7      46.7237      46.7237      46.7237 
  500000    113.19189   -8597.9228   -7854.2854   -1042.7254     102002.7      46.7237      46.7237      46.7237 
  500501    110.86619   -8593.8635   -7865.5053   -958.61388     102002.7      46.7237      46.7237      46.7237 
Loop time of 634.513 on 24 procs for 500000 steps with 2205 atoms

Performance: 68.084 ns/day, 0.353 hours/ns, 788.005 timesteps/s
98.9% CPU use with 24 MPI tasks x no OpenMP threads

MPI task timing breakdown:
Section |  min time  |  avg time  |  max time  |%varavg| %total
---------------------------------------------------------------
Pair    | 283.41     | 327.27     | 382.4      | 151.3 | 51.58
Bond    | 57.717     | 78.43      | 100.68     | 182.2 | 12.36
Neigh   | 3.9504     | 3.9744     | 3.9974     |   0.8 |  0.63
Comm    | 157.85     | 214.64     | 270.07     | 218.9 | 33.83
Output  | 0.3601     | 0.36039    | 0.36384    |   0.1 |  0.06
Modify  | 4.0665     | 4.428      | 4.7689     |   9.8 |  0.70
Other   |            | 5.407      |            |       |  0.85

Nlocal:    91.875 ave 119 max 48 min
Histogram: 1 0 2 2 5 1 2 3 4 4
Nghost:    2498.62 ave 2682 max 2391 min
Histogram: 7 7 2 0 0 0 0 1 5 2
Neighs:    7645.21 ave 9854 max 2605 min
Histogram: 1 0 0 2 0 2 7 4 3 5

Total # of neighbors = 183485
Ave neighs/atom = 83.2132
Ave special neighs/atom = 5.22449
Neighbor list builds = 4481
Dangerous builds = 0
Neighbor list info ...
  update every 1 steps, delay 10 steps, check yes
  max neighbors/atom: 2000, page size: 100000
  master list distance cutoff = 16
  ghost atom cutoff = 16
  binsize = 8, bins = 6 6 6
  3 neighbor lists, perpetual/occasional/extra = 3 0 0
  (1) pair buck6d/coul/gauss/dsf, perpetual, skip from (3)
      attributes: half, newton on
      pair build: skip
      stencil: none
      bin: none
  (2) pair lj/cut, perpetual, skip from (3)
      attributes: half, newton on
      pair build: skip
      stencil: none
      bin: none
  (3) neighbor class addition, perpetual
      attributes: half, newton on
      pair build: half/bin/newton
      stencil: half/bin/3d/newton
      bin: standard
Setting up Verlet run ...
  Unit style    : real
  Current step  : 500501
  Time step     : 1
WARNING: Inconsistent image flags (../domain.cpp:786)
Per MPI rank memory allocation (min/avg/max) = 24.14 | 24.49 | 24.61 Mbytes
Step Time TotEng KinEng PotEng E_mol E_pair Temp Pxx Pyy Pzz Pxy Pxz Pyz Cella Cellb Cellc CellAlpha CellBeta CellGamma Volume Press 
  500501       500000   -7865.5053    728.35821   -8593.8635    4280.0834   -12873.947    110.86619   -981.51947   -897.31378   -997.00838   -46.454773    53.437136    55.588249      46.7237      46.7237      46.7237           90           90           90     102002.7   -958.61388 
  501000       500499   -7867.4933    734.00209   -8601.4954    4290.7238   -12892.219    111.72527    -959.7574   -683.08692   -564.47062   -71.497208    67.517147   -257.09272      46.7237      46.7237      46.7237           90           90           90     102002.7   -735.77164 
  502000       501499   -7853.8465    741.82474   -8595.6712    4296.2127   -12891.884    112.91598   -1317.9012   -543.55689   -819.97454    68.976261   -12.940857    72.269593      46.7237      46.7237      46.7237           90           90           90     102002.7   -893.81088 
  503000       502499   -7851.6124    726.00114   -8577.6135    4281.1672   -12858.781    110.50741   -953.34657   -687.44284   -836.44581   -218.17907   -87.954602    23.487486      46.7237      46.7237      46.7237           90           90           90     102002.7   -825.74507 
  504000       503499   -7832.0844    727.82289   -8559.9073    4294.5654   -12854.473    110.78471   -1324.6788   -356.49661   -1212.3633    63.437835   -1.9942538   -181.01049      46.7237      46.7237      46.7237           90           90           90     102002.7   -964.51292 
  505000       504499   -7869.9212     704.4847   -8574.4059    4301.0975   -12875.503    107.23231   -932.26646   -838.67741   -1175.7303    225.84933    -61.78103    31.783739      46.7237      46.7237      46.7237           90           90           90     102002.7   -982.22473 
  506000       505499   -7844.8314    723.57784   -8568.4093    4306.3108    -12874.72    110.13855   -1583.2672   -1261.7219   -906.27542   -57.092189    143.73631   -29.244795      46.7237      46.7237      46.7237           90           90           90     102002.7   -1250.4215 
  507000       506499   -7860.2197    715.17526   -8575.3949    4291.4354    -12866.83    108.85956   -1199.9494   -730.50696   -823.02278   -298.17943   -44.191876   -128.26815      46.7237      46.7237      46.7237           90           90           90     102002.7   -917.82639 
  508000       507499   -7873.5368    716.10221    -8589.639    4275.5557   -12865.195    109.00066   -1132.6194   -881.28484   -662.27687   -67.165603   -185.49391   -175.97258      46.7237      46.7237      46.7237           90           90           90     102002.7   -892.06039 
  509000       508499   -7848.1456    714.51414   -8562.6597    4306.2322   -12868.892    108.75893   -1054.0041   -978.21991   -1097.0551   -7.5585236   -65.284437   -419.83342      46.7237      46.7237      46.7237           90           90           90     102002.7    -1043.093 
  510000       509499   -7831.3484    740.02925   -8571.3776     4297.838   -12869.216    112.64269   -500.98915   -1007.0391   -1105.5543   -4.1603944    120.68058    246.09891      46.7237      46.7237      46.7237           90           90           90     102002.7   -871.19419 
  511000       510499   -7859.2787    734.87188   -8594.1506    4294.6407   -12888.791    111.85766   -738.55537   -1127.3068   -416.58808   -250.54232    18.835271    60.703749      46.7237      46.7237      46.7237           90           90           90     102002.7   -760.81674 
  512000       511499     -7885.16    713.81802    -8598.978    4297.3087   -12896.287    108.65297   -862.47152   -690.65686   -1300.9641     14.47281    54.350448    101.25894      46.7237      46.7237      46.7237           90           90           90     102002.7   -951.36417 
  513000       512499   -7880.3551    706.87733   -8587.2324    4312.3674     -12899.6     107.5965   -740.27954   -897.97618   -515.52831     130.9615    211.12973   -245.30786      46.7237      46.7237      46.7237           90           90           90     102002.7   -717.92801 
  514000       513499   -7857.1624    740.51914   -8597.6815    4266.6621   -12864.344    112.71725   -896.66995   -679.48327   -825.99965   -135.35131   -141.83407   -53.118665      46.7237      46.7237      46.7237           90           90           90     102002.7   -800.71762 
  515000       514499   -7875.8607    724.97352   -8600.8342    4284.9209   -12885.755      110.351   -1039.3739   -745.55993   -656.08154    112.59697   -152.18826   -84.491406      46.7237      46.7237      46.7237           90           90           90     102002.7   -813.67179 
  516000       515499   -7876.8485    710.92806   -8587.7766    4285.6481   -12873.425    108.21308   -557.76683   -1091.2147   -718.41499   -211.16218   -208.92201    98.710704      46.7237      46.7237      46.7237           90           90           90     102002.7   -789.13216 
  517000       516499   -7865.5581    716.17244   -8581.7306    4288.6998    -12870.43    109.01135   -786.33388   -467.90431   -446.76958    371.89222   -198.45666    293.45467      46.7237      46.7237      46.7237           90           90           90     102002.7   -567.00259 
  518000       517499   -7868.7935    700.77648     -8569.57    4311.8316   -12881.402    106.66787   -1141.5995   -708.80582   -506.39381    87.203644    176.51991    133.60763      46.7237      46.7237      46.7237           90           90           90     102002.7    -785.5997 
  519000       518499   -7882.1615    712.86375   -8595.0252    4290.9304   -12885.956    108.50772   -1211.1412   -913.84119   -844.69104   -134.72934   -11.620033   -26.798173      46.7237      46.7237      46.7237           90           90           90     102002.7   -989.89115 
  520000       519499    -7848.504    732.90553   -8581.4095    4281.0618   -12862.471    111.55836   -1157.7492   -559.51698    -1335.365    63.391355   -102.52041   -154.38514      46.7237      46.7237      46.7237           90           90           90     102002.7   -1017.5437 
  521000       520499   -7859.1452    741.26926   -8600.4145     4276.056    -12876.47    112.83143   -1163.4505   -503.86334   -753.18696   -192.28124     108.8669   -93.576778      46.7237      46.7237      46.7237           90           90           90     102002.7    -806.8336 
  522000       521499   -7878.5063    699.15966   -8577.6659    4297.5071   -12875.173    106.42177   -866.93598   -494.65725   -692.11801   -100.41568    91.529604   -311.12615      46.7237      46.7237      46.7237           90           90           90     102002.7   -684.57042 
  523000       522499   -7869.3935    711.63805   -8581.0316    4280.0105   -12861.042    108.32115   -849.97668   -773.97642    -1122.981    244.86765   -323.53068    -51.08767      46.7237      46.7237      46.7237           90           90           90     102002.7   -915.64472 
  524000       523499   -7845.3795    724.37878   -8569.7582    4312.7668   -12882.525    110.26047   -717.82303   -887.35554   -472.11778    257.88796    14.921678   -95.321577      46.7237      46.7237      46.7237           90           90           90     102002.7   -692.43212 
  525000       524499   -7854.7953    723.69566    -8578.491    4293.3145   -12871.805    110.15649   -806.26312   -1209.0904   -605.21244    170.30571    226.64275   -131.53923      46.7237      46.7237      46.7237           90           90           90     102002.7   -873.52199 
  526000       525499   -7843.6391    722.90289    -8566.542    4313.2337   -12879.776    110.03582   -1079.5107   -1125.4913   -1056.5382   -34.670617    -161.7672    356.35691      46.7237      46.7237      46.7237           90           90           90     102002.7   -1087.1801 
  527000       526499   -7879.4661    712.99813   -8592.4642    4281.7669   -12874.231    108.52818   -762.66257   -1042.6381   -1042.5713    93.711474     -33.1723   -51.639232      46.7237      46.7237      46.7237           90           90           90     102002.7   -949.29066 
  528000       527499   -7855.5855     713.8803   -8569.4658    4285.2388   -12854.705    108.66245    -759.8415   -856.15805   -647.98586    8.9008812    14.652006    118.82531      46.7237      46.7237      46.7237           90           90           90     102002.7    -754.6618 
  529000       528499   -7870.2286    723.70248   -8593.9311    4288.8978   -12882.829    110.15753   -1105.5343   -902.91626   -992.57903   -428.19319    91.182691   -47.397515      46.7237      46.7237      46.7237           90           90           90     102002.7   -1000.3432 
  530000       529499    -7887.161    707.36313   -8594.5241    4279.5854    -12874.11    107.67045   -785.00562   -847.74976   -907.22286    128.90285   -126.37736    16.300049      46.7237      46.7237      46.7237           90           90           90     102002.7   -846.65941 
  531000       530499   -7857.5308    726.99938   -8584.5302    4285.5472   -12870.077    110.65936   -1105.7575   -792.17555   -1152.7202   -278.62478   -97.071136   -34.751314      46.7237      46.7237      46.7237           90           90           90     102002.7   -1016.8844 
  532000       531499   -7836.9046    747.19552   -8584.1001    4299.0658   -12883.166    113.73349   -1350.2557   -1102.0238   -917.93053    309.87704   -10.333225   -56.576541      46.7237      46.7237      46.7237           90           90           90     102002.7   -1123.4034 
  533000       532499   -7880.4839    721.99959   -8602.4835    4265.9112   -12868.395    109.89832   -864.59468   -898.92795   -628.03413    99.997801     72.84424    91.690401      46.7237      46.7237      46.7237           90           90           90     102002.7   -797.18558 
  534000       533499   -7848.0548    730.46645   -8578.5213     4289.196   -12867.717     111.1871   -894.60875   -1156.5935   -814.68093   -132.26337    348.08181    25.660167      46.7237      46.7237      46.7237           90           90           90     102002.7   -955.29439 
  535000       534499   -7872.2722    718.85433   -8591.1265    4280.7403   -12871.867    109.41957   -919.58036   -494.18834   -622.39549   -332.83903    148.85953  -0.70594786      46.7237      46.7237      46.7237           90           90           90     102002.7    -678.7214 
  536000       535499   -7884.9937    685.17233    -8570.166    4288.8509   -12859.017     104.2927   -1048.4483   -1065.1962   -345.23191   -151.68945    197.35981    -102.5808      46.7237      46.7237      46.7237           90           90           90     102002.7   -819.62549 
  537000       536499   -7851.5091    724.97809   -8576.4872     4292.296   -12868.783    110.35169    -792.1197   -451.18205   -236.92759    249.55827   -64.350935    16.448131      46.7237      46.7237      46.7237           90           90           90     102002.7   -493.40978 
  538000       537499   -7830.4208    715.46313   -8545.8839    4317.5325   -12863.416    108.90338   -1156.7135   -802.82894   -491.90384    115.71604    19.111333   -33.494362      46.7237      46.7237      46.7237           90           90           90     102002.7   -817.14877 
  539000       538499   -7834.9969     726.3658   -8561.3627    4298.5057   -12859.868    110.56292   -954.45846   -812.69463   -815.44352   -97.930895    59.565508   -266.77636      46.7237      46.7237      46.7237           90           90           90     102002.7   -860.86554 
  540000       539499   -7859.0566    729.14697   -8588.2036    4276.0605   -12864.264    110.98625   -559.30574   -532.79462   -410.84233   -1.1621731   -64.654219   -122.10052      46.7237      46.7237      46.7237           90           90           90     102002.7    -500.9809 
  541000       540499   -7856.4995    730.04451    -8586.544    4280.2408   -12866.785    111.12287   -527.11609   -1139.6243   -782.63887   -104.76034   -74.944786   -68.752489      46.7237      46.7237      46.7237           90           90           90     102002.7   -816.45976 
  542000       541499   -7881.9591    703.35706   -8585.3162     4286.689   -12872.005    107.06067   -843.56981   -414.10485   -1129.1602   -117.17866    73.555719   -235.19238      46.7237      46.7237      46.7237           90           90           90     102002.7   -795.61163 
  543000       542499   -7885.7434    705.93207   -8591.6755    4286.5929   -12878.268    107.45262   -887.77045   -698.76887   -965.78045    71.306839    82.029588   -59.874236      46.7237      46.7237      46.7237           90           90           90     102002.7   -850.77326 
  544000       543499   -7856.0978    721.88695   -8577.9848    4295.9829   -12873.968    109.88118   -609.37471   -577.51848   -907.70156    15.236802   -348.87497   -105.33985      46.7237      46.7237      46.7237           90           90           90     102002.7   -698.19825 
  545000       544499   -7864.4414    725.01832   -8589.4597    4287.3403     -12876.8    110.35781   -804.09648   -593.03161   -786.09347   -55.352217    5.9301748   -127.33369      46.7237      46.7237      46.7237           90           90           90     102002.7   -727.74052 
  546000       545499   -7825.4601    744.37471   -8569.8348    4289.0853    -12858.92    113.30412   -1030.8021   -787.65941   -798.97497     17.63357     -127.082   -24.883097      46.7237      46.7237      46.7237           90           90           90     102002.7   -872.47882 
  547000       546499    -7887.708    711.71824   -8599.4263    4251.5332   -12850.959    108.33336   -351.28614   -468.08449   -868.41439    245.77269   -275.96472     141.5567      46.7237      46.7237      46.7237           90           90           90     102002.7     -562.595 
  548000       547499   -7858.2482    714.07647   -8572.3247     4285.385    -12857.71    108.69231   -844.54664   -397.26294   -526.26434   -137.76533    -85.57967    20.954064      46.7237      46.7237      46.7237           90           90           90     102002.7   -589.35797 
  549000       548499    -7849.991    709.44308   -8559.4341    4298.9474   -12858.381    107.98705   -931.85298   -969.59803   -907.21784    62.594888   -48.397064   -65.026838      46.7237      46.7237      46.7237           90           90           90     102002.7   -936.22295 
  550000       549499   -7844.5585    733.93218   -8578.4907    4310.0853   -12888.576    111.71463   -470.84215   -509.17763   -517.76457   -38.427129   -8.0903068     3.895406      46.7237      46.7237      46.7237           90           90           90     102002.7   -499.26145 
  551000       550499   -7834.1806    726.91236    -8561.093    4276.9674    -12838.06    110.64611   -601.98626   -760.93386   -217.81725   -98.719579    113.22163    244.84226      46.7237      46.7237      46.7237           90           90           90     102002.7   -526.91246 
  552000       551499   -7899.9039    713.82826   -8613.7322    4250.2275    -12863.96    108.65453   -479.57751   -1325.6654   -928.80487   -72.512715   -192.55936    26.624232      46.7237      46.7237      46.7237           90           90           90     102002.7   -911.34925 
  553000       552499   -7858.1732    730.93563   -8589.1088    4289.1439   -12878.253    111.25851   -1193.4454   -846.53582    -767.5294   -83.011973    31.351698   -50.818253      46.7237      46.7237      46.7237           90           90           90     102002.7   -935.83686 
  554000       553499   -7877.7825    707.08447    -8584.867    4286.0325   -12870.899    107.62803   -378.06021   -1035.8461   -474.51182    39.875291    199.96112    103.27507      46.7237      46.7237      46.7237           90           90           90     102002.7   -629.47272 
  555000       554499   -7861.1982    718.97931   -8580.1775    4283.2226     -12863.4    109.43859   -564.28235   -913.39398   -901.46484    -30.21744    111.88263    150.00497      46.7237      46.7237      46.7237           90           90           90     102002.7   -793.04706 
[...]
  936000       935499   -7839.9095    735.58032   -8575.4899     4286.525   -12862.015     111.9655   -384.28796   -765.30428   -572.69335   -53.626431   -201.49802    231.10643      46.7237      46.7237      46.7237           90           90           90     102002.7   -574.09519 
  937000       936499    -7832.747    728.61616   -8561.3631    4285.4665    -12846.83    110.90545   -536.69774   -608.21986   -574.30609    117.96272    -328.9918   -57.483065      46.7237      46.7237      46.7237           90           90           90     102002.7   -573.07456 
  938000       937499   -7842.2709     731.2816   -8573.5525     4294.023   -12867.575    111.31117   -949.82635   -1028.3305   -641.89473    38.516589     183.6955   -11.858157      46.7237      46.7237      46.7237           90           90           90     102002.7   -873.35054 
  939000       938499   -7848.6341    721.87884   -8570.5129    4303.4328   -12873.946    109.87994   -1147.9708   -669.02674   -886.67842    46.255827    43.947774   -296.45938      46.7237      46.7237      46.7237           90           90           90     102002.7   -901.22533 
  940000       939499   -7865.4964    724.46272   -8589.9591    4298.6983   -12888.657    110.27324   -929.93906    -684.1641   -378.25648    55.122726   -113.77316    19.043972      46.7237      46.7237      46.7237           90           90           90     102002.7   -664.11988 
  941000       940499   -7874.2754    717.05039   -8591.3258    4281.8265   -12873.152    109.14498   -775.90533   -1090.6174   -1425.2283    33.639617   -215.81332    204.31167      46.7237      46.7237      46.7237           90           90           90     102002.7   -1097.2503 
  942000       941499   -7902.3069    697.56699   -8599.8739    4288.7207   -12888.595    106.17934   -1432.3152   -857.20779   -754.07303    40.446553    96.031573    24.486555      46.7237      46.7237      46.7237           90           90           90     102002.7    -1014.532 
  943000       942499   -7837.6114    727.17527   -8564.7867     4289.796   -12854.583    110.68613    -491.3557   -564.19945   -1201.7494     -242.912   -5.2765371   -139.48285      46.7237      46.7237      46.7237           90           90           90     102002.7   -752.43484 
  944000       943499   -7851.7701    730.59719   -8582.3673    4275.3341   -12857.701      111.207   -1161.6571   -958.97336   -1079.4127    18.120971    12.216515   -316.33895      46.7237      46.7237      46.7237           90           90           90     102002.7    -1066.681 
  945000       944499   -7863.2947    711.07587   -8574.3706    4286.9251   -12861.296    108.23558   -695.32656   -801.68519   -533.79866   -12.419834    -159.1548    158.66369      46.7237      46.7237      46.7237           90           90           90     102002.7    -676.9368 
  946000       945499    -7833.489    735.57125   -8569.0603    4305.8758   -12874.936    111.96412   -384.82095   -919.32259   -485.83806   -167.04084    219.20274    62.528564      46.7237      46.7237      46.7237           90           90           90     102002.7   -596.66053 
  947000       946499   -7864.8567    720.82174   -8585.6785    4277.1339   -12862.812    109.71904   -1137.9065   -1007.8092   -826.61431   -90.890537    115.35343    154.66505      46.7237      46.7237      46.7237           90           90           90     102002.7   -990.77667 
  948000       947499   -7829.3757    730.44538   -8559.8211    4316.6646   -12876.486    111.18389   -937.95946   -741.97315   -479.39549   -164.54104   -59.050706    199.92395      46.7237      46.7237      46.7237           90           90           90     102002.7   -719.77603 
  949000       948499   -7839.0394    712.76253   -8551.8019    4311.7023   -12863.504    108.49231   -840.57169   -662.29685   -757.20482    90.053526    52.298029    194.07833      46.7237      46.7237      46.7237           90           90           90     102002.7   -753.35779 
  950000       949499   -7850.0801    724.43374   -8574.5138    4280.9832   -12855.497    110.26883   -741.55521   -613.22124   -304.25547    134.89001    56.006038    25.389213      46.7237      46.7237      46.7237           90           90           90     102002.7   -553.01064 
  951000       950499   -7866.9902    719.33145   -8586.3217    4287.2049   -12873.527    109.49219    -279.6547   -765.84681   -95.309101    15.787761   -209.76534    -180.4406      46.7237      46.7237      46.7237           90           90           90     102002.7    -380.2702 
  952000       951499   -7851.2772    724.27409   -8575.5513    4292.3879   -12867.939    110.24453   -648.73343   -512.92681   -541.41174    310.23154    124.96137    -52.45379      46.7237      46.7237      46.7237           90           90           90     102002.7   -567.69066 
  953000       952499   -7861.1875    718.86936   -8580.0568     4294.115   -12874.172    109.42186   -480.20699   -750.31056    -758.1163   -31.801002   -81.932384    91.786016      46.7237      46.7237      46.7237           90           90           90     102002.7   -662.87795 
  954000       953499   -7868.2891    711.90882   -8580.1979    4286.7188   -12866.917    108.36237   -591.42151   -536.56513   -711.35175    94.890073   -177.96536    37.396753      46.7237      46.7237      46.7237           90           90           90     102002.7    -613.1128 
  955000       954499   -7850.3146    718.27701   -8568.5916    4296.0339   -12864.626    109.33169    -1272.998   -478.50645    -84.01076    137.17675     46.54665    194.02955      46.7237      46.7237      46.7237           90           90           90     102002.7   -611.83842 
  956000       955499   -7859.9629    718.00643   -8577.9693    4298.5791   -12876.548    109.29051   -399.28013   -508.76002   -1254.2699   -270.92599   -11.012842   -328.33385      46.7237      46.7237      46.7237           90           90           90     102002.7   -720.77003 
  957000       956499   -7840.7039    735.41555   -8576.1195    4290.9722   -12867.092    111.94042   -1076.4253   -588.28777   -638.22797   -45.300506   -93.748631   -218.56247      46.7237      46.7237      46.7237           90           90           90     102002.7   -767.64701 
  958000       957499   -7895.8811     712.2224   -8608.1035    4275.0582   -12883.162     108.4101   -1188.8252    -1278.281   -626.74704   -8.3667483   -150.75445    21.012757      46.7237      46.7237      46.7237           90           90           90     102002.7   -1031.2844 
  959000       958499   -7863.5982    728.17777    -8591.776    4304.7185   -12896.494    110.83873   -1106.4264   -906.16734   -750.30168    123.29364    116.25778   -26.110858      46.7237      46.7237      46.7237           90           90           90     102002.7   -920.96513 
  960000       959499   -7868.9456    720.96297   -8589.9085    4289.0111    -12878.92    109.74053   -1311.5995   -791.37387   -921.43352    35.248883    46.167098   -120.33332      46.7237      46.7237      46.7237           90           90           90     102002.7   -1008.1356 
  961000       960499   -7880.7912    719.73651   -8600.5277    4275.2508   -12875.779    109.55385      -1498.9   -718.99144    -437.5277   -94.940202   -207.40093    173.99146      46.7237      46.7237      46.7237           90           90           90     102002.7   -885.13973 
  962000       961499   -7883.3273    702.41678   -8585.7441     4313.166    -12898.91    106.91755   -1039.1113   -799.91501   -1009.1073    195.50131    97.672571    61.658952      46.7237      46.7237      46.7237           90           90           90     102002.7   -949.37787 
  963000       962499   -7868.8804    732.83488   -8601.7153    4282.9617   -12884.677     111.5476   -982.45627   -1018.8595    -674.0656   -2.3208987   -266.42858    71.407975      46.7237      46.7237      46.7237           90           90           90     102002.7   -891.79378 
  964000       963499    -7896.185    715.75054   -8611.9355    4272.7698   -12884.705    108.94713    -949.8478   -1121.2636   -692.96904    84.926922    -49.08029   -7.0300364      46.7237      46.7237      46.7237           90           90           90     102002.7   -921.36016 
  965000       964499   -7859.9622    725.86664   -8585.8288    4282.7734   -12868.602    110.48694   -606.39606   -977.60003   -383.80366   -107.45698   -40.747158   -8.6279944      46.7237      46.7237      46.7237           90           90           90     102002.7   -655.93325 
  966000       965499   -7850.1397    728.32875   -8578.4685    4279.0009   -12857.469    110.86171   -462.05956   -760.80379   -600.08916    10.996527    243.75224   0.25285105      46.7237      46.7237      46.7237           90           90           90     102002.7   -607.65084 
  967000       966499   -7851.8309    733.94687   -8585.7778    4259.3939   -12845.172    111.71686   -781.99592   -1023.3894   -626.96513   -230.45585    157.73367     441.4522      46.7237      46.7237      46.7237           90           90           90     102002.7    -810.7835 
  968000       967499   -7837.9517    737.18793   -8575.1396    4295.4053   -12870.545     112.2102   -1135.5714   -1117.5584   -578.22119   -162.46276    88.474226    178.57604      46.7237      46.7237      46.7237           90           90           90     102002.7   -943.78367 
  969000       968499    -7862.362    709.35046   -8571.7125    4302.2552   -12873.968    107.97295   -274.26207   -905.25775   -1037.8577   -85.427976     294.0728     -31.2137      46.7237      46.7237      46.7237           90           90           90     102002.7   -739.12586 
  970000       969499   -7864.1762    715.88051   -8580.0568    4288.9497   -12869.006    108.96691   -468.13339   -951.74769   -293.93477    67.652867    282.02686    -186.4331      46.7237      46.7237      46.7237           90           90           90     102002.7   -571.27195 
  971000       970499   -7870.9391    704.47335   -8575.4124    4303.8352   -12879.248    107.23059   -970.34822   -1075.1632   -703.44835    82.214006   -74.779669    35.165927      46.7237      46.7237      46.7237           90           90           90     102002.7   -916.31993 
  972000       971499   -7834.0999    735.40151   -8569.5014    4322.9964   -12892.498    111.93828   -1072.6342   -1084.2485   -668.28242   -46.795603    158.49625   -362.47919      46.7237      46.7237      46.7237           90           90           90     102002.7   -941.72171 
  973000       972499   -7872.4635      730.171   -8602.6345     4280.294   -12882.928    111.14212   -935.74521   -1267.3229   -477.72138    33.038927    193.57907    136.85877      46.7237      46.7237      46.7237           90           90           90     102002.7   -893.59649 
  974000       973499   -7887.4967    715.62914   -8603.1259    4284.4541    -12887.58    108.92865   -724.07518   -520.48873    -622.2292   -203.31203   -284.99332    275.71569      46.7237      46.7237      46.7237           90           90           90     102002.7   -622.26437 
  975000       974499   -7820.8169    740.53906   -8561.3559    4288.9533   -12850.309    112.72029   -430.26532   -454.16295   -797.12147   -13.265384    27.842461   -88.232124      46.7237      46.7237      46.7237           90           90           90     102002.7   -560.51658 
  976000       975499   -7835.3808    722.93803   -8558.3188    4312.0948   -12870.414    110.04116   -798.99748   -1327.0978   -771.82857    216.15382    172.77949   -74.649255      46.7237      46.7237      46.7237           90           90           90     102002.7   -965.97463 
  977000       976499    -7859.958    722.78614   -8582.7442    4289.8087   -12872.553    110.01804   -959.59038   -1021.6412   -530.09111   -99.079856    90.434716    213.86847      46.7237      46.7237      46.7237           90           90           90     102002.7   -837.10756 
  978000       977499   -7864.8079    709.26841   -8574.0763    4279.1424   -12853.219    107.96046   -321.08474   -259.67717   -911.24111   -16.470919    -20.64677   -75.206444      46.7237      46.7237      46.7237           90           90           90     102002.7   -497.33434 
  979000       978499   -7832.8918    738.68761   -8571.5794     4301.679   -12873.258    112.43847   -724.03612   -871.09029   -460.54559    96.611322   -61.939268    132.22642      46.7237      46.7237      46.7237           90           90           90     102002.7     -685.224 
  980000       979499   -7852.5395    722.58165   -8575.1212    4306.9741   -12882.095    109.98692    -673.1163   -1061.7542   -1314.8727   -91.378771    61.868546    201.77288      46.7237      46.7237      46.7237           90           90           90     102002.7   -1016.5811 
  981000       980499   -7822.5937    729.14269   -8551.7364    4305.1149   -12856.851     110.9856   -519.49354   -825.57019   -929.73997    -374.5021   -69.682955    75.543459      46.7237      46.7237      46.7237           90           90           90     102002.7    -758.2679 
  982000       981499   -7856.4154    730.63787   -8587.0533    4267.4934   -12854.547    111.21319   -206.71792   -737.43266   -754.25554      24.4513    203.36414   -4.6550006      46.7237      46.7237      46.7237           90           90           90     102002.7   -566.13537 
  983000       982499   -7855.0807    730.90133    -8585.982    4300.7374   -12886.719    111.25329   -1164.1111   -1082.7974   -1007.5841   -47.267747    115.07419     26.15839      46.7237      46.7237      46.7237           90           90           90     102002.7   -1084.8309 
  984000       983499   -7833.7996    736.96422   -8570.7639    4295.7705   -12866.534    112.17614   -406.53297   -701.60741   -779.08278   -109.00857    136.62293     91.75571      46.7237      46.7237      46.7237           90           90           90     102002.7   -629.07439 
  985000       984499   -7852.2903    707.11469   -8559.4049    4308.1192   -12867.524    107.63263    -1082.985   -826.56405   -480.82566   -162.37418   -78.374884     53.28632      46.7237      46.7237      46.7237           90           90           90     102002.7   -796.79158 
  986000       985499   -7875.1267    713.96926   -8589.0959    4274.7416   -12863.837    108.67599   -482.24535    -630.5907   -731.69224   -179.94017    150.87269   -145.89769      46.7237      46.7237      46.7237           90           90           90     102002.7   -614.84276 
  987000       986499   -7840.7284    715.92168   -8556.6501    4305.6364   -12862.286    108.97318   -771.98634   -690.10715   -1126.4626   -62.046756   -24.643417      3.23312      46.7237      46.7237      46.7237           90           90           90     102002.7   -862.85204 
  988000       987499   -7846.8992    739.41147   -8586.3107    4294.4788   -12880.789    112.54865   -627.73108   -667.59718   -1046.8103    50.460632    187.25929    182.54566      46.7237      46.7237      46.7237           90           90           90     102002.7   -780.71284 
  989000       988499    -7848.948    726.28539   -8575.2334     4297.879   -12873.112    110.55068   -887.21301   -952.71891   -547.11476    28.406355   -86.703137    -108.8691      46.7237      46.7237      46.7237           90           90           90     102002.7   -795.68223 
  990000       989499   -7856.1815    721.24902   -8577.4305    4277.5815   -12855.012    109.78407    -524.4439   -530.65219   -190.78594    137.57938    415.57129   -9.7913426      46.7237      46.7237      46.7237           90           90           90     102002.7   -415.29401 
  991000       990499   -7868.3659    711.42316   -8579.7891    4291.6332   -12871.422    108.28844   -928.43476   -525.74006   -965.24256    185.49807    17.689361    147.57746      46.7237      46.7237      46.7237           90           90           90     102002.7   -806.47246 
  992000       991499   -7881.3388    711.69397   -8593.0328    4269.2522   -12862.285    108.32966   -689.89856   -605.42974   -630.62709    37.291054    10.966369   -38.917996      46.7237      46.7237      46.7237           90           90           90     102002.7   -641.98513 
  993000       992499   -7869.2471    725.99105   -8595.2381    4260.1469   -12855.385    110.50588     -706.005   -786.05677   -1039.8055   -50.085483   -3.8019226    -190.6003      46.7237      46.7237      46.7237           90           90           90     102002.7   -843.95575 
  994000       993499   -7818.4524    738.97224   -8557.4246    4297.3009   -12854.726    112.48179   -862.82289   -534.66947   -1198.5872   -67.966096    -131.2459    170.84893      46.7237      46.7237      46.7237           90           90           90     102002.7   -865.35984 
  995000       994499   -7858.8383    713.38092   -8572.2192    4295.8502   -12868.069    108.58644   -1154.9346   -742.24318   -193.26953   -75.468307    76.611784    70.909078      46.7237      46.7237      46.7237           90           90           90     102002.7   -696.81576 
  996000       995499   -7862.1959    720.59415   -8582.7901    4287.9915   -12870.782    109.68439     -1178.33   -634.66381   -1002.9386    3.2811142     48.11235   -61.042072      46.7237      46.7237      46.7237           90           90           90     102002.7   -938.64414 
  997000       996499   -7858.7082     730.0145   -8588.7227    4294.0526   -12882.775     111.1183   -659.78732   -435.54169   -782.93121    108.33172   -141.54846   -175.28158      46.7237      46.7237      46.7237           90           90           90     102002.7   -626.08674 
  998000       997499   -7902.3458    720.98307   -8623.3288    4262.3918   -12885.721    109.74359   -1055.8998   -1100.6095   -876.37858    60.773518   -101.85371   -56.632369      46.7237      46.7237      46.7237           90           90           90     102002.7   -1010.9626 
  999000       998499   -7845.2073    730.95982   -8576.1671    4283.6603   -12859.827    111.26219    -1386.119   -1114.3198   -819.73955   -97.525789   -108.79585   -147.55581      46.7237      46.7237      46.7237           90           90           90     102002.7   -1106.7261 
 1000000       999499   -7882.1335    720.00046    -8602.134    4262.6905   -12864.824    109.59403   -880.24351     -842.258   -1094.6443   -270.67147    2.4727006     21.86889      46.7237      46.7237      46.7237           90           90           90     102002.7   -939.04861 
 1000501      1000000   -7831.2584    733.09231   -8564.3507    4300.5045   -12864.855    111.58679   -580.26894   -1040.5766   -678.54263    248.53529   -21.053496    111.80593      46.7237      46.7237      46.7237           90           90           90     102002.7   -766.46274 
Loop time of 749.076 on 24 procs for 500000 steps with 2205 atoms

Performance: 57.671 ns/day, 0.416 hours/ns, 667.489 timesteps/s
99.0% CPU use with 24 MPI tasks x no OpenMP threads

MPI task timing breakdown:
Section |  min time  |  avg time  |  max time  |%varavg| %total
---------------------------------------------------------------
Pair    | 252.62     | 374.98     | 502.88     | 420.8 | 50.06
Bond    | 40.241     | 82.275     | 129.07     | 304.4 | 10.98
Neigh   | 4.2689     | 4.2917     | 4.3088     |   0.8 |  0.57
Comm    | 96.281     | 268.29     | 423.37     | 624.4 | 35.82
Output  | 0.42204    | 0.45903    | 0.46076    |   1.1 |  0.06
Modify  | 12.376     | 12.978     | 13.42      |   8.7 |  1.73
Other   |            | 5.803      |            |       |  0.77

Nlocal:    91.875 ave 127 max 55 min
Histogram: 3 2 1 0 7 1 3 2 3 2
Nghost:    2514.58 ave 2705 max 2397 min
Histogram: 7 6 3 0 0 0 0 2 2 4
Neighs:    7634.12 ave 10442 max 3955 min
Histogram: 3 1 1 2 3 0 6 0 5 3

Total # of neighbors = 183219
Ave neighs/atom = 83.0925
Ave special neighs/atom = 5.22449
Neighbor list builds = 4535
Dangerous builds = 0
Total wall time: 0:23:05
