LAMMPS (30 Mar 2018)
Reading data file ...
  orthogonal box = (0 0 0) to (46.7237 46.7237 46.7237)
  2 by 2 by 4 MPI processor grid
  reading atoms ...
  2826 atoms
  scanning bonds ...
  5 = max bonds/atom
  scanning angles ...
  10 = max angles/atom
  scanning dihedrals ...
  32 = max dihedrals/atom
  scanning impropers ...
  3 = max impropers/atom
  reading bonds ...
  2064 bonds
  reading angles ...
  3696 angles
  reading dihedrals ...
  6240 dihedrals
  reading impropers ...
  1008 impropers
Finding 1-2 1-3 1-4 neighbors ...
  special bond factors lj:   0          0          0         
  special bond factors coul: 0          0          0         
  5 = max # of 1-2 neighbors
  8 = max # of 1-3 neighbors
  20 = max # of 1-4 neighbors
  19 = max # of special neighbors
Finding 1-2 1-3 1-4 neighbors ...
  special bond factors lj:   0          0          1         
  special bond factors coul: 1          1          1         
  5 = max # of 1-2 neighbors
  8 = max # of 1-3 neighbors
  19 = max # of special neighbors
WARNING: Using 'neigh_modify every 1 delay 0 check yes' setting during minimization (../min.cpp:168)
Neighbor list info ...
  update every 1 steps, delay 0 steps, check yes
  max neighbors/atom: 2000, page size: 100000
  master list distance cutoff = 16
  ghost atom cutoff = 16
  binsize = 8, bins = 6 6 6
  3 neighbor lists, perpetual/occasional/extra = 3 0 0
  (1) pair buck6d/coul/gauss/dsf, perpetual, skip from (3)
      attributes: half, newton on
      pair build: skip
      stencil: none
      bin: none
  (2) pair lj/cut, perpetual, skip from (3)
      attributes: half, newton on
      pair build: skip
      stencil: none
      bin: none
  (3) neighbor class addition, perpetual
      attributes: half, newton on
      pair build: half/bin/newton
      stencil: half/bin/3d/newton
      bin: standard
Setting up cg style minimization ...
  Unit style    : real
  Current step  : 0
WARNING: Inconsistent image flags (../domain.cpp:786)
Per MPI rank memory allocation (min/avg/max) = 22.98 | 23.44 | 23.89 Mbytes
Step Temp E_pair E_mol TotEng Press 
       0            0   -14208.284    6482.8914    -7725.393    5709.1516 
     500            0   -14692.086    3735.1655    -10956.92   -1404.3403 
Loop time of 4.09193 on 16 procs for 500 steps with 2826 atoms

99.9% CPU use with 16 MPI tasks x no OpenMP threads

Minimization stats:
  Stopping criterion = max force evaluations
  Energy initial, next-to-last, final = 
        -7725.39298886     -10956.6487284      -10956.920212
  Force two-norm initial, final = 2575.29 24.0891
  Force max component initial, final = 152.138 5.05916
  Final line search alpha, max atom move = 0.0031793 0.0160846
  Iterations, force evaluations = 500 1000

MPI task timing breakdown:
Section |  min time  |  avg time  |  max time  |%varavg| %total
---------------------------------------------------------------
Pair    | 1.979      | 2.5597     | 3.2849     |  22.4 | 62.56
Bond    | 0.28088    | 0.36189    | 0.45345    |   7.9 |  8.84
Neigh   | 0.044148   | 0.044227   | 0.044355   |   0.0 |  1.08
Comm    | 0.30972    | 1.083      | 1.713      |  36.2 | 26.47
Output  | 0          | 0          | 0          |   0.0 |  0.00
Modify  | 0          | 0          | 0          |   0.0 |  0.00
Other   |            | 0.04311    |            |       |  1.05

Nlocal:    176.625 ave 209 max 151 min
Histogram: 2 2 3 0 2 2 1 2 0 2
Nghost:    3557.62 ave 3579 max 3522 min
Histogram: 1 0 3 0 1 2 0 3 2 4
Neighs:    11464.3 ave 16659 max 6639 min
Histogram: 1 2 2 2 1 2 3 1 1 1

Total # of neighbors = 183429
Ave neighs/atom = 64.9076
Ave special neighs/atom = 4.07643
Neighbor list builds = 15
Dangerous builds = 0
Neighbor list info ...
  update every 1 steps, delay 10 steps, check yes
  max neighbors/atom: 2000, page size: 100000
  master list distance cutoff = 16
  ghost atom cutoff = 16
  binsize = 8, bins = 6 6 6
  3 neighbor lists, perpetual/occasional/extra = 3 0 0
  (1) pair buck6d/coul/gauss/dsf, perpetual, skip from (3)
      attributes: half, newton on
      pair build: skip
      stencil: none
      bin: none
  (2) pair lj/cut, perpetual, skip from (3)
      attributes: half, newton on
      pair build: skip
      stencil: none
      bin: none
  (3) neighbor class addition, perpetual
      attributes: half, newton on
      pair build: half/bin/newton
      stencil: half/bin/3d/newton
      bin: standard
Setting up Verlet run ...
  Unit style    : real
  Current step  : 500
  Time step     : 1
WARNING: Inconsistent image flags (../domain.cpp:786)
Per MPI rank memory allocation (min/avg/max) = 22.63 | 22.7 | 22.76 Mbytes
Step Temp PotEng TotEng Press Volume Lx Ly Lz 
     500          130    -10956.92   -9862.2177   -913.75194     102002.7      46.7237      46.7237      46.7237 
    1000     111.1998   -10047.434   -9111.0445   -453.79198     102002.7      46.7237      46.7237      46.7237 
    2000    132.91766   -9863.9509   -8744.6794   -1006.9367     102002.7      46.7237      46.7237      46.7237 
    3000    133.28947   -9804.1855   -8681.7831   -1089.7943     102002.7      46.7237      46.7237      46.7237 
    4000    126.34183   -9776.3486   -8712.4508   -1194.8993     102002.7      46.7237      46.7237      46.7237 
    5000    129.16924   -9782.6334   -8694.9265    -1184.192     102002.7      46.7237      46.7237      46.7237 
    6000    130.52364    -9808.429   -8709.3171   -834.07409     102002.7      46.7237      46.7237      46.7237 
    7000    129.02284   -9766.3933   -8679.9192   -1025.9968     102002.7      46.7237      46.7237      46.7237 
    8000     125.7301   -9782.7399   -8723.9934   -1261.3659     102002.7      46.7237      46.7237      46.7237 
    9000    128.83329   -9792.4389    -8707.561   -1038.2285     102002.7      46.7237      46.7237      46.7237 
   10000    131.77347   -9761.0273   -8651.3908   -1273.1209     102002.7      46.7237      46.7237      46.7237 
   11000    127.10298   -9808.3424   -8738.0351   -885.42514     102002.7      46.7237      46.7237      46.7237 
   12000    134.87597   -9806.7822   -8671.0202   -914.28644     102002.7      46.7237      46.7237      46.7237 
   13000    131.42021   -9805.8983   -8699.2364   -1120.4024     102002.7      46.7237      46.7237      46.7237 
   14000    127.71983    -9810.847   -8735.3453   -1088.0497     102002.7      46.7237      46.7237      46.7237 
   15000    129.22845   -9784.8003   -8696.5948   -1234.6327     102002.7      46.7237      46.7237      46.7237 
   16000    127.65759   -9801.8479   -8726.8704   -969.52747     102002.7      46.7237      46.7237      46.7237 
   17000    130.07072   -9798.2819   -8702.9838   -1262.5216     102002.7      46.7237      46.7237      46.7237 
   18000    127.92949   -9767.2347   -8689.9676   -1262.2704     102002.7      46.7237      46.7237      46.7237 
   19000    132.85079   -9770.7539   -8652.0455   -828.04941     102002.7      46.7237      46.7237      46.7237 
   20000    126.76539   -9763.7794   -8696.3149   -981.59345     102002.7      46.7237      46.7237      46.7237 
   21000    130.16305   -9761.5206   -8665.4451   -935.19702     102002.7      46.7237      46.7237      46.7237 
   22000    134.32004   -9766.9407   -8635.8601   -858.87999     102002.7      46.7237      46.7237      46.7237 
   23000    129.03583   -9777.5413   -8690.9579   -1102.4938     102002.7      46.7237      46.7237      46.7237 
   24000    131.77205   -9775.5855    -8665.961    -1200.851     102002.7      46.7237      46.7237      46.7237 
   25000    130.36141   -9800.5057   -8702.7599   -785.85801     102002.7      46.7237      46.7237      46.7237 
   26000    133.40451   -9771.5287   -8648.1575   -799.46956     102002.7      46.7237      46.7237      46.7237 
   27000    127.08672   -9773.8284    -8703.658   -899.91873     102002.7      46.7237      46.7237      46.7237 
   28000    134.89739   -9781.7758   -8645.8334   -1032.3624     102002.7      46.7237      46.7237      46.7237 
   29000    132.35784   -9786.7379   -8672.1806   -1193.2976     102002.7      46.7237      46.7237      46.7237 
   30000    132.86384   -9809.1278   -8690.3095   -806.44419     102002.7      46.7237      46.7237      46.7237 
   31000     131.3811   -9801.5532   -8695.2208   -971.50398     102002.7      46.7237      46.7237      46.7237 
   32000    129.80696    -9790.224   -8697.1471   -1025.9944     102002.7      46.7237      46.7237      46.7237 
   33000    129.15447   -9788.1755    -8700.593   -777.61251     102002.7      46.7237      46.7237      46.7237 
   34000    129.18739   -9797.3511   -8709.4914   -979.19394     102002.7      46.7237      46.7237      46.7237 
   35000    127.64591   -9775.2474   -8700.3682   -658.23825     102002.7      46.7237      46.7237      46.7237 
   36000    131.71145   -9790.1592    -8681.045   -1009.7346     102002.7      46.7237      46.7237      46.7237 
   37000     128.8937   -9782.0997   -8696.7131   -1144.6424     102002.7      46.7237      46.7237      46.7237 
   38000    130.37159    -9800.939   -8703.1074   -1063.9524     102002.7      46.7237      46.7237      46.7237 
   39000    131.99406   -9786.3785   -8674.8844    -1129.514     102002.7      46.7237      46.7237      46.7237 
   40000    128.23937   -9797.0648   -8717.1882   -1041.7576     102002.7      46.7237      46.7237      46.7237 
   41000    131.94772   -9797.3583   -8686.2545   -1356.9012     102002.7      46.7237      46.7237      46.7237 
   42000    127.47609    -9760.517   -8687.0678   -1444.4003     102002.7      46.7237      46.7237      46.7237 
   43000    133.29479   -9765.7519   -8643.3046   -852.28318     102002.7      46.7237      46.7237      46.7237 
   44000    129.29855    -9761.618   -8672.8223   -1472.9448     102002.7      46.7237      46.7237      46.7237 
   45000    128.17678   -9794.4329   -8715.0833   -1330.5084     102002.7      46.7237      46.7237      46.7237 
   46000    131.10417   -9810.8806   -8706.8802   -1129.8452     102002.7      46.7237      46.7237      46.7237 
   47000    127.42333   -9794.0479    -8721.043   -1042.9053     102002.7      46.7237      46.7237      46.7237 
   48000    130.59967   -9800.7374   -8700.9853    -763.4534     102002.7      46.7237      46.7237      46.7237 
   49000    131.49772   -9791.8341   -8684.5196   -904.05635     102002.7      46.7237      46.7237      46.7237 
   50000    133.73834   -9791.6595   -8665.4772    -757.8132     102002.7      46.7237      46.7237      46.7237 
   51000    133.13563   -9807.0442   -8685.9373   -811.04828     102002.7      46.7237      46.7237      46.7237 
   52000    127.78077   -9770.7236   -8694.7088   -1018.7132     102002.7      46.7237      46.7237      46.7237 
   53000    131.78472   -9793.1665   -8683.4353    -949.0609     102002.7      46.7237      46.7237      46.7237 
   54000    131.69327   -9791.9205   -8682.9593   -862.37913     102002.7      46.7237      46.7237      46.7237 
   55000    129.97665   -9816.1872   -8721.6813   -774.23374     102002.7      46.7237      46.7237      46.7237 
   56000    130.51558   -9763.5462   -8664.5021   -574.05351     102002.7      46.7237      46.7237      46.7237 
   57000    130.42737   -9806.0939   -8707.7926   -891.58146     102002.7      46.7237      46.7237      46.7237 
   58000    130.91706    -9791.333   -8688.9082   -518.15289     102002.7      46.7237      46.7237      46.7237 
   59000    128.48805   -9803.7412   -8721.7705   -827.51494     102002.7      46.7237      46.7237      46.7237 
   60000    131.10986   -9768.1904    -8664.142   -635.10394     102002.7      46.7237      46.7237      46.7237 
   61000    134.29436    -9811.415   -8680.5506   -669.50999     102002.7      46.7237      46.7237      46.7237 
   62000    133.07548   -9803.9879   -8683.3875    -965.1088     102002.7      46.7237      46.7237      46.7237 
   63000    133.03343   -9790.8526   -8670.6063   -1145.0225     102002.7      46.7237      46.7237      46.7237 
   64000     128.4638   -9788.4286   -8706.6621   -622.44147     102002.7      46.7237      46.7237      46.7237 
   65000    128.10532   -9791.7797   -8713.0318   -1274.1372     102002.7      46.7237      46.7237      46.7237 
   66000    127.14005   -9766.3712   -8695.7518   -1040.4486     102002.7      46.7237      46.7237      46.7237 
   67000    130.42407   -9799.0479   -8700.7743   -1063.1441     102002.7      46.7237      46.7237      46.7237 
   68000    129.89386   -9815.0119   -8721.2032   -1221.1586     102002.7      46.7237      46.7237      46.7237 
   69000    128.01011   -9810.4903   -8732.5443   -1204.8746     102002.7      46.7237      46.7237      46.7237 
   70000    130.53768   -9797.0228   -8697.7927   -968.10914     102002.7      46.7237      46.7237      46.7237 
   71000    132.45443   -9784.1112   -8668.7404    -1062.019     102002.7      46.7237      46.7237      46.7237 
   72000    127.91031   -9798.7564   -8721.6507   -1010.1722     102002.7      46.7237      46.7237      46.7237 
   73000    133.62375   -9808.2695   -8683.0522   -1275.2471     102002.7      46.7237      46.7237      46.7237 
   74000    130.26995   -9782.6548   -8685.6791   -823.48356     102002.7      46.7237      46.7237      46.7237 
   75000    127.75358   -9775.5725   -8699.7867   -1223.4186     102002.7      46.7237      46.7237      46.7237 
   76000    131.51727   -9785.5188   -8678.0397    -736.3602     102002.7      46.7237      46.7237      46.7237 
   77000    129.94209   -9774.6865   -8680.4716   -675.05962     102002.7      46.7237      46.7237      46.7237 
   78000    125.92478   -9821.6439    -8761.258   -1123.0132     102002.7      46.7237      46.7237      46.7237 
   79000    133.17708   -9782.6487   -8661.1927   -1038.4912     102002.7      46.7237      46.7237      46.7237 
   80000    128.99428   -9781.0206   -8694.7871   -1017.3007     102002.7      46.7237      46.7237      46.7237 
   81000    126.42841   -9775.4856   -8710.8587   -945.64444     102002.7      46.7237      46.7237      46.7237 
   82000    130.63774   -9809.1817    -8709.109   -1057.3777     102002.7      46.7237      46.7237      46.7237 
   83000     130.1504   -9774.7435   -8678.7746   -934.35069     102002.7      46.7237      46.7237      46.7237 
   84000    129.31022   -9781.7955   -8692.9015   -962.00181     102002.7      46.7237      46.7237      46.7237 
   85000    127.27938    -9788.639   -8716.8463   -916.34945     102002.7      46.7237      46.7237      46.7237 
   86000    127.72013   -9764.7741     -8689.27   -930.05458     102002.7      46.7237      46.7237      46.7237 
   87000    131.50739   -9797.0837   -8689.6878    -751.8184     102002.7      46.7237      46.7237      46.7237 
   88000    126.13071   -9788.9553   -8726.8353   -600.77975     102002.7      46.7237      46.7237      46.7237 
   89000    126.58152   -9781.9489   -8716.0327   -811.56798     102002.7      46.7237      46.7237      46.7237 
   90000    130.09147   -9817.4913   -8722.0186   -890.35613     102002.7      46.7237      46.7237      46.7237 
   91000    130.00996   -9758.2683   -8663.4819   -1163.7731     102002.7      46.7237      46.7237      46.7237 
   92000    129.36113   -9789.1647    -8699.842   -833.01655     102002.7      46.7237      46.7237      46.7237 
   93000    128.69289   -9780.3179   -8696.6223    -851.2842     102002.7      46.7237      46.7237      46.7237 
   94000    130.89366   -9782.4693   -8680.2415    -857.6473     102002.7      46.7237      46.7237      46.7237 
   95000    130.40028   -9790.2527   -8692.1796   -996.54449     102002.7      46.7237      46.7237      46.7237 
   96000    131.88389   -9780.9859   -8670.4196   -830.11095     102002.7      46.7237      46.7237      46.7237 
   97000    127.02964   -9803.3289   -8733.6392   -1211.4711     102002.7      46.7237      46.7237      46.7237 
   98000    132.27206   -9794.7885   -8680.9535   -1068.1553     102002.7      46.7237      46.7237      46.7237 
   99000    132.24496   -9784.5225   -8670.9157   -947.73138     102002.7      46.7237      46.7237      46.7237 
  100000    126.96812   -9808.2874   -8739.1157   -1105.8756     102002.7      46.7237      46.7237      46.7237 
  101000    129.70753   -9779.7236    -8687.484    -1210.784     102002.7      46.7237      46.7237      46.7237 
  102000     133.6087   -9774.0393   -8648.9487   -1195.3904     102002.7      46.7237      46.7237      46.7237 
  103000    127.82881   -9754.8105   -8678.3912   -1079.1305     102002.7      46.7237      46.7237      46.7237 
  104000    130.99933   -9799.5367    -8696.419   -1100.7686     102002.7      46.7237      46.7237      46.7237 
  105000    129.82632   -9739.2522   -8646.0123   -1152.0359     102002.7      46.7237      46.7237      46.7237 
  106000    127.41045   -9776.3435   -8703.4471   -1323.5178     102002.7      46.7237      46.7237      46.7237 
  107000    129.41783    -9803.995   -8714.1948   -767.52991     102002.7      46.7237      46.7237      46.7237 
  108000     131.0055   -9773.8121   -8670.6426   -1103.0855     102002.7      46.7237      46.7237      46.7237 
  109000     128.8799   -9766.3271   -8681.0567   -879.18721     102002.7      46.7237      46.7237      46.7237 
  110000     130.1152   -9775.0006   -8679.3281   -1028.5876     102002.7      46.7237      46.7237      46.7237 
  111000    129.71929   -9784.0256   -8691.6869   -942.69445     102002.7      46.7237      46.7237      46.7237 
  112000    129.88113   -9794.9832   -8701.2816   -673.37224     102002.7      46.7237      46.7237      46.7237 
  113000    128.74186   -9774.3875   -8690.2795   -631.68384     102002.7      46.7237      46.7237      46.7237 
  114000    129.33791   -9738.2164   -8649.0893    -671.3284     102002.7      46.7237      46.7237      46.7237 
  115000     126.9255   -9791.8956   -8723.0828    -955.6641     102002.7      46.7237      46.7237      46.7237 
  116000    128.69302   -9775.6116   -8691.9149   -776.62451     102002.7      46.7237      46.7237      46.7237 
  117000    126.56366   -9799.6457   -8733.8799   -1082.0559     102002.7      46.7237      46.7237      46.7237 
  118000    134.89007   -9809.7399   -8673.8592   -884.41175     102002.7      46.7237      46.7237      46.7237 
  119000    132.77236   -9777.5099   -8659.4619    -1007.774     102002.7      46.7237      46.7237      46.7237 
  120000    130.62457   -9773.3474   -8673.3855   -987.29763     102002.7      46.7237      46.7237      46.7237 
  121000    131.38431    -9778.076   -8671.7165   -878.17932     102002.7      46.7237      46.7237      46.7237 
  122000    131.49823   -9806.5268    -8699.208   -833.36397     102002.7      46.7237      46.7237      46.7237 
  123000    127.87846   -9768.4916   -8691.6542   -1094.5899     102002.7      46.7237      46.7237      46.7237 
  124000    133.11756   -9749.4969   -8628.5421   -1242.1742     102002.7      46.7237      46.7237      46.7237 
  125000    130.36158   -9760.4039   -8662.6566   -1196.8936     102002.7      46.7237      46.7237      46.7237 
  126000     127.9828   -9780.4502   -8702.7342   -752.92638     102002.7      46.7237      46.7237      46.7237 
  127000    131.76502   -9784.5986   -8675.0333   -706.09783     102002.7      46.7237      46.7237      46.7237 
  128000    133.50716   -9813.5649   -8689.3293    -1111.827     102002.7      46.7237      46.7237      46.7237 
  129000    129.71445   -9784.7502   -8692.4523   -1088.5996     102002.7      46.7237      46.7237      46.7237 
  130000    129.99088   -9757.3914   -8662.7657   -901.67103     102002.7      46.7237      46.7237      46.7237 
  131000    130.07785   -9800.4749   -8705.1168    -1063.369     102002.7      46.7237      46.7237      46.7237 
  132000     130.9324   -9785.0663   -8682.5123   -906.99059     102002.7      46.7237      46.7237      46.7237 
  133000    129.06665    -9789.158   -8702.3151   -898.23839     102002.7      46.7237      46.7237      46.7237 
  134000    128.51576   -9793.3357   -8711.1317   -897.78723     102002.7      46.7237      46.7237      46.7237 
  135000    131.07414   -9776.8089   -8673.0612   -1160.3637     102002.7      46.7237      46.7237      46.7237 
  136000    129.03504   -9780.2466   -8693.6699   -818.84829     102002.7      46.7237      46.7237      46.7237 
  137000    125.78588   -9801.1098   -8741.8936   -945.18082     102002.7      46.7237      46.7237      46.7237 
  138000    131.85506   -9781.8057   -8671.4822   -1034.8925     102002.7      46.7237      46.7237      46.7237 
  139000    129.39506   -9804.9968   -8715.3883   -1069.0022     102002.7      46.7237      46.7237      46.7237 
  140000     130.8188   -9774.4484    -8672.851   -1030.6187     102002.7      46.7237      46.7237      46.7237 
  141000    131.75922   -9801.0869   -8691.5704   -686.63858     102002.7      46.7237      46.7237      46.7237 
  142000    131.03929   -9762.1703   -8658.7161   -804.59379     102002.7      46.7237      46.7237      46.7237 
  143000    131.71337   -9824.9062   -8715.7758   -616.81224     102002.7      46.7237      46.7237      46.7237 
  144000    130.32846   -9782.0245   -8684.5561   -666.38913     102002.7      46.7237      46.7237      46.7237 
  145000    131.55414   -9828.3677   -8720.5781   -792.95367     102002.7      46.7237      46.7237      46.7237 
  146000    129.79411   -9775.1956   -8682.2268   -788.62636     102002.7      46.7237      46.7237      46.7237 
  147000    130.42858   -9778.1432   -8679.8317   -662.43669     102002.7      46.7237      46.7237      46.7237 
  148000    125.95792   -9798.0681    -8737.403   -1025.8522     102002.7      46.7237      46.7237      46.7237 
  149000    130.15866   -9773.5197   -8677.4811   -936.80172     102002.7      46.7237      46.7237      46.7237 
  150000    127.87145   -9753.3331   -8676.5546    -810.9876     102002.7      46.7237      46.7237      46.7237 
  151000    130.53524   -9801.3484   -8702.1387   -723.92177     102002.7      46.7237      46.7237      46.7237 
  152000     130.0564   -9786.3092   -8691.1318   -585.68558     102002.7      46.7237      46.7237      46.7237 
  153000    130.05261   -9763.8951   -8668.7495    -990.8214     102002.7      46.7237      46.7237      46.7237 
  154000    131.13449   -9808.6269    -8704.371   -1012.9768     102002.7      46.7237      46.7237      46.7237 
  155000    131.84025   -9793.4923   -8683.2935   -1061.1231     102002.7      46.7237      46.7237      46.7237 
  156000    128.74945   -9758.4841   -8674.3122   -852.83098     102002.7      46.7237      46.7237      46.7237 
  157000    130.30196   -9781.9667   -8684.7215   -1124.0234     102002.7      46.7237      46.7237      46.7237 
  158000    129.01518   -9770.0247   -8683.6151   -1008.4785     102002.7      46.7237      46.7237      46.7237 
  159000    128.54935   -9763.0381   -8680.5512   -1266.6328     102002.7      46.7237      46.7237      46.7237 
  160000    132.66138   -9792.1872   -8675.0739    -1300.694     102002.7      46.7237      46.7237      46.7237 
  161000    132.32348   -9762.8973   -8648.6293   -1138.4415     102002.7      46.7237      46.7237      46.7237 
  162000    128.11121   -9805.8212   -8727.0238   -1162.4269     102002.7      46.7237      46.7237      46.7237 
  163000    127.85183   -9769.6061   -8692.9929   -976.53702     102002.7      46.7237      46.7237      46.7237 
  164000    134.69051   -9764.3724    -8630.172   -1010.6184     102002.7      46.7237      46.7237      46.7237 
  165000    130.07111   -9772.6887   -8677.3874   -985.07183     102002.7      46.7237      46.7237      46.7237 
  166000    127.42658   -9771.4433    -8698.411   -599.62115     102002.7      46.7237      46.7237      46.7237 
  167000    128.96975   -9821.0152   -8734.9882    -771.3435     102002.7      46.7237      46.7237      46.7237 
  168000    127.00643    -9776.188   -8706.6938   -957.74665     102002.7      46.7237      46.7237      46.7237 
  169000     127.0795   -9788.6007   -8718.4911   -1138.1567     102002.7      46.7237      46.7237      46.7237 
  170000    131.63132   -9780.3065    -8671.867   -1115.9152     102002.7      46.7237      46.7237      46.7237 
  171000    131.04813   -9753.5433   -8650.0147   -813.31673     102002.7      46.7237      46.7237      46.7237 
  172000    129.97407   -9814.6711    -8720.187   -873.27805     102002.7      46.7237      46.7237      46.7237 
  173000    123.82646   -9814.1024    -8771.386   -920.76663     102002.7      46.7237      46.7237      46.7237 
  174000    129.81999   -9776.2851   -8683.0984   -770.51448     102002.7      46.7237      46.7237      46.7237 
  175000    132.31868   -9781.8631   -8667.6355   -927.46783     102002.7      46.7237      46.7237      46.7237 
  176000    128.60458   -9798.5758   -8715.6238   -1119.6737     102002.7      46.7237      46.7237      46.7237 
  177000    129.99603   -9794.8262   -8700.1571   -1069.8244     102002.7      46.7237      46.7237      46.7237 
  178000    131.35465   -9781.0942   -8674.9845   -905.90396     102002.7      46.7237      46.7237      46.7237 
  179000    133.14551   -9767.8131   -8646.6229   -679.82606     102002.7      46.7237      46.7237      46.7237 
  180000    127.10186   -9790.6865   -8720.3886   -887.88243     102002.7      46.7237      46.7237      46.7237 
  181000    127.40573   -9806.3373   -8733.4806     -971.613     102002.7      46.7237      46.7237      46.7237 
  182000    127.64583   -9782.1993   -8707.3208   -1064.1724     102002.7      46.7237      46.7237      46.7237 
  183000    135.57955   -9820.9273   -8679.2406   -761.12733     102002.7      46.7237      46.7237      46.7237 
  184000    128.20374   -9791.3085   -8711.7319   -870.49523     102002.7      46.7237      46.7237      46.7237 
  185000    129.62095     -9802.13   -8710.6195   -798.98145     102002.7      46.7237      46.7237      46.7237 
  186000    132.73335   -9784.7006   -8666.9811   -794.29866     102002.7      46.7237      46.7237      46.7237 
  187000    130.39568   -9796.2279   -8698.1935   -980.48638     102002.7      46.7237      46.7237      46.7237 
  188000    126.89638   -9788.4031   -8719.8355   -1012.2226     102002.7      46.7237      46.7237      46.7237 
  189000    130.78649    -9797.559   -8696.2337    -1280.848     102002.7      46.7237      46.7237      46.7237 
  190000     130.2471    -9798.481   -8701.6977   -1081.3592     102002.7      46.7237      46.7237      46.7237 
  191000     128.9622   -9761.9804   -8676.0169   -1156.5469     102002.7      46.7237      46.7237      46.7237 
  192000    129.05509    -9739.843   -8653.0974   -740.75488     102002.7      46.7237      46.7237      46.7237 
  193000    130.53348   -9780.0205   -8680.8257   -1252.6552     102002.7      46.7237      46.7237      46.7237 
  194000    131.56339   -9788.8386   -8680.9712   -1034.2039     102002.7      46.7237      46.7237      46.7237 
  195000    131.49724   -9783.3357   -8676.0252   -867.86121     102002.7      46.7237      46.7237      46.7237 
  196000    125.69404   -9776.8616   -8718.4187   -1058.7662     102002.7      46.7237      46.7237      46.7237 
  197000    131.20784   -9794.4516   -8689.5781   -1055.3391     102002.7      46.7237      46.7237      46.7237 
  198000    127.08551   -9805.9261   -8735.7659   -1092.7789     102002.7      46.7237      46.7237      46.7237 
  199000    125.85921   -9807.4581   -8747.6243   -1274.5045     102002.7      46.7237      46.7237      46.7237 
  200000    129.38087   -9791.9979   -8702.5089   -677.78778     102002.7      46.7237      46.7237      46.7237 
  201000    125.61224   -9807.3931   -8749.6391   -745.34968     102002.7      46.7237      46.7237      46.7237 
  202000    131.57881   -9811.3973   -8703.3999   -1012.0343     102002.7      46.7237      46.7237      46.7237 
  203000    130.97925   -9775.5143   -8672.5657   -1010.8457     102002.7      46.7237      46.7237      46.7237 
  204000    131.50847   -9802.1444   -8694.7395   -1194.1011     102002.7      46.7237      46.7237      46.7237 
  205000    129.41905   -9807.1471   -8717.3367   -881.15406     102002.7      46.7237      46.7237      46.7237 
  206000    128.47958   -9792.8435   -8710.9442   -884.42976     102002.7      46.7237      46.7237      46.7237 
  207000    131.03792   -9780.5286   -8677.0861   -1016.3812     102002.7      46.7237      46.7237      46.7237 
  208000    128.67258   -9820.3547   -8736.8301   -995.86014     102002.7      46.7237      46.7237      46.7237 
  209000    128.84513   -9792.0641   -8707.0865   -915.44376     102002.7      46.7237      46.7237      46.7237 
  210000    129.66512   -9763.9872   -8672.1046   -726.92995     102002.7      46.7237      46.7237      46.7237 
  211000    126.28451   -9793.5356   -8730.1204   -1022.6529     102002.7      46.7237      46.7237      46.7237 
  212000    128.65988   -9792.2391   -8708.8214   -778.06885     102002.7      46.7237      46.7237      46.7237 
  213000    128.63649   -9796.2567    -8713.036   -918.00714     102002.7      46.7237      46.7237      46.7237 
  214000    128.17216   -9787.4064   -8708.0957   -847.79893     102002.7      46.7237      46.7237      46.7237 
  215000    129.66218   -9776.4151   -8684.5573   -1007.7828     102002.7      46.7237      46.7237      46.7237 
  216000    128.42739    -9779.116   -8697.6561   -824.72833     102002.7      46.7237      46.7237      46.7237 
  217000    132.28225   -9792.9399   -8679.0191    -1330.705     102002.7      46.7237      46.7237      46.7237 
  218000    130.43838   -9772.7939   -8674.3998   -675.33677     102002.7      46.7237      46.7237      46.7237 
  219000    130.18737   -9793.1258   -8696.8455   -691.13479     102002.7      46.7237      46.7237      46.7237 
  220000    130.77252   -9787.6537    -8686.446     -872.728     102002.7      46.7237      46.7237      46.7237 
  221000    125.62865   -9778.1053   -8720.2131    -779.3292     102002.7      46.7237      46.7237      46.7237 
  222000    126.93184   -9793.3379   -8724.4717   -1077.2765     102002.7      46.7237      46.7237      46.7237 
  223000    130.02193   -9788.7686   -8693.8815    -938.7506     102002.7      46.7237      46.7237      46.7237 
  224000    130.16031   -9808.1428   -8712.0904   -1171.3535     102002.7      46.7237      46.7237      46.7237 
  225000     125.9006   -9775.6028   -8715.4205   -1473.8202     102002.7      46.7237      46.7237      46.7237 
  226000    130.62476   -9766.1395    -8666.176   -925.19651     102002.7      46.7237      46.7237      46.7237 
  227000    131.81652   -9784.5466   -8674.5476   -1146.1913     102002.7      46.7237      46.7237      46.7237 
  228000    133.57929   -9779.6067   -8654.7638   -805.06705     102002.7      46.7237      46.7237      46.7237 
  229000    130.66405   -9781.3479   -8681.0535    -731.8932     102002.7      46.7237      46.7237      46.7237 
  230000    133.35764   -9818.1312   -8695.1547   -1188.9066     102002.7      46.7237      46.7237      46.7237 
  231000    133.52364   -9794.7152   -8670.3409   -801.27726     102002.7      46.7237      46.7237      46.7237 
  232000    130.70461   -9780.1692   -8679.5334   -1159.0145     102002.7      46.7237      46.7237      46.7237 
  233000    133.04088   -9773.0265   -8652.7175   -848.66026     102002.7      46.7237      46.7237      46.7237 
  234000    127.51027   -9790.5762   -8716.8392   -1013.0908     102002.7      46.7237      46.7237      46.7237 
  235000    126.32036   -9779.5446   -8715.8276   -794.59122     102002.7      46.7237      46.7237      46.7237 
  236000    133.47393     -9822.08   -8698.1243   -1012.0547     102002.7      46.7237      46.7237      46.7237 
  237000    129.42449   -9778.7495   -8688.8933   -1116.8143     102002.7      46.7237      46.7237      46.7237 
  238000    129.37213   -9812.7164   -8723.3011   -1168.9636     102002.7      46.7237      46.7237      46.7237 
  239000     130.1742   -9820.8839   -8724.7145   -911.88111     102002.7      46.7237      46.7237      46.7237 
  240000     130.8164   -9784.1973   -8682.6201   -1081.0011     102002.7      46.7237      46.7237      46.7237 
  241000    131.10756   -9774.1858   -8670.1568   -963.55608     102002.7      46.7237      46.7237      46.7237 
  242000    129.54458   -9815.1514   -8724.2839   -976.81742     102002.7      46.7237      46.7237      46.7237 
  243000    128.42123   -9764.7432   -8683.3351   -983.18336     102002.7      46.7237      46.7237      46.7237 
  244000    131.94407   -9794.6662   -8683.5931   -878.04922     102002.7      46.7237      46.7237      46.7237 
  245000    129.47765    -9766.302   -8675.9981   -1205.0963     102002.7      46.7237      46.7237      46.7237 
  246000    131.76649   -9778.3455   -8668.7678   -1019.5569     102002.7      46.7237      46.7237      46.7237 
  247000    129.38549   -9773.2511   -8683.7233   -939.87527     102002.7      46.7237      46.7237      46.7237 
  248000    132.27226   -9812.2039   -8698.3671   -886.94365     102002.7      46.7237      46.7237      46.7237 
  249000    130.12595   -9774.1515   -8678.3884   -906.05295     102002.7      46.7237      46.7237      46.7237 
  250000    134.12252    -9783.617   -8654.1997   -1150.0091     102002.7      46.7237      46.7237      46.7237 
  251000    127.54612   -9775.2563   -8701.2174   -1280.6607     102002.7      46.7237      46.7237      46.7237 
  252000    128.36415   -9771.4319   -8690.5046   -1194.7666     102002.7      46.7237      46.7237      46.7237 
  253000    129.75065   -9804.0599   -8711.4571   -1202.2446     102002.7      46.7237      46.7237      46.7237 
  254000    128.17099    -9802.283   -8722.9822   -1131.7568     102002.7      46.7237      46.7237      46.7237 
  255000    128.51499   -9759.7804   -8677.5828   -1139.0198     102002.7      46.7237      46.7237      46.7237 
  256000    128.30369   -9786.6859   -8706.2677   -1098.2457     102002.7      46.7237      46.7237      46.7237 
  257000    131.95655   -9789.8628   -8678.6846   -673.43991     102002.7      46.7237      46.7237      46.7237 
  258000     130.9976   -9783.7141    -8680.611   -835.98721     102002.7      46.7237      46.7237      46.7237 
  259000    133.39594    -9814.539     -8691.24   -833.50667     102002.7      46.7237      46.7237      46.7237 
  260000    127.20227   -9778.8265   -8707.6831   -717.54346     102002.7      46.7237      46.7237      46.7237 
  261000    128.11091   -9792.1181   -8713.3232   -448.68608     102002.7      46.7237      46.7237      46.7237 
  262000     128.9979    -9805.284     -8719.02    -1055.413     102002.7      46.7237      46.7237      46.7237 
  263000    131.29365   -9814.2544   -8708.6583   -836.31254     102002.7      46.7237      46.7237      46.7237 
  264000    131.81673   -9774.6551   -8664.6543   -868.26283     102002.7      46.7237      46.7237      46.7237 
  265000     134.7793    -9782.773   -8647.8251   -814.84765     102002.7      46.7237      46.7237      46.7237 
  266000    131.10654   -9792.7933   -8688.7729   -1008.6818     102002.7      46.7237      46.7237      46.7237 
  267000    131.85376   -9777.6186   -8667.3059   -976.87114     102002.7      46.7237      46.7237      46.7237 
  268000    130.75128   -9804.4084   -8703.3795   -951.29196     102002.7      46.7237      46.7237      46.7237 
  269000    133.30931   -9801.1262   -8678.5567   -1109.3923     102002.7      46.7237      46.7237      46.7237 
  270000    128.38917   -9795.6585   -8714.5204   -837.60963     102002.7      46.7237      46.7237      46.7237 
  271000    129.95613   -9817.5504   -8723.2173   -934.90782     102002.7      46.7237      46.7237      46.7237 
  272000    127.13237   -9809.5716   -8739.0168   -1030.2476     102002.7      46.7237      46.7237      46.7237 
  273000    130.71737    -9728.945   -8628.2017   -689.65631     102002.7      46.7237      46.7237      46.7237 
  274000     126.7472   -9769.9097   -8702.5983   -916.82225     102002.7      46.7237      46.7237      46.7237 
  275000    128.60148   -9772.1628    -8689.237   -600.25374     102002.7      46.7237      46.7237      46.7237 
  276000    130.27621   -9802.3194    -8705.291   -1220.0378     102002.7      46.7237      46.7237      46.7237 
  277000     126.9294   -9808.1573   -8739.3116   -1043.8447     102002.7      46.7237      46.7237      46.7237 
  278000    130.94958    -9794.614   -8691.9153    -825.1291     102002.7      46.7237      46.7237      46.7237 
  279000    129.09978    -9818.447   -8731.3251   -979.30099     102002.7      46.7237      46.7237      46.7237 
  280000    129.34492   -9791.8143   -8702.6281   -687.01755     102002.7      46.7237      46.7237      46.7237 
  281000    130.37765   -9782.9814   -8685.0988   -906.85304     102002.7      46.7237      46.7237      46.7237 
  282000    132.93342   -9761.1823   -8641.7781   -1000.4332     102002.7      46.7237      46.7237      46.7237 
  283000    130.82538   -9801.9035   -8700.2506   -643.70352     102002.7      46.7237      46.7237      46.7237 
  284000    127.92068   -9789.5702   -8712.3772   -868.72132     102002.7      46.7237      46.7237      46.7237 
  285000    125.57546   -9787.2027   -8729.7583   -1036.8308     102002.7      46.7237      46.7237      46.7237 
  286000    127.72496   -9785.9563   -8710.4114   -825.89455     102002.7      46.7237      46.7237      46.7237 
  287000    131.63712   -9782.3269   -8673.8386   -1127.8583     102002.7      46.7237      46.7237      46.7237 
  288000    130.20098   -9781.4053   -8685.0104   -978.33217     102002.7      46.7237      46.7237      46.7237 
  289000    127.94695   -9769.6542     -8692.24   -618.03272     102002.7      46.7237      46.7237      46.7237 
  290000    126.53255   -9790.1645   -8724.6607   -1286.0833     102002.7      46.7237      46.7237      46.7237 
  291000    132.05948   -9775.4753   -8663.4304   -1210.6116     102002.7      46.7237      46.7237      46.7237 
  292000    132.27767   -9775.1908   -8661.3085   -1203.4597     102002.7      46.7237      46.7237      46.7237 
  293000    132.41067    -9780.586   -8665.5838   -738.20946     102002.7      46.7237      46.7237      46.7237 
  294000    130.53694   -9781.7458   -8682.5218   -1037.8343     102002.7      46.7237      46.7237      46.7237 
  295000    129.71413   -9807.9246   -8715.6293   -1242.9293     102002.7      46.7237      46.7237      46.7237 
  296000    131.24655   -9779.0497   -8673.8503   -832.39036     102002.7      46.7237      46.7237      46.7237 
  297000    132.51453   -9772.8175   -8656.9407    -1178.442     102002.7      46.7237      46.7237      46.7237 
  298000    131.64085   -9759.3737   -8650.8539    -1184.001     102002.7      46.7237      46.7237      46.7237 
  299000    128.27941   -9752.9581   -8672.7444   -1027.1233     102002.7      46.7237      46.7237      46.7237 
  300000    132.43681   -9747.2392   -8632.0169   -853.90314     102002.7      46.7237      46.7237      46.7237 
  301000    131.35854    -9785.138   -8678.9955   -914.87252     102002.7      46.7237      46.7237      46.7237 
  302000     132.6483   -9765.9691   -8648.9658   -1175.0333     102002.7      46.7237      46.7237      46.7237 
  303000    127.95834   -9814.4822   -8736.9721   -1185.8878     102002.7      46.7237      46.7237      46.7237 
  304000     129.9815   -9772.7037    -8678.157   -1019.3263     102002.7      46.7237      46.7237      46.7237 
  305000     130.8209    -9766.517   -8664.9019   -1114.0044     102002.7      46.7237      46.7237      46.7237 
  306000    130.36152   -9804.6719   -8706.9251   -952.69934     102002.7      46.7237      46.7237      46.7237 
  307000     129.3103   -9807.0761   -8718.1814   -815.56676     102002.7      46.7237      46.7237      46.7237 
  308000    129.29962   -9743.3068    -8654.502    -902.6313     102002.7      46.7237      46.7237      46.7237 
  309000    135.50377   -9775.8728   -8634.8243   -969.96046     102002.7      46.7237      46.7237      46.7237 
  310000    127.93485   -9780.2989   -8702.9867   -1006.5151     102002.7      46.7237      46.7237      46.7237 
  311000     128.6218   -9791.8357   -8708.7388   -675.79003     102002.7      46.7237      46.7237      46.7237 
  312000    128.34739    -9799.543   -8718.7568   -673.29425     102002.7      46.7237      46.7237      46.7237 
  313000    126.48649   -9797.9815   -8732.8655   -1060.5508     102002.7      46.7237      46.7237      46.7237 
  314000     130.3957   -9785.8841   -8687.8495   -1216.9246     102002.7      46.7237      46.7237      46.7237 
  315000    130.88121   -9780.2643   -8678.1413   -1158.1418     102002.7      46.7237      46.7237      46.7237 
  316000      130.717   -9804.2084   -8703.4682   -995.43012     102002.7      46.7237      46.7237      46.7237 
  317000    132.10365    -9778.489   -8666.0721   -1085.5044     102002.7      46.7237      46.7237      46.7237 
  318000    125.53329   -9771.8446   -8714.7553    -936.6459     102002.7      46.7237      46.7237      46.7237 
  319000    130.10327   -9784.9328   -8689.3608   -797.19059     102002.7      46.7237      46.7237      46.7237 
  320000    131.39416   -9802.1627   -8695.7203   -1002.6836     102002.7      46.7237      46.7237      46.7237 
  321000    128.31069   -9770.9468   -8690.4696   -1047.8195     102002.7      46.7237      46.7237      46.7237 
  322000    128.51779     -9781.14   -8698.9189   -1023.2716     102002.7      46.7237      46.7237      46.7237 
  323000    125.98161   -9772.8188   -8711.9543   -569.23885     102002.7      46.7237      46.7237      46.7237 
  324000    128.67242   -9783.5795   -8700.0562   -992.27587     102002.7      46.7237      46.7237      46.7237 
  325000    130.42631   -9783.4201   -8685.1277   -943.66439     102002.7      46.7237      46.7237      46.7237 
  326000    133.70828   -9793.8895   -8667.9603   -857.92921     102002.7      46.7237      46.7237      46.7237 
  327000    134.59935   -9787.5572   -8654.1246   -918.60313     102002.7      46.7237      46.7237      46.7237 
  328000    132.04615   -9781.1108   -8669.1782   -703.88899     102002.7      46.7237      46.7237      46.7237 
  329000    129.46571   -9813.6091   -8723.4058   -1035.5871     102002.7      46.7237      46.7237      46.7237 
  330000    130.98345   -9796.3646   -8693.3806   -1070.0158     102002.7      46.7237      46.7237      46.7237 
  331000    131.42837   -9778.2405   -8671.5099   -925.25641     102002.7      46.7237      46.7237      46.7237 
  332000    132.61015   -9772.9415   -8656.2595   -1231.6806     102002.7      46.7237      46.7237      46.7237 
  333000    127.42603   -9785.8879   -8712.8603   -881.55283     102002.7      46.7237      46.7237      46.7237 
  334000    126.05941   -9766.7482   -8705.2286   -803.24252     102002.7      46.7237      46.7237      46.7237 
  335000    130.54526    -9793.268    -8693.974   -1037.6229     102002.7      46.7237      46.7237      46.7237 
  336000    132.06471    -9808.387    -8696.298   -722.61537     102002.7      46.7237      46.7237      46.7237 
  337000    130.10115   -9762.1117   -8666.5574   -869.91907     102002.7      46.7237      46.7237      46.7237 
  338000    131.70971   -9770.1867   -8661.0871   -1166.3625     102002.7      46.7237      46.7237      46.7237 
  339000    131.24088   -9823.0836   -8717.9319   -841.87111     102002.7      46.7237      46.7237      46.7237 
  340000    129.30728   -9799.0514   -8710.1822   -1016.9541     102002.7      46.7237      46.7237      46.7237 
  341000    130.13604   -9811.1489   -8715.3009   -582.02351     102002.7      46.7237      46.7237      46.7237 
  342000    131.58413   -9798.7786   -8690.7365   -1125.4228     102002.7      46.7237      46.7237      46.7237 
  343000    131.36384   -9820.4438   -8714.2567   -827.43624     102002.7      46.7237      46.7237      46.7237 
  344000    133.03998   -9812.8009   -8692.4993   -638.78716     102002.7      46.7237      46.7237      46.7237 
  345000    130.03381   -9843.8047   -8748.8175   -609.47656     102002.7      46.7237      46.7237      46.7237 
  346000    128.35069   -9833.5846   -8752.7706   -939.25121     102002.7      46.7237      46.7237      46.7237 
  347000    130.36736   -9800.2704   -8702.4744   -1133.8052     102002.7      46.7237      46.7237      46.7237 
  348000    126.00653   -9803.6638   -8742.5894   -1020.1536     102002.7      46.7237      46.7237      46.7237 
  349000    128.88848   -9814.0167   -8728.6741   -1194.4602     102002.7      46.7237      46.7237      46.7237 
  350000     128.6492     -9788.62   -8705.2923   -1457.5882     102002.7      46.7237      46.7237      46.7237 
  351000    132.03848   -9795.1154   -8683.2474   -1345.3124     102002.7      46.7237      46.7237      46.7237 
  352000    132.33463   -9776.9784   -8662.6165   -779.98872     102002.7      46.7237      46.7237      46.7237 
  353000    131.35524   -9798.9598   -8692.8451   -686.45111     102002.7      46.7237      46.7237      46.7237 
  354000    128.15318   -9795.8489   -8716.6981   -924.48749     102002.7      46.7237      46.7237      46.7237 
  355000    130.08178   -9801.2809   -8705.8897   -1110.4053     102002.7      46.7237      46.7237      46.7237 
  356000    131.46304   -9817.8103   -8710.7879   -700.03293     102002.7      46.7237      46.7237      46.7237 
  357000    129.19078   -9810.7251   -8722.8369   -1134.0886     102002.7      46.7237      46.7237      46.7237 
  358000    131.19258   -9784.2873   -8679.5424   -1256.7511     102002.7      46.7237      46.7237      46.7237 
  359000    130.36184   -9784.8049   -8687.0555   -760.90627     102002.7      46.7237      46.7237      46.7237 
  360000    128.92835    -9811.723   -8726.0447   -1600.5571     102002.7      46.7237      46.7237      46.7237 
  361000    127.90418   -9780.7198   -8703.6658   -1207.9876     102002.7      46.7237      46.7237      46.7237 
  362000    131.54932   -9763.4525   -8655.7035   -1151.9782     102002.7      46.7237      46.7237      46.7237 
  363000    128.48108    -9810.854    -8728.942   -1282.5514     102002.7      46.7237      46.7237      46.7237 
  364000    128.76353   -9756.0927   -8671.8022   -880.71851     102002.7      46.7237      46.7237      46.7237 
  365000    131.72744   -9795.7642   -8686.5153   -1128.8614     102002.7      46.7237      46.7237      46.7237 
  366000    128.86845   -9796.0297   -8710.8557   -761.78349     102002.7      46.7237      46.7237      46.7237 
  367000    131.31174   -9806.8035   -8701.0551   -1080.9785     102002.7      46.7237      46.7237      46.7237 
  368000    128.89473   -9803.9687   -8718.5734   -1384.5399     102002.7      46.7237      46.7237      46.7237 
  369000    132.86577   -9789.2413   -8670.4068   -682.02029     102002.7      46.7237      46.7237      46.7237 
  370000    129.80643   -9787.8209   -8694.7484   -1156.1909     102002.7      46.7237      46.7237      46.7237 
  371000    126.78883   -9803.0015   -8735.3396    -1047.041     102002.7      46.7237      46.7237      46.7237 
  372000    133.11305   -9786.9294   -8666.0126   -924.86836     102002.7      46.7237      46.7237      46.7237 
  373000    131.90825   -9776.7688   -8665.9973    -946.5235     102002.7      46.7237      46.7237      46.7237 
  374000    128.36769   -9786.0927   -8705.1356   -654.34323     102002.7      46.7237      46.7237      46.7237 
  375000     129.9562   -9777.5513   -8683.2176   -1066.4666     102002.7      46.7237      46.7237      46.7237 
  376000    129.85526   -9766.2382   -8672.7545    -1041.681     102002.7      46.7237      46.7237      46.7237 
  377000    127.47715   -9766.4297   -8692.9715   -831.49651     102002.7      46.7237      46.7237      46.7237 
  378000    129.78248   -9777.9528    -8685.082   -991.97811     102002.7      46.7237      46.7237      46.7237 
  379000    129.76787   -9744.7602   -8652.0124   -925.90776     102002.7      46.7237      46.7237      46.7237 
  380000    131.66528   -9746.4771   -8637.7516    -807.5358     102002.7      46.7237      46.7237      46.7237 
  381000    127.78957   -9769.4667   -8693.3777   -1281.1856     102002.7      46.7237      46.7237      46.7237 
  382000    129.18808   -9787.3236   -8699.4581   -1189.3958     102002.7      46.7237      46.7237      46.7237 
  383000    131.68393   -9787.7746   -8678.8921    -938.3389     102002.7      46.7237      46.7237      46.7237 
  384000    130.76464   -9803.2305   -8702.0891   -1109.8194     102002.7      46.7237      46.7237      46.7237 
  385000    129.54581   -9772.8042   -8681.9264   -875.35091     102002.7      46.7237      46.7237      46.7237 
  386000      128.958   -9734.1826   -8648.2546   -891.67085     102002.7      46.7237      46.7237      46.7237 
  387000    129.88635   -9760.2422   -8666.4968   -801.79294     102002.7      46.7237      46.7237      46.7237 
  388000    127.17694   -9750.2036   -8679.2735   -1129.0645     102002.7      46.7237      46.7237      46.7237 
  389000    131.05667   -9787.1352   -8683.5347    -1339.099     102002.7      46.7237      46.7237      46.7237 
  390000    129.62503   -9796.8685   -8705.3236   -1063.1466     102002.7      46.7237      46.7237      46.7237 
  391000    130.46957   -9805.7752   -8707.1186   -1238.4139     102002.7      46.7237      46.7237      46.7237 
  392000      130.293   -9809.6502   -8712.4805   -1089.0436     102002.7      46.7237      46.7237      46.7237 
  393000    129.39313   -9760.8911   -8671.2989   -859.37141     102002.7      46.7237      46.7237      46.7237 
  394000    131.49773   -9765.9651   -8658.6505   -1023.5338     102002.7      46.7237      46.7237      46.7237 
  395000    129.65083   -9775.9015   -8684.1394   -992.17497     102002.7      46.7237      46.7237      46.7237 
  396000    126.57506   -9747.3957   -8681.5339     -908.772     102002.7      46.7237      46.7237      46.7237 
  397000    130.96236   -9743.0777   -8640.2715   -1125.4005     102002.7      46.7237      46.7237      46.7237 
  398000    129.67997   -9743.0993   -8651.0916   -894.61043     102002.7      46.7237      46.7237      46.7237 
  399000    129.50436    -9769.942   -8679.4132   -941.28284     102002.7      46.7237      46.7237      46.7237 
  400000    128.52058   -9808.8716    -8726.627   -844.28653     102002.7      46.7237      46.7237      46.7237 
  401000     127.9433   -9791.8251   -8714.4417   -1112.9622     102002.7      46.7237      46.7237      46.7237 
  402000    130.36837   -9775.3061   -8677.5016    -1378.614     102002.7      46.7237      46.7237      46.7237 
  403000     131.7747    -9773.204   -8663.5571   -596.56916     102002.7      46.7237      46.7237      46.7237 
  404000     129.3354    -9751.805    -8662.699   -886.77989     102002.7      46.7237      46.7237      46.7237 
  405000    127.50209   -9790.9573   -8717.2892   -1131.2639     102002.7      46.7237      46.7237      46.7237 
  406000    128.93406   -9757.7062   -8671.9798   -792.65182     102002.7      46.7237      46.7237      46.7237 
  407000     132.8763   -9790.0575   -8671.1343   -905.97337     102002.7      46.7237      46.7237      46.7237 
  408000    129.60363    -9814.401   -8723.0362   -885.04857     102002.7      46.7237      46.7237      46.7237 
  409000    128.64844   -9792.9593    -8709.638   -1100.7029     102002.7      46.7237      46.7237      46.7237 
  410000    129.97676    -9796.115   -8701.6082   -997.86914     102002.7      46.7237      46.7237      46.7237 
  411000    128.23725   -9809.1209   -8729.2622   -865.06838     102002.7      46.7237      46.7237      46.7237 
  412000    129.80589   -9772.4833   -8679.4153   -1033.9955     102002.7      46.7237      46.7237      46.7237 
  413000    128.99059   -9785.9766   -8699.7742   -1192.8594     102002.7      46.7237      46.7237      46.7237 
  414000    126.96803   -9784.1914   -8715.0205   -1194.0655     102002.7      46.7237      46.7237      46.7237 
  415000    130.97345   -9780.0915   -8677.1919    -1026.575     102002.7      46.7237      46.7237      46.7237 
  416000    132.98709   -9755.7262     -8635.87   -802.68376     102002.7      46.7237      46.7237      46.7237 
  417000    132.28361   -9782.0153    -8668.083   -1105.7129     102002.7      46.7237      46.7237      46.7237 
  418000    128.11462    -9777.973   -8699.1469   -920.66244     102002.7      46.7237      46.7237      46.7237 
  419000    125.69548   -9791.4557   -8733.0006   -680.37561     102002.7      46.7237      46.7237      46.7237 
  420000    132.42773   -9760.7621   -8645.6162   -1134.9817     102002.7      46.7237      46.7237      46.7237 
  421000    129.73787   -9775.2454   -8682.7503   -1143.8451     102002.7      46.7237      46.7237      46.7237 
  422000    133.96116   -9775.7326   -8647.6741   -939.96365     102002.7      46.7237      46.7237      46.7237 
  423000    129.37018   -9803.2573   -8713.8583   -1122.6453     102002.7      46.7237      46.7237      46.7237 
  424000    128.24784   -9795.7433   -8715.7953   -952.22327     102002.7      46.7237      46.7237      46.7237 
  425000    130.55578   -9805.5172   -8706.1346   -1098.1874     102002.7      46.7237      46.7237      46.7237 
  426000    128.63054   -9777.6374   -8694.4668   -1179.6745     102002.7      46.7237      46.7237      46.7237 
  427000    130.58521   -9804.5819   -8704.9515    -866.7357     102002.7      46.7237      46.7237      46.7237 
  428000      131.908   -9799.6072   -8688.8378   -1327.2889     102002.7      46.7237      46.7237      46.7237 
  429000    128.52946   -9796.6376   -8714.3183   -1174.5385     102002.7      46.7237      46.7237      46.7237 
  430000    130.85951   -9796.2031   -8694.2629   -916.95797     102002.7      46.7237      46.7237      46.7237 
  431000    127.42594   -9791.1586   -8718.1317    -1299.994     102002.7      46.7237      46.7237      46.7237 
  432000    130.97472   -9782.3849   -8679.4745   -834.24398     102002.7      46.7237      46.7237      46.7237 
  433000    133.93721   -9800.0767   -8672.2198   -1171.7115     102002.7      46.7237      46.7237      46.7237 
  434000    134.24038   -9781.5209   -8651.1111   -921.13744     102002.7      46.7237      46.7237      46.7237 
  435000    129.73335   -9775.1979   -8682.7408    -1013.517     102002.7      46.7237      46.7237      46.7237 
  436000    129.33695   -9794.3381   -8705.2191   -1273.5619     102002.7      46.7237      46.7237      46.7237 
  437000    130.87047   -9773.0624   -8671.0298   -899.54455     102002.7      46.7237      46.7237      46.7237 
  438000    128.70974   -9731.0509   -8647.2134   -805.09688     102002.7      46.7237      46.7237      46.7237 
  439000    130.55125   -9783.3271   -8683.9827   -926.55976     102002.7      46.7237      46.7237      46.7237 
  440000    134.35355   -9775.5533   -8644.1905   -1262.3435     102002.7      46.7237      46.7237      46.7237 
  441000    126.88764   -9791.5688   -8723.0748   -1095.0537     102002.7      46.7237      46.7237      46.7237 
  442000    130.52557   -9773.6332    -8674.505   -881.24403     102002.7      46.7237      46.7237      46.7237 
  443000    131.91329   -9792.9362   -8682.1224     -1039.77     102002.7      46.7237      46.7237      46.7237 
  444000    126.27999   -9779.2473   -8715.8703   -1314.8416     102002.7      46.7237      46.7237      46.7237 
  445000    126.46677   -9769.8104   -8704.8605   -998.40794     102002.7      46.7237      46.7237      46.7237 
  446000    131.87124   -9775.3962   -8664.9364   -892.42884     102002.7      46.7237      46.7237      46.7237 
  447000    126.50944   -9782.6174   -8717.3081   -1406.0878     102002.7      46.7237      46.7237      46.7237 
  448000    128.06804   -9793.3365   -8714.9027   -950.45157     102002.7      46.7237      46.7237      46.7237 
  449000    132.67511   -9804.4822   -8687.2532   -1003.6312     102002.7      46.7237      46.7237      46.7237 
  450000    130.72682   -9806.6695   -8705.8467   -1084.2295     102002.7      46.7237      46.7237      46.7237 
  451000    131.30103   -9782.6743   -8677.0162   -722.78422     102002.7      46.7237      46.7237      46.7237 
  452000    129.22842   -9792.5655   -8704.3603   -1211.5269     102002.7      46.7237      46.7237      46.7237 
  453000      128.421   -9779.4453   -8698.0392    -977.6853     102002.7      46.7237      46.7237      46.7237 
  454000    132.74546   -9796.5195    -8678.698   -1327.2885     102002.7      46.7237      46.7237      46.7237 
  455000    134.54027   -9786.4398   -8653.5047   -840.31048     102002.7      46.7237      46.7237      46.7237 
  456000    128.36539   -9793.8905   -8712.9527   -1086.6087     102002.7      46.7237      46.7237      46.7237 
  457000    129.31087     -9772.68   -8683.7806   -1257.7796     102002.7      46.7237      46.7237      46.7237 
  458000    128.44089   -9763.5215    -8681.948   -1262.8515     102002.7      46.7237      46.7237      46.7237 
  459000    131.65913   -9797.2474   -8688.5737   -1295.1991     102002.7      46.7237      46.7237      46.7237 
  460000    128.82207   -9782.3484    -8697.565    -1293.532     102002.7      46.7237      46.7237      46.7237 
  461000    129.33328   -9770.1485   -8681.0603   -868.99009     102002.7      46.7237      46.7237      46.7237 
  462000    128.43151   -9777.7577   -8696.2631   -1234.0325     102002.7      46.7237      46.7237      46.7237 
  463000    130.92905   -9772.0899    -8669.564    -1178.681     102002.7      46.7237      46.7237      46.7237 
  464000    129.14898   -9800.4057   -8712.8695   -1258.8818     102002.7      46.7237      46.7237      46.7237 
  465000     129.0133    -9774.476   -8688.0823   -851.96924     102002.7      46.7237      46.7237      46.7237 
  466000     130.6094   -9794.1855   -8694.3514   -849.16331     102002.7      46.7237      46.7237      46.7237 
  467000    132.53972   -9813.8948   -8697.8059   -829.32993     102002.7      46.7237      46.7237      46.7237 
  468000    130.45049    -9745.328    -8646.832   -979.04387     102002.7      46.7237      46.7237      46.7237 
  469000    127.94283   -9789.8868   -8712.5072   -1044.4212     102002.7      46.7237      46.7237      46.7237 
  470000    128.00367   -9776.3939   -8698.5021   -962.32496     102002.7      46.7237      46.7237      46.7237 
  471000    130.58386   -9765.0897   -8665.4707   -996.22819     102002.7      46.7237      46.7237      46.7237 
  472000    130.59143   -9768.9907   -8669.3079   -979.39691     102002.7      46.7237      46.7237      46.7237 
  473000    129.53165   -9805.2078   -8714.4493   -673.32986     102002.7      46.7237      46.7237      46.7237 
  474000    131.84359   -9796.1172   -8685.8902   -1066.7059     102002.7      46.7237      46.7237      46.7237 
  475000    131.87851   -9784.0057   -8673.4847   -1037.5547     102002.7      46.7237      46.7237      46.7237 
  476000    130.47138   -9807.0073   -8708.3354   -1206.1262     102002.7      46.7237      46.7237      46.7237 
  477000    127.53167   -9798.9312    -8725.014   -943.50124     102002.7      46.7237      46.7237      46.7237 
  478000    126.57963   -9788.7628   -8722.8625   -643.75865     102002.7      46.7237      46.7237      46.7237 
  479000    130.14675   -9776.5082     -8680.57   -1048.1051     102002.7      46.7237      46.7237      46.7237 
  480000    127.26598   -9799.6665   -8727.9867   -1039.0743     102002.7      46.7237      46.7237      46.7237 
  481000     125.2539   -9803.3773   -8748.6407   -695.27186     102002.7      46.7237      46.7237      46.7237 
  482000    130.42437   -9805.3132   -8707.0372   -992.95039     102002.7      46.7237      46.7237      46.7237 
  483000     128.9801   -9805.3103   -8719.1962   -881.31607     102002.7      46.7237      46.7237      46.7237 
  484000    125.91028   -9804.0508   -8743.7869   -1259.8779     102002.7      46.7237      46.7237      46.7237 
  485000    128.71034   -9796.8068   -8712.9643   -1238.0551     102002.7      46.7237      46.7237      46.7237 
  486000    129.07832   -9808.5339   -8721.5927   -881.57342     102002.7      46.7237      46.7237      46.7237 
  487000    130.46109   -9830.7267   -8732.1415   -1105.8095     102002.7      46.7237      46.7237      46.7237 
  488000      131.447   -9811.7096   -8704.8222   -1000.0335     102002.7      46.7237      46.7237      46.7237 
  489000    131.65075   -9805.4781    -8696.875   -935.89483     102002.7      46.7237      46.7237      46.7237 
  490000    124.93696   -9821.9915   -8769.9238   -917.58268     102002.7      46.7237      46.7237      46.7237 
  491000     130.4682   -9792.8364   -8694.1912   -637.77824     102002.7      46.7237      46.7237      46.7237 
  492000    130.25809   -9786.9691   -8690.0933   -923.40938     102002.7      46.7237      46.7237      46.7237 
  493000    127.56926   -9774.5873   -8700.3536   -1055.9293     102002.7      46.7237      46.7237      46.7237 
  494000    130.55707   -9800.4166   -8701.0231   -1080.6125     102002.7      46.7237      46.7237      46.7237 
  495000    132.13555   -9775.6712   -8662.9857   -993.59838     102002.7      46.7237      46.7237      46.7237 
  496000     129.4191   -9780.2651   -8690.4542   -1200.2774     102002.7      46.7237      46.7237      46.7237 
  497000    132.42728   -9771.5639   -8656.4218   -788.03163     102002.7      46.7237      46.7237      46.7237 
  498000    132.57974   -9788.1254   -8671.6995    -1132.159     102002.7      46.7237      46.7237      46.7237 
  499000    128.13676   -9792.6252   -8713.6127   -1184.2301     102002.7      46.7237      46.7237      46.7237 
  500000    132.84273   -9771.1215    -8652.481   -1292.8984     102002.7      46.7237      46.7237      46.7237 
  500500    133.64941    -9770.992   -8645.5586   -1102.8339     102002.7      46.7237      46.7237      46.7237 
Loop time of 1638.65 on 16 procs for 500000 steps with 2826 atoms

Performance: 26.363 ns/day, 0.910 hours/ns, 305.129 timesteps/s
99.8% CPU use with 16 MPI tasks x no OpenMP threads

MPI task timing breakdown:
Section |  min time  |  avg time  |  max time  |%varavg| %total
---------------------------------------------------------------
Pair    | 866.38     | 1010.7     | 1118.4     | 212.0 | 61.68
Bond    | 141.94     | 174.57     | 207.79     | 171.7 | 10.65
Neigh   | 14.763     | 14.782     | 14.822     |   0.5 |  0.90
Comm    | 317.28     | 422.37     | 543.96     | 287.7 | 25.78
Output  | 0.021346   | 0.021919   | 0.025265   |   0.6 |  0.00
Modify  | 9.1211     | 9.7879     | 10.752     |  18.6 |  0.60
Other   |            | 6.428      |            |       |  0.39

Nlocal:    176.625 ave 214 max 141 min
Histogram: 4 0 2 1 1 1 2 1 1 3
Nghost:    3618.31 ave 3654 max 3591 min
Histogram: 4 1 4 0 0 0 3 1 0 3
Neighs:    11444.2 ave 13648 max 7558 min
Histogram: 1 1 1 2 0 1 1 2 2 5

Total # of neighbors = 183107
Ave neighs/atom = 64.7937
Ave special neighs/atom = 4.07643
Neighbor list builds = 5206
Dangerous builds = 0
Neighbor list info ...
  update every 1 steps, delay 10 steps, check yes
  max neighbors/atom: 2000, page size: 100000
  master list distance cutoff = 16
  ghost atom cutoff = 16
  binsize = 8, bins = 6 6 6
  3 neighbor lists, perpetual/occasional/extra = 3 0 0
  (1) pair buck6d/coul/gauss/dsf, perpetual, skip from (3)
      attributes: half, newton on
      pair build: skip
      stencil: none
      bin: none
  (2) pair lj/cut, perpetual, skip from (3)
      attributes: half, newton on
      pair build: skip
      stencil: none
      bin: none
  (3) neighbor class addition, perpetual
      attributes: half, newton on
      pair build: half/bin/newton
      stencil: half/bin/3d/newton
      bin: standard
Setting up Verlet run ...
  Unit style    : real
  Current step  : 500500
  Time step     : 1
WARNING: Inconsistent image flags (../domain.cpp:786)
Per MPI rank memory allocation (min/avg/max) = 22.95 | 23.32 | 23.41 Mbytes
Step Time TotEng KinEng PotEng E_mol E_pair Temp Pxx Pyy Pzz Pxy Pxz Pyz Cella Cellb Cellc CellAlpha CellBeta CellGamma Volume Press 
  500500       500000   -8645.5586    1125.4334    -9770.992    4384.8451   -14155.837    133.64941   -1213.0795   -769.05737   -1326.3647    198.08761    49.810727    69.923269      46.7237      46.7237      46.7237           90           90           90     102002.7   -1102.8339 
  501000       500500   -8669.6585    1073.0584   -9742.7169    4384.0879   -14126.805    127.42968   -1217.1551   -1867.3467   -754.89994    198.80557    414.78015   -51.190953      46.7237      46.7237      46.7237           90           90           90     102002.7   -1279.8006 
  502000       501500    -8718.998    1062.2137   -9781.2116    4364.1516   -14145.363    126.14183   -1658.3563   -785.84985   -675.01282    200.83523    41.790146   -51.844583      46.7237      46.7237      46.7237           90           90           90     102002.7   -1039.7396 
  503000       502500   -8641.7032    1103.3177   -9745.0209    4382.8502   -14127.871    131.02309   -362.59487   -898.76732   -979.73912    349.91771   -199.53955    122.21833      46.7237      46.7237      46.7237           90           90           90     102002.7   -747.03377 
  504000       503500   -8625.7134    1133.7907   -9759.5041    4398.0702   -14157.574    134.64187   -947.17371   -1122.1725   -988.47328   -155.34776   -194.23104    9.0621074      46.7237      46.7237      46.7237           90           90           90     102002.7   -1019.2732 
  505000       504500   -8684.0417    1097.2046   -9781.2463    4396.6152   -14177.862    130.29713   -870.15395   -878.43405   -1264.7591   -32.144866   -111.36313   -134.86579      46.7237      46.7237      46.7237           90           90           90     102002.7    -1004.449 
  506000       505500   -8698.1597    1097.0451   -9795.2049    4372.3726   -14167.577     130.2782   -747.12188   -931.83563   -1121.0876    99.813423    76.161634   -56.237175      46.7237      46.7237      46.7237           90           90           90     102002.7   -933.34836 
  507000       506500   -8677.9609    1081.4064   -9759.3674    4409.2361   -14168.603    128.42104   -1211.4327   -1154.9999   -1328.1091   -21.511735     59.41085    146.96664      46.7237      46.7237      46.7237           90           90           90     102002.7   -1231.5139 
  508000       507500   -8696.0152    1073.5055   -9769.5207    4381.2842   -14150.805    127.48278   -1128.9752   -617.32801   -1033.3876    127.50633    4.6296051   -73.486609      46.7237      46.7237      46.7237           90           90           90     102002.7   -926.56362 
  509000       508500   -8654.5584    1091.2602   -9745.8186    4396.0551   -14141.874    129.59122   -1133.9457   -1210.3616   -1265.3826    58.499887   -45.025595   -378.97831      46.7237      46.7237      46.7237           90           90           90     102002.7     -1203.23 
  510000       509500   -8683.4091    1123.0458   -9806.4549    4367.8685   -14174.323    133.36587   -1016.5736   -1072.9934   -921.68566   -133.10639   -96.109353   -3.1740736      46.7237      46.7237      46.7237           90           90           90     102002.7   -1003.7509 
  511000       510500   -8751.9548    1051.3392    -9803.294    4365.7262    -14169.02    124.85044   -1409.0724    -902.6769   -1192.6539   -133.45769    131.39397   -17.008129      46.7237      46.7237      46.7237           90           90           90     102002.7   -1168.1344 
  512000       511500   -8694.8172    1088.7286   -9783.5458    4396.5455   -14180.091    129.29058   -521.27502   -920.73191   -681.37152    97.467743   -142.61446    49.095464      46.7237      46.7237      46.7237           90           90           90     102002.7   -707.79282 
  513000       512500   -8657.2814    1099.4353   -9756.7167    4391.2262   -14147.943    130.56204   -844.56946   -715.13578   -1069.9353   -82.723689   -347.66523   -271.21915      46.7237      46.7237      46.7237           90           90           90     102002.7   -876.54685 
  514000       513500   -8659.6258    1120.3223   -9779.9482    4389.9227   -14169.871    133.04245   -980.01632   -1015.3975   -718.57473   -128.04599   -1.6349453    11.733126      46.7237      46.7237      46.7237           90           90           90     102002.7   -904.66284 
  515000       514500   -8687.4379    1101.0328   -9788.4707    4367.5566   -14156.027    130.75175   -867.96497   -1047.0077   -874.33101   -107.72796    43.807053     71.11048      46.7237      46.7237      46.7237           90           90           90     102002.7    -929.7679 
  516000       515500   -8704.8938    1080.0081   -9784.9019     4386.904   -14171.806    128.25499   -1367.4751   -1196.6712   -975.96812    194.68686   -74.288248   -37.304121      46.7237      46.7237      46.7237           90           90           90     102002.7   -1180.0381 
  517000       516500   -8699.9061    1085.3877   -9785.2938    4379.8359    -14165.13    128.89383   -1300.1139   -1051.3093   -695.92013    110.16908    118.66824    185.55121      46.7237      46.7237      46.7237           90           90           90     102002.7   -1015.7811 
  518000       517500    -8696.562    1091.1929   -9787.7549    4385.8891   -14173.644    129.58323   -567.17532   -1078.2525   -1168.1024    41.616275    44.413113    25.370765      46.7237      46.7237      46.7237           90           90           90     102002.7   -937.84341 
  519000       518500   -8673.0024    1081.2228   -9754.2252    4400.2304   -14154.456    128.39923   -927.48863    -458.0596   -600.69856   -370.15128    116.75319    131.43709      46.7237      46.7237      46.7237           90           90           90     102002.7   -662.08226 
  520000       519500   -8725.5577    1075.2327   -9800.7905    4387.4184   -14188.209    127.68789   -655.81826   -736.87254     -1193.48   -91.998644    91.355042   -114.44729      46.7237      46.7237      46.7237           90           90           90     102002.7   -862.05695 
  521000       520500   -8682.5958     1106.575   -9789.1708     4394.962   -14184.133     131.4099   -1096.3835   -892.56086   -457.68216    169.18163    12.610431    -56.86265      46.7237      46.7237      46.7237           90           90           90     102002.7   -815.54218 
  522000       521500   -8694.1763    1114.5359   -9808.7122    4371.1595   -14179.872    132.35529   -657.93104   -669.04814   -970.14363   -121.70753    28.909406   -15.755168      46.7237      46.7237      46.7237           90           90           90     102002.7   -765.70761 
  523000       522500   -8674.7102    1122.8266   -9797.5369    4396.1091   -14193.646    133.33985    -895.2117   -1292.3713   -421.51586    110.59558   -163.56609   -29.196903      46.7237      46.7237      46.7237           90           90           90     102002.7   -869.69962 
  524000       523500   -8697.6148    1091.6973   -9789.3121    4390.4853   -14179.797    129.64312   -1068.4539   -803.23389   -1011.1571   -54.892012    -129.6365   -204.42182      46.7237      46.7237      46.7237           90           90           90     102002.7    -960.9483 
  525000       524500   -8693.6496    1081.5784    -9775.228    4389.2011   -14164.429    128.44146   -822.45358   -427.16901   -1157.7748   -99.811867   -47.993962    69.764293      46.7237      46.7237      46.7237           90           90           90     102002.7   -802.46579 
  526000       525500   -8663.7744     1108.753   -9772.5274    4391.8135   -14164.341    131.66856   -553.92575   -1444.3754   -1105.8891    113.81141   -127.69585    19.842697      46.7237      46.7237      46.7237           90           90           90     102002.7   -1034.7301 
  527000       526500   -8649.3892    1122.3728    -9771.762    4396.2623   -14168.024    133.28595   -1276.6144   -228.29858   -878.39268   -216.74691    248.55098     172.1835      46.7237      46.7237      46.7237           90           90           90     102002.7   -794.43523 
  528000       527500   -8658.6061    1093.1899    -9751.796    4401.4212   -14153.217    129.82037    -853.5059   -995.61301   -867.92098    297.39893   -29.828142    54.192067      46.7237      46.7237      46.7237           90           90           90     102002.7   -905.67996 
  529000       528500    -8693.618    1073.0608   -9766.6787    4399.4214     -14166.1    127.42996   -1514.0298   -1244.1135    -799.6526   -343.51639   -224.57957    147.70441      46.7237      46.7237      46.7237           90           90           90     102002.7    -1185.932 
  530000       529500     -8702.81    1067.9909    -9770.801    4407.9408   -14178.742     126.8279   -1086.5374   -589.89283   -1410.4122   -176.19125   -191.15294    92.011947      46.7237      46.7237      46.7237           90           90           90     102002.7   -1028.9475 
  531000       530500   -8680.8274     1091.655   -9772.4824    4400.1098   -14172.592     129.6381   -335.76552   -879.21115   -708.37192   -177.96456   -11.727234   -66.808279      46.7237      46.7237      46.7237           90           90           90     102002.7    -641.1162 
  532000       531500   -8663.1363    1102.3004   -9765.4366    4421.8129   -14187.249    130.90227   -1289.3686   -397.33654   -1086.5315   -192.92165   -38.158512    50.236776      46.7237      46.7237      46.7237           90           90           90     102002.7    -924.4122 
  533000       532500   -8699.8715    1092.9562   -9792.8277    4384.6415   -14177.469    129.79263   -105.46423   -1084.5345   -957.56787      303.858    80.254898   -35.879935      46.7237      46.7237      46.7237           90           90           90     102002.7   -715.85554 
  534000       533500   -8683.6801    1112.3856   -9796.0657    4370.8698   -14166.936    132.09993   -817.35445   -541.38563   -828.54156    5.0022558   -29.365091   -277.81697      46.7237      46.7237      46.7237           90           90           90     102002.7   -729.09388 
  535000       534500   -8664.0331    1118.7324   -9782.7655    4351.1247    -14133.89    132.85364   -677.44093    -329.5602   -682.37121   -122.66163    136.33527   -245.73845      46.7237      46.7237      46.7237           90           90           90     102002.7   -563.12411 
  536000       535500   -8665.5504    1097.8913   -9763.4417    4403.5232   -14166.965    130.37868   -205.67399   -294.21368   -604.45374    102.43567    125.90395    182.25455      46.7237      46.7237      46.7237           90           90           90     102002.7   -368.11381 
  537000       536500   -8669.3316    1108.4256   -9777.7572     4399.208   -14176.965    131.62967   -623.07002   -726.48196   -1025.4104    76.558639    131.37627   -40.767288      46.7237      46.7237      46.7237           90           90           90     102002.7   -791.65412 
  538000       537500   -8680.4411    1108.5318    -9788.973    4391.6373    -14180.61    131.64229   -869.49001   -1003.8195   -879.49278   -24.663731    -26.86981    134.17344      46.7237      46.7237      46.7237           90           90           90     102002.7   -917.60077 
  539000       538500   -8715.0224    1083.9574   -9798.9799     4371.991   -14170.971    128.72398   -832.35079   -730.42072   -1470.9437   -127.22433    98.259531    71.457239      46.7237      46.7237      46.7237           90           90           90     102002.7   -1011.2384 
  540000       539500   -8656.5063    1116.1958   -9772.7021    4386.5558   -14159.258    132.55241   -1067.4072   -845.98222   -919.15998    26.780368    163.18866  0.052671727      46.7237      46.7237      46.7237           90           90           90     102002.7   -944.18313 
  541000       540500    -8690.059    1095.1747   -9785.2337    4387.2162    -14172.45    130.05608   -682.86783   -946.00149   -643.42659    54.976055    -88.04015   -69.277139      46.7237      46.7237      46.7237           90           90           90     102002.7   -757.43197 
  542000       541500   -8659.8556    1106.5379   -9766.3935    4412.8369    -14179.23     131.4055   -799.78865   -817.02021   -979.71314   -212.50277    115.50745   -171.11599      46.7237      46.7237      46.7237           90           90           90     102002.7   -865.50733 
  543000       542500   -8683.5558    1103.4681   -9787.0238    4394.4169   -14181.441    131.04095   -813.18486   -1092.7688    -1178.591    -148.9719    47.819016   -123.28663      46.7237      46.7237      46.7237           90           90           90     102002.7   -1028.1816 
  544000       543500    -8685.422    1092.0312   -9777.4532    4384.3146   -14161.768    129.68277   -937.37538   -1015.4318   -952.62047     87.73607   -170.14647     191.5131      46.7237      46.7237      46.7237           90           90           90     102002.7    -968.4759 
  545000       544500   -8688.8898    1091.4129   -9780.3027    4389.2887   -14169.591    129.60935   -1134.0658   -1144.9496   -1241.6555    244.62134   -54.572603     305.3181      46.7237      46.7237      46.7237           90           90           90     102002.7    -1173.557 
  546000       545500   -8707.6492    1064.2616   -9771.9108    4394.3717   -14166.282    126.38503   -779.06585   -495.45763   -840.26664    33.531561   -233.81535   -221.05043      46.7237      46.7237      46.7237           90           90           90     102002.7   -704.93004 
  547000       546500   -8680.6683    1096.4609   -9777.1292    4376.5092   -14153.638    130.20881   -1098.2018   -756.16572   -1129.8484   -206.27226    150.31245    -64.12679      46.7237      46.7237      46.7237           90           90           90     102002.7   -994.73864 
  548000       547500   -8667.7167    1120.8641   -9788.5808    4381.1124   -14169.693    133.10679   -663.15551    -698.2872   -1200.2739    95.624934   -150.04332    106.85363      46.7237      46.7237      46.7237           90           90           90     102002.7   -853.90552 
  549000       548500   -8701.8817    1095.7691   -9797.6508    4371.5519   -14169.203    130.12666   -514.44571   -843.70014   -486.02832    36.566173   -76.212748    108.29429      46.7237      46.7237      46.7237           90           90           90     102002.7   -614.72472 
  550000       549500   -8679.8156     1090.094   -9769.9095    4409.8096   -14179.719    129.45272   -617.59411   -1211.8597   -945.02863   -167.28583   -227.12945    236.69675      46.7237      46.7237      46.7237           90           90           90     102002.7   -924.82749 
  551000       550500   -8657.1036    1125.4866   -9782.5902    4380.1068   -14162.697    133.65572   -184.72324   -683.13552   -864.18772    113.45272    43.750506    211.02728      46.7237      46.7237      46.7237           90           90           90     102002.7   -577.34883 
  552000       551500   -8699.0713    1087.3061   -9786.3774    4395.4275   -14181.805    129.12165   -705.73499   -789.22083   -919.94587    126.93009    105.07093   -129.21017      46.7237      46.7237      46.7237           90           90           90     102002.7   -804.96723 
  553000       552500    -8680.117    1107.1546   -9787.2716    4372.4277   -14159.699    131.47874   -941.88275   -1043.9755   -1409.7065   -51.095371    98.655623    67.532739      46.7237      46.7237      46.7237           90           90           90     102002.7   -1131.8549 
  554000       553500   -8651.2479    1120.7143   -9771.9622    4387.3362   -14159.298      133.089   -734.49603   -952.99483   -691.42514   -47.509607    143.09026   -33.105418      46.7237      46.7237      46.7237           90           90           90     102002.7     -792.972 
  555000       554500   -8706.2714    1089.8435   -9796.1149    4361.8799   -14157.995    129.42298    -364.8505   -915.84102   -1650.3335   -73.806334   -26.923357   -370.03259      46.7237      46.7237      46.7237           90           90           90     102002.7   -977.00835 
[...]
  936000       935500   -8692.2874    1084.8519   -9777.1393    4382.8596   -14159.999    128.83021    -688.1862   -1300.6787   -799.57259    166.13261    58.147615    -216.8188      46.7237      46.7237      46.7237           90           90           90     102002.7   -929.47917 
  937000       936500   -8704.4087    1076.2217   -9780.6304    4349.7898    -14130.42    127.80534   -1085.5297    -917.0903    -441.4791    32.560597   -140.63418   -197.95938      46.7237      46.7237      46.7237           90           90           90     102002.7    -814.6997 
  938000       937500   -8662.2246    1098.5877   -9760.8123    4397.2929   -14158.105    130.46138   -883.60388   -291.10041   -957.02039   -41.671747    181.07378    254.84702      46.7237      46.7237      46.7237           90           90           90     102002.7    -710.5749 
  939000       938500   -8611.3797     1134.356   -9745.7357    4392.8505   -14138.586      134.709   -1431.8785   -982.97518   -811.33275    103.78305    125.21114   -115.98393      46.7237      46.7237      46.7237           90           90           90     102002.7   -1075.3955 
  940000       939500   -8676.8912    1109.5003   -9786.3916    4381.9125   -14168.304     131.7573   -797.21002   -1250.9606   -536.26858   -33.690672    15.748826    410.91365      46.7237      46.7237      46.7237           90           90           90     102002.7   -861.47972 
  941000       940500   -8656.7911    1120.4201   -9777.2112    4383.2384    -14160.45    133.05406   -681.19307    -539.9002   -731.44939    106.70675   -5.9953481    122.35834      46.7237      46.7237      46.7237           90           90           90     102002.7   -650.84755 
  942000       941500   -8687.6075    1106.7604   -9794.3679    4378.7259   -14173.094    131.43192   -799.60298   -526.85025   -1021.4176    65.899084    -236.0133   -396.46653      46.7237      46.7237      46.7237           90           90           90     102002.7   -782.62362 
  943000       942500   -8662.9737    1145.9649   -9808.9386    4365.4556   -14174.394     136.0876   -1109.0872   -1352.9703   -944.17942   -233.28813   -251.45863   -107.50853      46.7237      46.7237      46.7237           90           90           90     102002.7   -1135.4123 
  944000       943500   -8708.9901    1095.9888   -9804.9789     4345.623   -14150.602    130.15275   -951.30888   -680.50481   -1173.3301   -90.527405   -6.2553462    237.31095      46.7237      46.7237      46.7237           90           90           90     102002.7   -935.04794 
  945000       944500   -8714.6224    1090.9812   -9805.6036    4371.6426   -14177.246    129.55808   -806.02378   -1161.1361   -1179.2732   -254.29462    96.408581    30.770885      46.7237      46.7237      46.7237           90           90           90     102002.7    -1048.811 
  946000       945500    -8707.753    1085.0503   -9792.8033    4385.1953   -14177.999    128.85376    -1374.287   -636.57991   -1191.6175   -21.637033   -256.76273   -248.95568      46.7237      46.7237      46.7237           90           90           90     102002.7   -1067.4948 
  947000       946500   -8700.0535    1111.3395    -9811.393    4384.3181   -14195.711     131.9757   -1256.7718   -702.33131   -1374.1739    139.02066    32.918127    8.6866958      46.7237      46.7237      46.7237           90           90           90     102002.7   -1111.0923 
  948000       947500   -8712.4546    1112.8991   -9825.3537    4362.1517   -14187.505    132.16091   -676.04702   -912.43629   -650.20502    13.544629    18.953906    208.95815      46.7237      46.7237      46.7237           90           90           90     102002.7   -746.22944 
  949000       948500   -8639.4678    1132.2653   -9771.7331    4383.0261   -14154.759    134.46072   -1221.1818   -821.31041   -1139.5515    -169.3762   -163.56422   -8.6510384      46.7237      46.7237      46.7237           90           90           90     102002.7   -1060.6812 
  950000       949500   -8696.3532    1081.0246   -9777.3778    4371.2023    -14148.58     128.3757   -551.79757   -818.96613   -853.28274   -200.01039   -172.31714    211.29872      46.7237      46.7237      46.7237           90           90           90     102002.7   -741.34881 
  951000       950500   -8665.1368    1109.3538   -9774.4906    4365.3999    -14139.89     131.7399   -1186.2509   -618.81984   -591.00607    3.2129302    180.65623   -10.528966      46.7237      46.7237      46.7237           90           90           90     102002.7   -798.69228 
  952000       951500   -8669.1184     1097.827   -9766.9454    4406.5499   -14173.495    130.37105   -1183.0716   -764.18802   -956.58687   -193.61422    137.85642    86.914024      46.7237      46.7237      46.7237           90           90           90     102002.7   -967.94883 
  953000       952500   -8667.9066    1117.1699   -9785.0765    4369.3614   -14154.438    132.66809   -928.62371   -627.58602   -1530.6929   -172.56521   -154.16712    284.06382      46.7237      46.7237      46.7237           90           90           90     102002.7   -1028.9675 
  954000       953500   -8658.2084    1101.1475   -9759.3558    4399.9486   -14159.304    130.76536   -450.14694   -1235.7284    -846.8912   -70.472153    168.80232   -15.615709      46.7237      46.7237      46.7237           90           90           90     102002.7   -844.25552 
  955000       954500   -8686.7131    1102.1529    -9788.866    4396.8114   -14185.677    130.88476   -1196.0357   -569.07719   -951.33139   -2.0396348    129.38006    34.772274      46.7237      46.7237      46.7237           90           90           90     102002.7   -905.48144 
  956000       955500   -8640.3213     1118.323   -9758.6443    4405.6422   -14164.287    132.80502   -730.14641   -941.76182   -429.47456   -298.11805   -88.224284    134.59741      46.7237      46.7237      46.7237           90           90           90     102002.7   -700.46093 
  957000       956500   -8646.0368    1113.4657   -9759.5025    4412.8166   -14172.319     132.2282   -1403.2396   -982.36921   -779.17956   -266.65507   -145.49973    82.567539      46.7237      46.7237      46.7237           90           90           90     102002.7   -1054.9295 
  958000       957500   -8669.1089    1108.8676   -9777.9766    4391.5576   -14169.534    131.68217   -277.20747   -838.42343   -637.51542    252.24494   -160.23514    36.448994      46.7237      46.7237      46.7237           90           90           90     102002.7   -584.38211 
  959000       958500   -8618.3784    1128.6072   -9746.9857    4396.0952   -14143.081    134.02631   -702.25256   -450.97547    -576.7583   -324.94366   -6.3912296   -169.14758      46.7237      46.7237      46.7237           90           90           90     102002.7   -576.66211 
  960000       959500   -8715.8238    1085.5516   -9801.3755    4361.3655   -14162.741     128.9133   -807.75731   -1097.3713   -938.82375    152.47053    14.673272    337.88924      46.7237      46.7237      46.7237           90           90           90     102002.7   -947.98413 
  961000       960500   -8690.5821    1096.0173   -9786.5994    4365.5792   -14152.179    130.15613   -543.03091   -654.71802   -546.57416   -129.23573   -417.60866    -49.97621      46.7237      46.7237      46.7237           90           90           90     102002.7   -581.44103 
  962000       961500   -8697.8204    1106.5852   -9804.4056    4352.3961   -14156.802    131.41111   -830.16175   -718.22954   -967.07888    92.875334    69.882606    172.24213      46.7237      46.7237      46.7237           90           90           90     102002.7   -838.49006 
  963000       962500   -8672.7858    1092.9921   -9765.7779    4398.0162   -14163.794    129.79688   -833.49864   -642.85373   -1020.7256   -139.62449    69.896233   -211.02915      46.7237      46.7237      46.7237           90           90           90     102002.7   -832.35933 
  964000       963500   -8700.0128    1088.4449   -9788.4577     4388.032    -14176.49    129.25689   -751.44666   -776.17633   -1342.4858   -282.00028    1.8759375   -189.32145      46.7237      46.7237      46.7237           90           90           90     102002.7   -956.70293 
  965000       964500   -8659.1472    1109.9792   -9769.1264    4412.8256   -14181.952    131.81417   -848.33798   -1276.0122   -1205.7199    129.08884   -61.637422    55.684614      46.7237      46.7237      46.7237           90           90           90     102002.7   -1110.0234 
  966000       965500   -8698.5091    1081.1162   -9779.6254    4378.2433   -14157.869    128.38658   -1050.1398   -951.96354   -1079.3899   -72.478965    248.98163    24.788419      46.7237      46.7237      46.7237           90           90           90     102002.7   -1027.1644 
  967000       966500   -8679.5816    1102.8734   -9782.4549    4364.8213   -14147.276    130.97032   -817.15993   -1276.2644   -807.69738   -220.22095   -178.00123   -33.829695      46.7237      46.7237      46.7237           90           90           90     102002.7   -967.04056 
  968000       967500   -8694.7411    1086.1552   -9780.8962    4391.8001   -14172.696    128.98498   -761.79421   -958.25581   -670.47496    -56.38524   -81.157945    145.59042      46.7237      46.7237      46.7237           90           90           90     102002.7   -796.84166 
  969000       968500   -8722.3596    1113.6164    -9835.976    4362.8328   -14198.809     132.2461   -886.49714   -944.62438   -1692.2002    18.919161    103.53178    238.33979      46.7237      46.7237      46.7237           90           90           90     102002.7   -1174.4406 
  970000       969500   -8657.6099    1133.9937   -9791.6035    4370.6488   -14162.252    134.66598   -1043.1301   -556.51984   -1445.3613   -232.39268   -64.238392   -87.328013      46.7237      46.7237      46.7237           90           90           90     102002.7   -1015.0037 
  971000       970500   -8669.2018    1107.5366   -9776.7383    4381.7012    -14158.44     131.5241   -616.53754   -725.38351   -1145.5288    77.139875    217.15622   -95.352835      46.7237      46.7237      46.7237           90           90           90     102002.7   -829.14994 
  972000       971500   -8709.1003    1091.8349   -9800.9352    4374.1935   -14175.129    129.65946   -1182.1048   -1330.7205   -1265.4829    190.42791    130.49518    311.82109      46.7237      46.7237      46.7237           90           90           90     102002.7   -1259.4361 
  973000       972500   -8657.8623    1107.6784   -9765.5407     4396.288   -14161.829    131.54094   -572.00646   -647.62776   -486.48565    47.162287    113.85146    40.224369      46.7237      46.7237      46.7237           90           90           90     102002.7   -568.70662 
  974000       973500   -8697.3885    1098.8152   -9796.2037    4370.1216   -14166.325     130.4884   -749.88175   -970.10522   -644.51167    116.07884    22.342105   -207.91349      46.7237      46.7237      46.7237           90           90           90     102002.7   -788.16622 
  975000       974500   -8718.7141    1086.9452   -9805.6593    4385.5671   -14191.226    129.07879   -1149.7259   -483.95727   -1103.2726    18.128573    158.64162   -99.331695      46.7237      46.7237      46.7237           90           90           90     102002.7   -912.31861 
  976000       975500    -8686.316    1090.3627   -9776.6786    4393.7309    -14170.41    129.48463   -1061.7233   -1436.4163   -792.70224   -147.79394    178.96732    9.1624967      46.7237      46.7237      46.7237           90           90           90     102002.7   -1096.9473 
  977000       976500   -8646.9652    1120.3339   -9767.2991    4402.1729   -14169.472    133.04382   -1135.7846   -1024.5653   -847.17332   -97.746868   -185.14697   -258.69333      46.7237      46.7237      46.7237           90           90           90     102002.7   -1002.5078 
  978000       977500   -8690.7763    1088.5885   -9779.3648    4385.6947    -14165.06    129.27395   -634.07235   -922.23634    -798.6166   -46.658455   -2.8969242    96.507637      46.7237      46.7237      46.7237           90           90           90     102002.7    -784.9751 
  979000       978500   -8713.3635    1088.0154   -9801.3789    4371.3058   -14172.685    129.20588   -884.07387   -1153.0571   -852.95083   -50.039277    144.74892    79.878797      46.7237      46.7237      46.7237           90           90           90     102002.7   -963.36059 
  980000       979500   -8689.6687    1085.0375   -9774.7062    4390.2532   -14164.959    128.85225    -939.4166   -827.14068   -1403.6934    231.36684   -257.76137    303.39936      46.7237      46.7237      46.7237           90           90           90     102002.7   -1056.7502 
  981000       980500   -8657.5828    1118.1472   -9775.7299    4369.0631   -14144.793    132.78414   -306.95465   -721.09383   -1132.5906    161.08373    43.027741    26.098711      46.7237      46.7237      46.7237           90           90           90     102002.7   -720.21302 
  982000       981500   -8682.8084    1099.9885   -9782.7968    4358.0013   -14140.798    130.62773    -582.1873   -1096.5985   -1360.3758    262.56059   -115.55038    133.40098      46.7237      46.7237      46.7237           90           90           90     102002.7   -1013.0539 
  983000       982500    -8651.126    1106.2464   -9757.3724    4401.3621   -14158.734    131.37088   -780.09674   -1056.3536   -1044.7842   -8.5071647    57.797366    22.528893      46.7237      46.7237      46.7237           90           90           90     102002.7    -960.4115 
  984000       983500    -8660.641    1109.2151   -9769.8562    4383.3789   -14153.235    131.72343   -823.41261    -907.4299   -987.78267    85.220419   -419.36219   -108.69191      46.7237      46.7237      46.7237           90           90           90     102002.7   -906.20839 
  985000       984500   -8687.2025    1084.5603   -9771.7628    4355.0751   -14126.838    128.79558   -1218.8573   -380.06601   -1251.3758    139.11818   -123.56648   -115.36792      46.7237      46.7237      46.7237           90           90           90     102002.7    -950.0997 
  986000       985500    -8681.794    1080.2378   -9762.0318    4393.3846   -14155.416    128.28227   -347.93272   -520.28076   -732.24355   -229.61145   -3.1828268    10.062838      46.7237      46.7237      46.7237           90           90           90     102002.7   -533.48568 
  987000       986500   -8667.4631    1103.8621   -9771.3252    4372.8132   -14144.138    131.08774   -1130.9019   -614.62533   -1006.0723    73.184014   -154.32632    23.229693      46.7237      46.7237      46.7237           90           90           90     102002.7   -917.19983 
  988000       987500   -8667.0842    1089.0295   -9756.1138    4400.0356   -14156.149    129.32631   -977.99694   -676.24348    -1002.246    16.809079   -323.32555    124.01405      46.7237      46.7237      46.7237           90           90           90     102002.7   -885.49546 
  989000       988500   -8693.7291    1090.6219    -9784.351    4395.6495       -14180    129.51541   -1315.3644   -1174.3068   -133.49722   -363.19239    1.4986488    -394.8064      46.7237      46.7237      46.7237           90           90           90     102002.7   -874.38944 
  990000       989500   -8674.9454    1106.8202   -9781.7656    4373.4984   -14155.264    131.43902   -1159.2708   -784.15113   -1323.4689    53.819493   -206.39059    291.10832      46.7237      46.7237      46.7237           90           90           90     102002.7   -1088.9636 
  991000       990500   -8701.7348    1084.9304   -9786.6652     4391.963   -14178.628    128.83953   -907.14621    -1071.215   -1045.8597    188.64425    168.04378    27.945552      46.7237      46.7237      46.7237           90           90           90     102002.7   -1008.0737 
  992000       991500   -8685.3218    1105.1358   -9790.4576    4355.3125    -14145.77      131.239   -1126.9255   -941.27309   -694.13138    210.11251   -18.942099    67.646072      46.7237      46.7237      46.7237           90           90           90     102002.7   -920.77664 
  993000       992500   -8683.5197    1099.3962   -9782.9159    4371.5235   -14154.439    130.55739   -937.09516   -1244.8157   -1066.0536   -78.279325    56.925741    21.929476      46.7237      46.7237      46.7237           90           90           90     102002.7   -1082.6548 
  994000       993500   -8653.3249     1109.012   -9762.3369    4372.8674   -14135.204    131.69931   -813.31961   -768.30708   -244.11546   -147.89894    97.486266    265.83137      46.7237      46.7237      46.7237           90           90           90     102002.7   -608.58071 
  995000       994500   -8673.0487    1097.3142   -9770.3629    4388.2372     -14158.6    130.31015   -1169.7917   -1088.5675   -603.84126   -69.117816    38.837324   -97.697307      46.7237      46.7237      46.7237           90           90           90     102002.7    -954.0668 
  996000       995500   -8643.4318     1105.669   -9749.1008    4404.1276   -14153.228    131.30231   -1304.0286   -959.23933    -664.6635   -310.65963   -113.80317    47.623945      46.7237      46.7237      46.7237           90           90           90     102002.7   -975.97714 
  997000       996500   -8675.3289    1110.1117   -9785.4406    4364.1332   -14149.574     131.8299   -1074.7836   -104.67327   -732.37197    1.9529311   -111.31804    169.05498      46.7237      46.7237      46.7237           90           90           90     102002.7   -637.27626 
  998000       997500   -8660.2717    1104.9563    -9765.228    4386.4041   -14151.632    131.21767   -1313.0296    -1446.126   -1124.8696    19.303311    62.751822   -25.587925      46.7237      46.7237      46.7237           90           90           90     102002.7   -1294.6751 
  999000       998500   -8676.6913    1085.3705   -9762.0618    4393.7745   -14155.836     128.8918   -1255.1493   -869.08359    -689.4983    132.81377   -115.90184   -166.34975      46.7237      46.7237      46.7237           90           90           90     102002.7    -937.9104 
 1000000       999500   -8705.9348    1076.8921   -9782.8268    4371.2997   -14154.127    127.88495   -761.63159   -621.21071   -851.10802   -2.3748179    41.881533   -5.3889047      46.7237      46.7237      46.7237           90           90           90     102002.7   -744.65011 
 1000500      1000000   -8696.7427    1099.0412   -9795.7839    4349.5806   -14145.365    130.51523   -968.70503   -348.67952   -596.40005   -74.509533   -72.991692    18.838598      46.7237      46.7237      46.7237           90           90           90     102002.7    -637.9282 
Loop time of 1881.84 on 16 procs for 500000 steps with 2826 atoms

Performance: 22.956 ns/day, 1.045 hours/ns, 265.698 timesteps/s
99.8% CPU use with 16 MPI tasks x no OpenMP threads

MPI task timing breakdown:
Section |  min time  |  avg time  |  max time  |%varavg| %total
---------------------------------------------------------------
Pair    | 991.49     | 1242.9     | 1462.9     | 373.3 | 66.05
Bond    | 112.22     | 183.03     | 253.55     | 443.9 |  9.73
Neigh   | 14.422     | 14.45      | 14.5       |   0.7 |  0.77
Comm    | 127.93     | 409.84     | 732.05     | 917.8 | 21.78
Output  | 0.12362    | 0.12977    | 0.13034    |   0.4 |  0.01
Modify  | 23.382     | 24.999     | 27.554     |  30.2 |  1.33
Other   |            | 6.467      |            |       |  0.34

Nlocal:    176.625 ave 208 max 146 min
Histogram: 3 1 2 2 0 0 1 1 5 1
Nghost:    3607.19 ave 3628 max 3586 min
Histogram: 1 0 3 2 1 1 6 1 0 1
Neighs:    11455.8 ave 13891 max 8477 min
Histogram: 2 0 1 1 2 2 3 3 0 2

Total # of neighbors = 183293
Ave neighs/atom = 64.8595
Ave special neighs/atom = 4.07643
Neighbor list builds = 5216
Dangerous builds = 0
Total wall time: 0:58:44
