LAMMPS (30 Mar 2018)
Reading data file ...
  orthogonal box = (0 0 0) to (46.7237 46.7237 46.7237)
  2 by 2 by 4 MPI processor grid
  reading atoms ...
  1946 atoms
  scanning bonds ...
  5 = max bonds/atom
  scanning angles ...
  10 = max angles/atom
  scanning dihedrals ...
  32 = max dihedrals/atom
  scanning impropers ...
  3 = max impropers/atom
  reading bonds ...
  2064 bonds
  reading angles ...
  3696 angles
  reading dihedrals ...
  6240 dihedrals
  reading impropers ...
  1008 impropers
Finding 1-2 1-3 1-4 neighbors ...
  special bond factors lj:   0          0          0         
  special bond factors coul: 0          0          0         
  5 = max # of 1-2 neighbors
  8 = max # of 1-3 neighbors
  20 = max # of 1-4 neighbors
  19 = max # of special neighbors
Finding 1-2 1-3 1-4 neighbors ...
  special bond factors lj:   0          0          1         
  special bond factors coul: 1          1          1         
  5 = max # of 1-2 neighbors
  8 = max # of 1-3 neighbors
  19 = max # of special neighbors
WARNING: Using 'neigh_modify every 1 delay 0 check yes' setting during minimization (../min.cpp:168)
Neighbor list info ...
  update every 1 steps, delay 0 steps, check yes
  max neighbors/atom: 2000, page size: 100000
  master list distance cutoff = 16
  ghost atom cutoff = 16
  binsize = 8, bins = 6 6 6
  3 neighbor lists, perpetual/occasional/extra = 3 0 0
  (1) pair buck6d/coul/gauss/dsf, perpetual, skip from (3)
      attributes: half, newton on
      pair build: skip
      stencil: none
      bin: none
  (2) pair lj/cut, perpetual, skip from (3)
      attributes: half, newton on
      pair build: skip
      stencil: none
      bin: none
  (3) neighbor class addition, perpetual
      attributes: half, newton on
      pair build: half/bin/newton
      stencil: half/bin/3d/newton
      bin: standard
Setting up cg style minimization ...
  Unit style    : real
  Current step  : 0
WARNING: Inconsistent image flags (../domain.cpp:786)
Per MPI rank memory allocation (min/avg/max) = 22.9 | 23.36 | 23.81 Mbytes
Step Temp E_pair E_mol TotEng Press 
       0            0   -12202.566    6482.8914   -5719.6745    6134.7194 
     501            0   -12270.634    3723.7214   -8546.9126   -592.84217 
Loop time of 3.13909 on 16 procs for 501 steps with 1946 atoms

99.8% CPU use with 16 MPI tasks x no OpenMP threads

Minimization stats:
  Stopping criterion = max force evaluations
  Energy initial, next-to-last, final = 
        -5719.67445522     -8546.89747893      -8546.9125956
  Force two-norm initial, final = 2575.72 5.6087
  Force max component initial, final = 152.059 0.622678
  Final line search alpha, max atom move = 0.00921332 0.00573693
  Iterations, force evaluations = 501 1000

MPI task timing breakdown:
Section |  min time  |  avg time  |  max time  |%varavg| %total
---------------------------------------------------------------
Pair    | 1.2807     | 1.7666     | 2.2928     |  25.2 | 56.28
Bond    | 0.28407    | 0.36042    | 0.44914    |   6.9 | 11.48
Neigh   | 0.017237   | 0.017398   | 0.017652   |   0.1 |  0.55
Comm    | 0.40603    | 0.95589    | 1.4778     |  35.3 | 30.45
Output  | 0          | 0          | 0          |   0.0 |  0.00
Modify  | 0          | 0          | 0          |   0.0 |  0.00
Other   |            | 0.03875    |            |       |  1.23

Nlocal:    121.625 ave 147 max 101 min
Histogram: 2 1 1 2 2 3 4 0 0 1
Nghost:    2387.75 ave 2405 max 2366 min
Histogram: 1 0 2 1 3 2 1 3 1 2
Neighs:    11449.4 ave 16384 max 7681 min
Histogram: 2 5 0 1 1 2 1 0 3 1

Total # of neighbors = 183191
Ave neighs/atom = 94.1372
Ave special neighs/atom = 5.91984
Neighbor list builds = 11
Dangerous builds = 0
Neighbor list info ...
  update every 1 steps, delay 10 steps, check yes
  max neighbors/atom: 2000, page size: 100000
  master list distance cutoff = 16
  ghost atom cutoff = 16
  binsize = 8, bins = 6 6 6
  3 neighbor lists, perpetual/occasional/extra = 3 0 0
  (1) pair buck6d/coul/gauss/dsf, perpetual, skip from (3)
      attributes: half, newton on
      pair build: skip
      stencil: none
      bin: none
  (2) pair lj/cut, perpetual, skip from (3)
      attributes: half, newton on
      pair build: skip
      stencil: none
      bin: none
  (3) neighbor class addition, perpetual
      attributes: half, newton on
      pair build: half/bin/newton
      stencil: half/bin/3d/newton
      bin: standard
Setting up Verlet run ...
  Unit style    : real
  Current step  : 501
  Time step     : 1
WARNING: Inconsistent image flags (../domain.cpp:786)
Per MPI rank memory allocation (min/avg/max) = 22.55 | 22.66 | 22.87 Mbytes
Step Temp PotEng TotEng Press Volume Lx Ly Lz 
     501           91   -8546.9126   -8019.3241   -356.40461     102002.7      46.7237      46.7237      46.7237 
    1000    75.333176   -8056.0502   -7619.2929   -685.77721     102002.7      46.7237      46.7237      46.7237 
    2000    97.474385   -8009.1703   -7444.0455   -672.90062     102002.7      46.7237      46.7237      46.7237 
    3000    89.454849   -7992.5197   -7473.8895   -648.13265     102002.7      46.7237      46.7237      46.7237 
    4000    88.183146   -7989.0133    -7477.756   -512.90612     102002.7      46.7237      46.7237      46.7237 
    5000    92.025152   -8013.2073   -7479.6754   -823.33838     102002.7      46.7237      46.7237      46.7237 
    6000    90.508954     -7986.38   -7461.6385    -985.9483     102002.7      46.7237      46.7237      46.7237 
    7000    90.911079   -8005.2819   -7478.2089   -648.91863     102002.7      46.7237      46.7237      46.7237 
    8000     91.26952   -8010.4103   -7481.2592   -841.22437     102002.7      46.7237      46.7237      46.7237 
    9000    91.742501   -8006.4377   -7474.5444   -480.70525     102002.7      46.7237      46.7237      46.7237 
   10000    90.517506   -7996.5247   -7471.7335   -1021.9923     102002.7      46.7237      46.7237      46.7237 
   11000    92.793135   -7985.9263   -7447.9419   -916.68966     102002.7      46.7237      46.7237      46.7237 
   12000    91.347753   -7991.4699   -7461.8653   -669.07094     102002.7      46.7237      46.7237      46.7237 
   13000    92.023198   -7995.9616   -7462.4409   -704.93313     102002.7      46.7237      46.7237      46.7237 
   14000    92.501573   -7970.1582   -7433.8641   -689.41259     102002.7      46.7237      46.7237      46.7237 
   15000    89.512779   -7981.4199   -7462.4539   -707.66787     102002.7      46.7237      46.7237      46.7237 
   16000    89.806504   -7985.7464   -7465.0774   -846.44877     102002.7      46.7237      46.7237      46.7237 
   17000    91.169455   -7983.1932   -7454.6223   -728.55145     102002.7      46.7237      46.7237      46.7237 
   18000    90.559985   -7988.9812   -7463.9438   -1001.4737     102002.7      46.7237      46.7237      46.7237 
   19000    94.195672   -7977.7196   -7431.6036   -465.44365     102002.7      46.7237      46.7237      46.7237 
   20000    90.036507   -7981.8706   -7459.8681    -739.1753     102002.7      46.7237      46.7237      46.7237 
   21000    90.905007   -7977.0146   -7449.9769   -675.80902     102002.7      46.7237      46.7237      46.7237 
   22000    91.661308   -7980.4532   -7449.0307   -691.50449     102002.7      46.7237      46.7237      46.7237 
   23000    84.947058   -8002.5036   -7510.0081    -750.7296     102002.7      46.7237      46.7237      46.7237 
   24000    90.472636   -7986.0217   -7461.4907   -791.26894     102002.7      46.7237      46.7237      46.7237 
   25000    87.950059   -8002.2378   -7492.3319   -867.48565     102002.7      46.7237      46.7237      46.7237 
   26000     90.55583   -7998.0878   -7473.0745    -739.6097     102002.7      46.7237      46.7237      46.7237 
   27000    90.913374   -7971.1609   -7444.0747   -827.81553     102002.7      46.7237      46.7237      46.7237 
   28000    89.776407   -8006.1894   -7485.6949   -921.80558     102002.7      46.7237      46.7237      46.7237 
   29000    88.662299   -7983.7405   -7469.7053   -769.32233     102002.7      46.7237      46.7237      46.7237 
   30000    93.349269   -7994.4412   -7453.2325   -824.45164     102002.7      46.7237      46.7237      46.7237 
   31000    94.488689   -7992.0538    -7444.239    -749.7084     102002.7      46.7237      46.7237      46.7237 
   32000    90.510149   -7989.9701   -7465.2216    -1022.662     102002.7      46.7237      46.7237      46.7237 
   33000     89.35986   -7996.4527   -7478.3732   -781.39021     102002.7      46.7237      46.7237      46.7237 
   34000    91.489684   -7975.9869   -7445.5594   -775.97607     102002.7      46.7237      46.7237      46.7237 
   35000    92.297059   -7990.1874    -7455.079   -855.55826     102002.7      46.7237      46.7237      46.7237 
   36000    89.506686   -8006.7929   -7487.8622   -716.56287     102002.7      46.7237      46.7237      46.7237 
   37000    91.500845   -7996.2811   -7465.7889   -782.69651     102002.7      46.7237      46.7237      46.7237 
   38000    93.311129   -7973.6719   -7432.6842   -899.51316     102002.7      46.7237      46.7237      46.7237 
   39000    91.845302   -8001.0582   -7468.5689   -627.31496     102002.7      46.7237      46.7237      46.7237 
   40000    90.005025   -7998.0107   -7476.1908   -909.84502     102002.7      46.7237      46.7237      46.7237 
   41000    92.777209   -7989.3034   -7451.4113   -483.23763     102002.7      46.7237      46.7237      46.7237 
   42000    90.856271   -7992.3172    -7465.562   -499.64341     102002.7      46.7237      46.7237      46.7237 
   43000    88.370839   -8003.5694   -7491.2239   -701.40393     102002.7      46.7237      46.7237      46.7237 
   44000    91.471421   -7981.2048   -7450.8831   -619.86868     102002.7      46.7237      46.7237      46.7237 
   45000    90.917128   -8006.2914   -7479.1834   -802.49148     102002.7      46.7237      46.7237      46.7237 
   46000    90.999945   -7984.9398   -7457.3517   -713.73557     102002.7      46.7237      46.7237      46.7237 
   47000    91.763161   -7999.5258   -7467.5128   -685.74696     102002.7      46.7237      46.7237      46.7237 
   48000    90.334018    -7992.976   -7469.2486   -359.70835     102002.7      46.7237      46.7237      46.7237 
   49000    93.389796   -7988.3387   -7446.8949   -755.95596     102002.7      46.7237      46.7237      46.7237 
   50000    91.313824   -7985.0229    -7455.615   -720.71951     102002.7      46.7237      46.7237      46.7237 
   51000    90.538067   -7989.7766   -7464.8663   -590.29247     102002.7      46.7237      46.7237      46.7237 
   52000    86.974674   -7997.3037   -7493.0528   -1066.0381     102002.7      46.7237      46.7237      46.7237 
   53000    92.689703   -8001.0572   -7463.6724   -751.21889     102002.7      46.7237      46.7237      46.7237 
   54000    86.524746   -7996.7605   -7495.1181   -894.79678     102002.7      46.7237      46.7237      46.7237 
   55000    90.674649    -7995.471   -7469.7688   -889.63922     102002.7      46.7237      46.7237      46.7237 
   56000    90.734026   -7997.8785   -7471.8321     -771.949     102002.7      46.7237      46.7237      46.7237 
   57000    91.262184   -8004.7315    -7475.623   -803.20693     102002.7      46.7237      46.7237      46.7237 
   58000    92.252733   -7968.5671   -7433.7157   -1016.4749     102002.7      46.7237      46.7237      46.7237 
   59000    92.213659    -7987.187   -7452.5622   -999.04937     102002.7      46.7237      46.7237      46.7237 
   60000    90.714323   -8002.2562    -7476.324   -815.55886     102002.7      46.7237      46.7237      46.7237 
   61000     87.53399   -7959.0604   -7451.5667   -966.56365     102002.7      46.7237      46.7237      46.7237 
   62000    88.015343   -7983.6148   -7473.3304   -955.09308     102002.7      46.7237      46.7237      46.7237 
   63000    91.926249   -8002.9579   -7469.9994    -839.6162     102002.7      46.7237      46.7237      46.7237 
   64000    89.240934   -7969.8936   -7452.5036   -829.42511     102002.7      46.7237      46.7237      46.7237 
   65000    90.019214   -8006.4567   -7484.5545   -514.43917     102002.7      46.7237      46.7237      46.7237 
   66000    93.185974   -7998.2294   -7457.9674   -469.46935     102002.7      46.7237      46.7237      46.7237 
   67000     90.95993   -7990.8144   -7463.4582    -452.3773     102002.7      46.7237      46.7237      46.7237 
   68000    94.381446   -7980.3398   -7433.1468   -861.48852     102002.7      46.7237      46.7237      46.7237 
   69000    91.960876   -7984.3932   -7451.2338   -711.46342     102002.7      46.7237      46.7237      46.7237 
   70000     91.37764     -7993.01   -7463.2321   -704.12214     102002.7      46.7237      46.7237      46.7237 
   71000    89.005304   -7993.2053   -7477.1814   -538.95148     102002.7      46.7237      46.7237      46.7237 
   72000     91.55926   -7997.6642   -7466.8334   -775.14495     102002.7      46.7237      46.7237      46.7237 
   73000    91.580445   -7980.0179   -7449.0642   -791.45437     102002.7      46.7237      46.7237      46.7237 
   74000    91.166757   -8000.7607   -7472.2054   -601.02976     102002.7      46.7237      46.7237      46.7237 
   75000    91.056662   -7976.7649   -7448.8479   -526.33168     102002.7      46.7237      46.7237      46.7237 
   76000    89.050732    -7996.952   -7480.6647   -508.99165     102002.7      46.7237      46.7237      46.7237 
   77000    89.503475   -7988.0059   -7469.0938   -902.30455     102002.7      46.7237      46.7237      46.7237 
   78000    90.515407   -8016.8125   -7492.0335   -618.27927     102002.7      46.7237      46.7237      46.7237 
   79000    90.545236   -7977.7478   -7452.7959   -716.06091     102002.7      46.7237      46.7237      46.7237 
   80000    91.464949   -7995.5889   -7465.3048    -826.1668     102002.7      46.7237      46.7237      46.7237 
   81000    92.464667   -7998.3532   -7462.2731   -734.22979     102002.7      46.7237      46.7237      46.7237 
   82000    89.207499   -8010.2587   -7493.0626   -743.52218     102002.7      46.7237      46.7237      46.7237 
   83000    88.129666   -7972.4863   -7461.5391   -751.81302     102002.7      46.7237      46.7237      46.7237 
   84000    94.336887   -7995.1927    -7448.258   -656.05979     102002.7      46.7237      46.7237      46.7237 
   85000    93.047552   -7989.5028   -7450.0433   -533.63399     102002.7      46.7237      46.7237      46.7237 
   86000     91.79166   -7994.1184   -7461.9402    -567.4196     102002.7      46.7237      46.7237      46.7237 
   87000    89.466736   -7994.9807   -7476.2816   -698.07244     102002.7      46.7237      46.7237      46.7237 
   88000    90.404148   -7975.6897   -7451.5557   -738.64758     102002.7      46.7237      46.7237      46.7237 
   89000    91.874863   -7987.9707     -7455.31    -536.7696     102002.7      46.7237      46.7237      46.7237 
   90000     91.76286    -7991.321   -7459.3097   -700.99907     102002.7      46.7237      46.7237      46.7237 
   91000    92.054643   -7965.8389   -7432.1359   -681.04856     102002.7      46.7237      46.7237      46.7237 
   92000    92.481066   -8014.7735   -7478.5983   -701.65747     102002.7      46.7237      46.7237      46.7237 
   93000    92.190695    -7996.074   -7461.5822   -566.40847     102002.7      46.7237      46.7237      46.7237 
   94000    90.271536   -7988.1644   -7464.7993   -807.56371     102002.7      46.7237      46.7237      46.7237 
   95000    92.625716   -7985.8249    -7448.811   -584.05401     102002.7      46.7237      46.7237      46.7237 
   96000    90.262921   -7983.0621   -7459.7469   -795.85331     102002.7      46.7237      46.7237      46.7237 
   97000    93.700414   -7980.2959   -7437.0513   -849.69896     102002.7      46.7237      46.7237      46.7237 
   98000    93.116449   -8003.6557   -7463.7967   -794.01427     102002.7      46.7237      46.7237      46.7237 
   99000    92.953008   -7983.7785   -7444.8671   -925.74134     102002.7      46.7237      46.7237      46.7237 
  100000    90.564811   -7978.8951   -7453.8298   -857.55784     102002.7      46.7237      46.7237      46.7237 
  101000     90.00891   -7984.5363   -7462.6939   -726.87706     102002.7      46.7237      46.7237      46.7237 
  102000    89.934652   -7995.9698   -7474.5579   -509.42347     102002.7      46.7237      46.7237      46.7237 
  103000    93.935295    -7995.364   -7450.7576   -229.66834     102002.7      46.7237      46.7237      46.7237 
  104000    89.887219     -7985.79   -7464.6531   -782.72924     102002.7      46.7237      46.7237      46.7237 
  105000    91.459156   -7997.1603   -7466.9098   -662.03676     102002.7      46.7237      46.7237      46.7237 
  106000    89.581189   -7990.0529   -7470.6903   -568.67922     102002.7      46.7237      46.7237      46.7237 
  107000    90.260323    -7975.308   -7452.0079   -799.18823     102002.7      46.7237      46.7237      46.7237 
  108000    93.871936   -7968.5612   -7424.3221   -776.93776     102002.7      46.7237      46.7237      46.7237 
  109000    88.709533   -7990.3621    -7476.053    -909.1615     102002.7      46.7237      46.7237      46.7237 
  110000    91.920119   -7993.2288   -7460.3058   -662.61655     102002.7      46.7237      46.7237      46.7237 
  111000    87.870627    -7989.785   -7480.3397   -983.12511     102002.7      46.7237      46.7237      46.7237 
  112000    92.548435   -7983.3865   -7446.8207   -830.70838     102002.7      46.7237      46.7237      46.7237 
  113000    91.529921   -7980.5302   -7449.8694   -860.78485     102002.7      46.7237      46.7237      46.7237 
  114000    91.883778   -7991.4264   -7458.7141   -901.89927     102002.7      46.7237      46.7237      46.7237 
  115000    91.890705   -7977.3399   -7444.5874    -768.7195     102002.7      46.7237      46.7237      46.7237 
  116000    90.948701   -8016.9374   -7489.6464   -960.20333     102002.7      46.7237      46.7237      46.7237 
  117000    89.858937   -7986.0849   -7465.1119   -987.38123     102002.7      46.7237      46.7237      46.7237 
  118000    91.423128   -7974.0083   -7443.9667   -679.29123     102002.7      46.7237      46.7237      46.7237 
  119000    90.092369   -7976.5144    -7454.188   -683.78609     102002.7      46.7237      46.7237      46.7237 
  120000    91.958501   -8009.1935   -7476.0479   -406.57588     102002.7      46.7237      46.7237      46.7237 
  121000    87.441864   -7980.3218   -7473.3622   -486.78302     102002.7      46.7237      46.7237      46.7237 
  122000    90.142142   -7972.0723   -7449.4574   -545.12421     102002.7      46.7237      46.7237      46.7237 
  123000     90.66587   -7964.2092   -7438.5579   -677.92413     102002.7      46.7237      46.7237      46.7237 
  124000    89.695384    -7988.782   -7468.7573   -661.75463     102002.7      46.7237      46.7237      46.7237 
  125000    94.120501   -7982.7581    -7437.078   -630.17252     102002.7      46.7237      46.7237      46.7237 
  126000    89.359222   -7993.7091   -7475.6333   -777.20149     102002.7      46.7237      46.7237      46.7237 
  127000     94.34451   -7980.2002   -7433.2213   -684.26389     102002.7      46.7237      46.7237      46.7237 
  128000    90.436227   -7978.3498   -7454.0299   -567.88399     102002.7      46.7237      46.7237      46.7237 
  129000    91.348221   -8004.6348   -7475.0274   -515.43592     102002.7      46.7237      46.7237      46.7237 
  130000    89.356977   -7972.4663   -7454.4036    -573.6496     102002.7      46.7237      46.7237      46.7237 
  131000    92.871792   -7999.3037   -7460.8632   -674.10271     102002.7      46.7237      46.7237      46.7237 
  132000    91.407616   -7976.9946   -7447.0429   -794.04597     102002.7      46.7237      46.7237      46.7237 
  133000    92.374577   -7993.7926   -7458.2348   -709.09115     102002.7      46.7237      46.7237      46.7237 
  134000    91.528721   -7993.6848    -7463.031   -889.02306     102002.7      46.7237      46.7237      46.7237 
  135000     90.46494   -7976.9364     -7452.45   -720.60357     102002.7      46.7237      46.7237      46.7237 
  136000    91.183427   -7974.4104   -7445.7585   -978.13848     102002.7      46.7237      46.7237      46.7237 
  137000    92.579176   -7992.1418   -7455.3977    -624.8384     102002.7      46.7237      46.7237      46.7237 
  138000    94.211839   -7976.9155   -7430.7059   -687.77748     102002.7      46.7237      46.7237      46.7237 
  139000    92.633912    -7991.419   -7454.3577   -531.31136     102002.7      46.7237      46.7237      46.7237 
  140000    91.764976   -7992.2394   -7460.2158   -1065.2415     102002.7      46.7237      46.7237      46.7237 
  141000     90.92843   -7973.6612   -7446.4877   -859.35292     102002.7      46.7237      46.7237      46.7237 
  142000    95.605555   -7978.9816   -7424.6916   -547.11807     102002.7      46.7237      46.7237      46.7237 
  143000    88.590975   -7992.1715   -7478.5498    -886.8948     102002.7      46.7237      46.7237      46.7237 
  144000    91.464317   -7996.7236   -7466.4431   -563.09737     102002.7      46.7237      46.7237      46.7237 
  145000    86.977459   -7985.1346   -7480.8675   -539.63999     102002.7      46.7237      46.7237      46.7237 
  146000    90.733867   -7976.5965    -7450.551   -764.77586     102002.7      46.7237      46.7237      46.7237 
  147000    92.065616   -7984.0257   -7450.2591   -777.51969     102002.7      46.7237      46.7237      46.7237 
  148000    92.709408   -7972.7138   -7435.2147   -847.65385     102002.7      46.7237      46.7237      46.7237 
  149000    91.356181   -7981.4031   -7451.7496    -740.6868     102002.7      46.7237      46.7237      46.7237 
  150000     90.52672   -7991.0783   -7466.2337   -811.70145     102002.7      46.7237      46.7237      46.7237 
  151000    94.615359   -7988.1386   -7439.5894   -418.36025     102002.7      46.7237      46.7237      46.7237 
  152000    90.573318    -7972.692   -7447.5773   -752.15932     102002.7      46.7237      46.7237      46.7237 
  153000    90.362472   -7985.8662   -7461.9739   -705.06494     102002.7      46.7237      46.7237      46.7237 
  154000     93.32271   -7990.4577   -7449.4029   -583.14283     102002.7      46.7237      46.7237      46.7237 
  155000    91.604962   -7985.1581   -7454.0623   -900.30399     102002.7      46.7237      46.7237      46.7237 
  156000    92.441512   -7999.7386   -7463.7927   -670.12567     102002.7      46.7237      46.7237      46.7237 
  157000    88.712114   -8001.7198   -7487.3957    -656.0605     102002.7      46.7237      46.7237      46.7237 
  158000    90.457498   -7983.1616   -7458.7183   -972.24686     102002.7      46.7237      46.7237      46.7237 
  159000    88.710324    -7985.119   -7470.8053   -755.42234     102002.7      46.7237      46.7237      46.7237 
  160000    90.662521   -7986.9549    -7461.323   -876.52561     102002.7      46.7237      46.7237      46.7237 
  161000    89.117379   -8008.7058   -7492.0322   -641.70767     102002.7      46.7237      46.7237      46.7237 
  162000    92.035259   -7988.2381   -7454.6476    -756.0775     102002.7      46.7237      46.7237      46.7237 
  163000     87.33484   -8001.3832   -7495.0441   -584.21639     102002.7      46.7237      46.7237      46.7237 
  164000    90.199201    -7998.421   -7475.4753    -733.5421     102002.7      46.7237      46.7237      46.7237 
  165000    90.228972   -7979.3874   -7456.2691   -576.18051     102002.7      46.7237      46.7237      46.7237 
  166000    92.087649   -8006.7048   -7472.8105   -816.71206     102002.7      46.7237      46.7237      46.7237 
  167000    91.901025   -7996.0492   -7463.2368   -699.34041     102002.7      46.7237      46.7237      46.7237 
  168000    92.630162   -7977.2512   -7440.2116   -654.77968     102002.7      46.7237      46.7237      46.7237 
  169000    90.082641   -7969.7544   -7447.4845   -928.77078     102002.7      46.7237      46.7237      46.7237 
  170000    89.277871   -7980.6003   -7462.9962   -822.54593     102002.7      46.7237      46.7237      46.7237 
  171000    90.962816   -7959.6987   -7432.3258   -761.82785     102002.7      46.7237      46.7237      46.7237 
  172000     91.08208   -7992.2903   -7464.2259   -619.68587     102002.7      46.7237      46.7237      46.7237 
  173000    90.778832   -7992.3965   -7466.0903   -814.05263     102002.7      46.7237      46.7237      46.7237 
  174000    91.929364   -7977.9115   -7444.9348   -562.75174     102002.7      46.7237      46.7237      46.7237 
  175000    92.366704    -7998.328   -7462.8158   -640.72445     102002.7      46.7237      46.7237      46.7237 
  176000    90.520064   -7986.4717   -7461.6658   -728.24968     102002.7      46.7237      46.7237      46.7237 
  177000    91.652424   -7980.2991   -7448.9281   -475.61297     102002.7      46.7237      46.7237      46.7237 
  178000     89.40095   -7974.9825   -7456.6648     -944.179     102002.7      46.7237      46.7237      46.7237 
  179000    87.870851   -7994.0528   -7484.6061    -907.4429     102002.7      46.7237      46.7237      46.7237 
  180000    91.862086   -7982.5602   -7449.9736   -645.77873     102002.7      46.7237      46.7237      46.7237 
  181000    94.029292    -7995.177   -7450.0257   -571.33876     102002.7      46.7237      46.7237      46.7237 
  182000    91.816943   -8001.3975   -7469.0726   -905.75444     102002.7      46.7237      46.7237      46.7237 
  183000    91.653974    -7980.661    -7449.281   -743.56472     102002.7      46.7237      46.7237      46.7237 
  184000    92.582007   -7999.9678   -7463.2074   -583.86023     102002.7      46.7237      46.7237      46.7237 
  185000    89.726653   -7962.8879   -7442.6818   -880.77981     102002.7      46.7237      46.7237      46.7237 
  186000    89.857555   -7996.0693   -7475.1044   -662.37691     102002.7      46.7237      46.7237      46.7237 
  187000    90.321958   -7978.0263   -7454.3689    -612.0115     102002.7      46.7237      46.7237      46.7237 
  188000     88.03153   -7970.5131   -7460.1348    -847.8702     102002.7      46.7237      46.7237      46.7237 
  189000    89.721639   -7976.7062   -7456.5293   -542.96761     102002.7      46.7237      46.7237      46.7237 
  190000    91.351921   -7984.6661   -7455.0373    -663.0374     102002.7      46.7237      46.7237      46.7237 
  191000    93.998055   -7983.7021   -7438.7319    -662.8453     102002.7      46.7237      46.7237      46.7237 
  192000    91.993202   -7997.5897    -7464.243   -866.42324     102002.7      46.7237      46.7237      46.7237 
  193000    92.945935   -7990.3437   -7451.4733   -655.59533     102002.7      46.7237      46.7237      46.7237 
  194000    90.262304   -7979.0236    -7455.712   -610.11703     102002.7      46.7237      46.7237      46.7237 
  195000    90.627544   -7997.7264   -7472.2973   -777.52685     102002.7      46.7237      46.7237      46.7237 
  196000    92.019819   -7981.9807   -7448.4797   -807.87411     102002.7      46.7237      46.7237      46.7237 
  197000    91.274629   -7984.3381   -7455.1575   -720.99719     102002.7      46.7237      46.7237      46.7237 
  198000    90.019061   -7982.9829   -7461.0816    -491.5487     102002.7      46.7237      46.7237      46.7237 
  199000     88.31274   -7973.9608   -7461.9522   -954.32473     102002.7      46.7237      46.7237      46.7237 
  200000    88.183364   -7979.9829   -7468.7244   -886.56565     102002.7      46.7237      46.7237      46.7237 
  201000    91.658549    -7986.823   -7455.4165   -803.49994     102002.7      46.7237      46.7237      46.7237 
  202000    89.662422   -7991.5339   -7471.7002   -728.39558     102002.7      46.7237      46.7237      46.7237 
  203000     91.98446   -7971.7368   -7438.4407   -704.54058     102002.7      46.7237      46.7237      46.7237 
  204000    88.372693   -7996.2665   -7483.9103   -773.66639     102002.7      46.7237      46.7237      46.7237 
  205000    89.951729   -7989.8754   -7468.3644   -696.52155     102002.7      46.7237      46.7237      46.7237 
  206000    91.984962   -7965.1783   -7431.8793   -375.53907     102002.7      46.7237      46.7237      46.7237 
  207000     90.34663   -7989.8854    -7466.085   -552.46342     102002.7      46.7237      46.7237      46.7237 
  208000     88.00019   -7977.1348   -7466.9383   -959.95066     102002.7      46.7237      46.7237      46.7237 
  209000    91.607122    -7987.174   -7456.0656   -715.93603     102002.7      46.7237      46.7237      46.7237 
  210000    90.385895   -7979.4097   -7455.3816   -695.23041     102002.7      46.7237      46.7237      46.7237 
  211000    93.189533    -7993.797   -7453.5143   -839.09081     102002.7      46.7237      46.7237      46.7237 
  212000      90.9024   -7974.3661   -7447.3434   -767.59318     102002.7      46.7237      46.7237      46.7237 
  213000    93.176949   -7986.6353   -7446.4256   -883.95636     102002.7      46.7237      46.7237      46.7237 
  214000    88.401555   -7980.6926   -7468.1691   -754.05321     102002.7      46.7237      46.7237      46.7237 
  215000    90.611311   -7996.7945   -7471.4595   -683.91004     102002.7      46.7237      46.7237      46.7237 
  216000    91.304463   -7978.6252   -7449.2715   -874.56903     102002.7      46.7237      46.7237      46.7237 
  217000    89.497924   -7981.5088   -7462.6289   -816.28593     102002.7      46.7237      46.7237      46.7237 
  218000    93.475671   -7979.4272   -7437.4856   -567.91223     102002.7      46.7237      46.7237      46.7237 
  219000    93.833207   -7979.6113   -7435.5969   -775.71013     102002.7      46.7237      46.7237      46.7237 
  220000    91.711371   -7991.3893   -7459.6765   -681.67694     102002.7      46.7237      46.7237      46.7237 
  221000    90.660492   -7981.3809   -7455.7608   -737.92046     102002.7      46.7237      46.7237      46.7237 
  222000    90.237186   -7985.2187   -7462.0527   -715.53803     102002.7      46.7237      46.7237      46.7237 
  223000    92.043125   -7974.1577   -7440.5215   -849.51709     102002.7      46.7237      46.7237      46.7237 
  224000    93.003865   -7999.3029   -7460.0966   -865.96456     102002.7      46.7237      46.7237      46.7237 
  225000    91.235911   -7980.3913   -7451.4351   -895.36241     102002.7      46.7237      46.7237      46.7237 
  226000    93.064142   -7990.0667    -7450.511   -726.05505     102002.7      46.7237      46.7237      46.7237 
  227000    93.148272   -7977.6369   -7437.5934   -767.22661     102002.7      46.7237      46.7237      46.7237 
  228000     91.21001   -7981.9631   -7453.1571   -736.72333     102002.7      46.7237      46.7237      46.7237 
  229000    90.175196   -7974.2053   -7451.3988   -877.54755     102002.7      46.7237      46.7237      46.7237 
  230000    90.298993   -7983.1991   -7459.6748   -950.58649     102002.7      46.7237      46.7237      46.7237 
  231000    92.031928   -7994.7971   -7461.2259   -759.56678     102002.7      46.7237      46.7237      46.7237 
  232000    88.711613   -7981.0389   -7466.7178   -960.05039     102002.7      46.7237      46.7237      46.7237 
  233000      92.3379   -7971.7987   -7436.4535   -1054.7048     102002.7      46.7237      46.7237      46.7237 
  234000    90.725251   -7994.3111   -7468.3156    -977.6244     102002.7      46.7237      46.7237      46.7237 
  235000    91.226974   -7989.2748   -7460.3705   -856.58423     102002.7      46.7237      46.7237      46.7237 
  236000    92.289257   -7969.2725   -7434.2093   -953.15702     102002.7      46.7237      46.7237      46.7237 
  237000    89.721453   -7978.3931   -7458.2173    -883.9249     102002.7      46.7237      46.7237      46.7237 
  238000    91.925354   -7975.4837   -7442.5303   -913.09217     102002.7      46.7237      46.7237      46.7237 
  239000    89.994597   -7994.2822   -7472.5227   -998.02456     102002.7      46.7237      46.7237      46.7237 
  240000    92.592354   -7980.6231   -7443.8027   -863.05921     102002.7      46.7237      46.7237      46.7237 
  241000    91.986867   -7980.3412   -7447.0312   -839.68793     102002.7      46.7237      46.7237      46.7237 
  242000    94.066108   -7997.4077   -7452.0429   -679.19215     102002.7      46.7237      46.7237      46.7237 
  243000    89.943824   -7984.8285   -7463.3634   -928.78605     102002.7      46.7237      46.7237      46.7237 
  244000    92.662774   -7982.7217    -7445.493   -743.73146     102002.7      46.7237      46.7237      46.7237 
  245000     92.41729   -7975.6226   -7439.8171   -647.97021     102002.7      46.7237      46.7237      46.7237 
  246000     92.85876   -8001.5447   -7463.1797   -832.65932     102002.7      46.7237      46.7237      46.7237 
  247000    92.700127   -7982.0848   -7444.6396   -621.17826     102002.7      46.7237      46.7237      46.7237 
  248000    92.403365   -8000.7384   -7465.0137   -899.97295     102002.7      46.7237      46.7237      46.7237 
  249000    88.526867   -7996.3901     -7483.14   -697.64237     102002.7      46.7237      46.7237      46.7237 
  250000    90.738214   -7986.1085   -7460.0377   -712.14934     102002.7      46.7237      46.7237      46.7237 
  251000     91.47141    -7981.851   -7451.5295   -812.99794     102002.7      46.7237      46.7237      46.7237 
  252000    90.749651   -7970.3141   -7444.1771   -701.60864     102002.7      46.7237      46.7237      46.7237 
  253000    92.245358   -7969.9338   -7435.1251   -760.36573     102002.7      46.7237      46.7237      46.7237 
  254000     90.10387   -7976.8882   -7454.4951   -808.01337     102002.7      46.7237      46.7237      46.7237 
  255000    88.275609   -7984.3072   -7472.5138   -886.53167     102002.7      46.7237      46.7237      46.7237 
  256000    92.934935   -7992.1891   -7453.3825   -1163.4799     102002.7      46.7237      46.7237      46.7237 
  257000    89.666262   -7960.2852   -7440.4293   -1015.0889     102002.7      46.7237      46.7237      46.7237 
  258000      91.5729   -7992.0642   -7461.1542   -882.09882     102002.7      46.7237      46.7237      46.7237 
  259000    89.637318   -7984.9678   -7465.2797   -572.42904     102002.7      46.7237      46.7237      46.7237 
  260000    89.861965   -7973.1921   -7452.2015   -740.29281     102002.7      46.7237      46.7237      46.7237 
  261000    90.421055   -8006.9384   -7482.7065   -749.71867     102002.7      46.7237      46.7237      46.7237 
  262000    93.088009   -7979.3737   -7439.6796   -759.39805     102002.7      46.7237      46.7237      46.7237 
  263000    89.322799   -7990.7814   -7472.9168   -667.67293     102002.7      46.7237      46.7237      46.7237 
  264000    91.360998   -7987.7122   -7458.0307   -830.78422     102002.7      46.7237      46.7237      46.7237 
  265000    92.153598   -7972.6694   -7438.3928   -995.62188     102002.7      46.7237      46.7237      46.7237 
  266000    90.399356    -7977.773   -7453.6669   -812.99215     102002.7      46.7237      46.7237      46.7237 
  267000    89.681426   -7970.7553   -7450.8115   -944.75489     102002.7      46.7237      46.7237      46.7237 
  268000       91.333    -7988.627   -7459.1079   -409.52507     102002.7      46.7237      46.7237      46.7237 
  269000    88.008712   -7988.6979    -7478.452   -691.03956     102002.7      46.7237      46.7237      46.7237 
  270000    88.850504   -7972.3505   -7457.2241   -873.15908     102002.7      46.7237      46.7237      46.7237 
  271000    89.110501   -7970.7335   -7454.0997    -667.5555     102002.7      46.7237      46.7237      46.7237 
  272000    91.195497   -7959.4325   -7430.7106   -999.10498     102002.7      46.7237      46.7237      46.7237 
  273000    90.527973   -7982.0867   -7457.2349   -718.61213     102002.7      46.7237      46.7237      46.7237 
  274000    89.574556   -7992.4355   -7473.1113    -727.2454     102002.7      46.7237      46.7237      46.7237 
  275000    90.343817   -7981.4403   -7457.6561   -643.73667     102002.7      46.7237      46.7237      46.7237 
  276000    91.252725   -7967.3304   -7438.2767   -647.45506     102002.7      46.7237      46.7237      46.7237 
  277000    90.636552    -7987.971   -7462.4897   -868.34721     102002.7      46.7237      46.7237      46.7237 
  278000    93.352332    -7989.922   -7448.6955   -495.21589     102002.7      46.7237      46.7237      46.7237 
  279000    92.506613   -7962.4272   -7426.1039   -1088.6241     102002.7      46.7237      46.7237      46.7237 
  280000    89.502347   -7987.5773   -7468.6717   -862.74534     102002.7      46.7237      46.7237      46.7237 
  281000    89.294778   -7990.5636   -7472.8614   -462.45224     102002.7      46.7237      46.7237      46.7237 
  282000    90.420576   -7987.2778   -7463.0486   -940.39789     102002.7      46.7237      46.7237      46.7237 
  283000    91.503611   -7984.6058   -7454.0975   -671.29501     102002.7      46.7237      46.7237      46.7237 
  284000    92.258821   -7977.3601   -7442.4734    -781.3072     102002.7      46.7237      46.7237      46.7237 
  285000    94.986015   -7981.7127   -7431.0146   -785.47637     102002.7      46.7237      46.7237      46.7237 
  286000    92.072469   -7972.3383    -7438.532    -807.6445     102002.7      46.7237      46.7237      46.7237 
  287000    89.575358    -7991.985   -7472.6561   -806.35744     102002.7      46.7237      46.7237      46.7237 
  288000    91.450893   -7996.7615   -7466.5589   -549.52477     102002.7      46.7237      46.7237      46.7237 
  289000    94.328608   -7978.6103   -7431.7237   -623.40275     102002.7      46.7237      46.7237      46.7237 
  290000     91.42462    -7985.491   -7455.4408   -771.80616     102002.7      46.7237      46.7237      46.7237 
  291000    92.809202    -7964.932   -7426.8544   -565.86998     102002.7      46.7237      46.7237      46.7237 
  292000    89.848532   -7974.2831   -7453.3704   -885.54515     102002.7      46.7237      46.7237      46.7237 
  293000    91.162483   -7990.5453   -7462.0148   -739.94493     102002.7      46.7237      46.7237      46.7237 
  294000    87.099476   -7988.6934   -7483.7189   -660.88686     102002.7      46.7237      46.7237      46.7237 
  295000    90.140612   -7995.3644   -7472.7583   -722.12284     102002.7      46.7237      46.7237      46.7237 
  296000    89.428937    -8007.088   -7488.6081   -721.46247     102002.7      46.7237      46.7237      46.7237 
  297000    92.189923   -7995.0641   -7460.5768   -611.18022     102002.7      46.7237      46.7237      46.7237 
  298000    90.847193   -7995.6408   -7468.9383   -854.78377     102002.7      46.7237      46.7237      46.7237 
  299000    89.210419   -7995.9641   -7478.7511   -667.22336     102002.7      46.7237      46.7237      46.7237 
  300000    88.384637   -7974.5855     -7462.16   -847.42353     102002.7      46.7237      46.7237      46.7237 
  301000    92.322325   -7979.3588   -7444.1039   -755.26734     102002.7      46.7237      46.7237      46.7237 
  302000     92.37892   -7988.5584   -7452.9754   -728.40029     102002.7      46.7237      46.7237      46.7237 
  303000    89.007052   -7999.4944   -7483.4604   -688.86128     102002.7      46.7237      46.7237      46.7237 
  304000    89.441724   -8011.9606   -7493.4065   -708.08924     102002.7      46.7237      46.7237      46.7237 
  305000    93.153756   -7983.0077   -7442.9325   -702.01771     102002.7      46.7237      46.7237      46.7237 
  306000    90.692044   -7998.0873   -7472.2843   -761.20169     102002.7      46.7237      46.7237      46.7237 
  307000    93.853636   -7978.7274   -7434.5945   -862.13101     102002.7      46.7237      46.7237      46.7237 
  308000    94.066609   -8000.3511   -7454.9835   -864.58362     102002.7      46.7237      46.7237      46.7237 
  309000     93.62934   -7996.2614   -7453.4289   -892.58053     102002.7      46.7237      46.7237      46.7237 
  310000    87.131501   -8024.2042   -7519.0441   -682.03361     102002.7      46.7237      46.7237      46.7237 
  311000    93.456814    -7985.832   -7443.9997    -782.1477     102002.7      46.7237      46.7237      46.7237 
  312000    90.754761   -7995.0295   -7468.8628   -900.08687     102002.7      46.7237      46.7237      46.7237 
  313000    92.299612   -7990.1007   -7454.9775   -573.51365     102002.7      46.7237      46.7237      46.7237 
  314000    90.387244    -7981.071   -7457.0351    -924.9068     102002.7      46.7237      46.7237      46.7237 
  315000    90.536033   -7984.3401   -7459.4416   -483.72274     102002.7      46.7237      46.7237      46.7237 
  316000    91.517209   -7989.8909   -7459.3038   -849.20032     102002.7      46.7237      46.7237      46.7237 
  317000     88.13863   -7987.8079   -7476.8088    -960.8849     102002.7      46.7237      46.7237      46.7237 
  318000     91.74775   -7980.1133   -7448.1896   -742.96457     102002.7      46.7237      46.7237      46.7237 
  319000    91.277862   -7972.7594   -7443.5599   -662.10276     102002.7      46.7237      46.7237      46.7237 
  320000    91.866931    -7988.571   -7455.9563   -812.37566     102002.7      46.7237      46.7237      46.7237 
  321000    91.929425   -7994.6389   -7461.6619   -953.80302     102002.7      46.7237      46.7237      46.7237 
  322000    90.229102   -7979.7636   -7456.6445   -951.62946     102002.7      46.7237      46.7237      46.7237 
  323000    93.179777   -7989.2708   -7449.0447   -762.28997     102002.7      46.7237      46.7237      46.7237 
  324000    88.274243   -8005.3859   -7493.6005   -759.74628     102002.7      46.7237      46.7237      46.7237 
  325000    91.926305   -7980.1694   -7447.2105   -746.42647     102002.7      46.7237      46.7237      46.7237 
  326000    90.330624   -7971.9784   -7448.2708    -777.7271     102002.7      46.7237      46.7237      46.7237 
  327000    89.090425   -7975.4862   -7458.9688   -715.48806     102002.7      46.7237      46.7237      46.7237 
  328000    92.912799   -7986.7535   -7448.0752   -888.57643     102002.7      46.7237      46.7237      46.7237 
  329000    94.394368   -7968.9481   -7421.6802   -766.14222     102002.7      46.7237      46.7237      46.7237 
  330000    91.256184   -7978.5095   -7449.4358   -509.39842     102002.7      46.7237      46.7237      46.7237 
  331000    90.482249    -7981.955   -7457.3683   -896.51155     102002.7      46.7237      46.7237      46.7237 
  332000    90.932118   -7998.0435   -7470.8486   -811.64246     102002.7      46.7237      46.7237      46.7237 
  333000     91.92077   -7986.2249   -7453.2981   -517.71894     102002.7      46.7237      46.7237      46.7237 
  334000    91.307115   -7993.6961   -7464.3271   -809.22218     102002.7      46.7237      46.7237      46.7237 
  335000    89.796181   -7992.7734   -7472.1643   -794.23994     102002.7      46.7237      46.7237      46.7237 
  336000    91.972173   -7978.9403   -7445.7155   -489.35502     102002.7      46.7237      46.7237      46.7237 
  337000    88.296375   -7977.7661   -7465.8523   -477.38129     102002.7      46.7237      46.7237      46.7237 
  338000    89.886019   -7969.4005   -7448.2705   -796.98506     102002.7      46.7237      46.7237      46.7237 
  339000    89.845817   -7982.3236   -7461.4267   -725.63442     102002.7      46.7237      46.7237      46.7237 
  340000    91.309343   -7986.5435   -7457.1615   -720.46535     102002.7      46.7237      46.7237      46.7237 
  341000    93.630971   -7980.3713   -7437.5293   -784.49335     102002.7      46.7237      46.7237      46.7237 
  342000    91.836493   -7984.4527   -7452.0145   -583.68105     102002.7      46.7237      46.7237      46.7237 
  343000    93.509345   -7994.3853   -7452.2484   -942.63055     102002.7      46.7237      46.7237      46.7237 
  344000    91.073758   -7994.6647   -7466.6486   -588.64878     102002.7      46.7237      46.7237      46.7237 
  345000    91.298949   -7963.0912   -7433.7695   -845.21607     102002.7      46.7237      46.7237      46.7237 
  346000    89.810461   -7988.1018   -7467.4099   -661.82043     102002.7      46.7237      46.7237      46.7237 
  347000    91.297867   -7986.2771   -7456.9617   -761.03188     102002.7      46.7237      46.7237      46.7237 
  348000    88.156095   -7983.6545   -7472.5541   -619.80942     102002.7      46.7237      46.7237      46.7237 
  349000    93.235629   -7977.5124   -7436.9625   -770.63921     102002.7      46.7237      46.7237      46.7237 
  350000    89.459282   -7994.6578   -7476.0019   -716.05714     102002.7      46.7237      46.7237      46.7237 
  351000    89.080632   -7982.7282   -7466.2676   -778.91672     102002.7      46.7237      46.7237      46.7237 
  352000    95.265036     -7984.51   -7432.1942   -780.92273     102002.7      46.7237      46.7237      46.7237 
  353000    90.820783   -7996.9765    -7470.427   -937.90945     102002.7      46.7237      46.7237      46.7237 
  354000    90.459188   -7998.5496   -7474.0966   -972.90502     102002.7      46.7237      46.7237      46.7237 
  355000    92.431839   -7991.1781   -7455.2882   -580.99695     102002.7      46.7237      46.7237      46.7237 
  356000    90.561732   -7988.9761   -7463.9285   -866.05615     102002.7      46.7237      46.7237      46.7237 
  357000    88.518542   -7979.6511   -7466.4493   -768.84711     102002.7      46.7237      46.7237      46.7237 
  358000    92.639275   -7977.4844    -7440.392   -836.03891     102002.7      46.7237      46.7237      46.7237 
  359000     93.03147   -7996.2894   -7456.9231   -749.14381     102002.7      46.7237      46.7237      46.7237 
  360000    87.261395   -7979.8747   -7473.9614   -644.66593     102002.7      46.7237      46.7237      46.7237 
  361000    90.942225   -7983.3326   -7456.0791   -854.49243     102002.7      46.7237      46.7237      46.7237 
  362000    90.447203   -7974.1046    -7449.721   -783.09357     102002.7      46.7237      46.7237      46.7237 
  363000    90.864733   -7997.4252    -7470.621   -534.56628     102002.7      46.7237      46.7237      46.7237 
  364000    87.949915   -7988.1345   -7478.2295   -886.89138     102002.7      46.7237      46.7237      46.7237 
  365000    90.086744   -7994.0146   -7471.7209   -563.25029     102002.7      46.7237      46.7237      46.7237 
  366000    93.131966   -7983.6669    -7443.718    -749.0186     102002.7      46.7237      46.7237      46.7237 
  367000    91.844098   -7986.5411   -7454.0588   -950.77084     102002.7      46.7237      46.7237      46.7237 
  368000    90.986018   -8000.7043   -7473.1969   -1107.2306     102002.7      46.7237      46.7237      46.7237 
  369000    92.163452    -7990.304   -7455.9702   -851.75431     102002.7      46.7237      46.7237      46.7237 
  370000    91.420358   -7993.3804   -7463.3548   -514.00049     102002.7      46.7237      46.7237      46.7237 
  371000    90.300445   -7995.3477    -7471.815   -608.89519     102002.7      46.7237      46.7237      46.7237 
  372000    92.352766   -7991.0278   -7455.5964   -647.09071     102002.7      46.7237      46.7237      46.7237 
  373000    88.298021   -7981.6019   -7469.6786   -302.61199     102002.7      46.7237      46.7237      46.7237 
  374000    90.034343   -7993.7673   -7471.7773   -757.43477     102002.7      46.7237      46.7237      46.7237 
  375000    91.286705    -7993.915   -7464.6643   -564.98542     102002.7      46.7237      46.7237      46.7237 
  376000    91.315498   -7987.7861   -7458.3685    -569.5343     102002.7      46.7237      46.7237      46.7237 
  377000    91.812141   -7969.8065   -7437.5095   -816.90933     102002.7      46.7237      46.7237      46.7237 
  378000    90.488023   -7997.6296   -7473.0094   -610.32289     102002.7      46.7237      46.7237      46.7237 
  379000    90.007494   -8004.2026   -7482.3683    -852.8701     102002.7      46.7237      46.7237      46.7237 
  380000    92.328404   -7989.5113   -7454.2211   -761.00539     102002.7      46.7237      46.7237      46.7237 
  381000    89.362575   -7990.3267   -7472.2315   -524.00694     102002.7      46.7237      46.7237      46.7237 
  382000    87.653697   -7999.5906    -7491.403   -838.66121     102002.7      46.7237      46.7237      46.7237 
  383000     91.32287   -7999.6107   -7470.1503   -791.73349     102002.7      46.7237      46.7237      46.7237 
  384000    91.763954   -7996.3955   -7464.3779   -680.48247     102002.7      46.7237      46.7237      46.7237 
  385000    88.047222   -7989.7671   -7479.2978    -721.6956     102002.7      46.7237      46.7237      46.7237 
  386000    92.275774   -7994.1028   -7459.1178   -796.20402     102002.7      46.7237      46.7237      46.7237 
  387000    89.257668   -7976.0336   -7458.5466   -660.58859     102002.7      46.7237      46.7237      46.7237 
  388000    91.510473   -7995.1632   -7464.6152   -712.50145     102002.7      46.7237      46.7237      46.7237 
  389000    92.236202   -8010.5628   -7475.8073   -596.42819     102002.7      46.7237      46.7237      46.7237 
  390000     90.03331   -7973.8712   -7451.8873   -527.90376     102002.7      46.7237      46.7237      46.7237 
  391000    92.641888   -8010.2226    -7473.115   -743.11071     102002.7      46.7237      46.7237      46.7237 
  392000     93.77047   -7972.0945   -7428.4438   -784.27359     102002.7      46.7237      46.7237      46.7237 
  393000    91.682727   -7981.5535   -7450.0068   -698.58031     102002.7      46.7237      46.7237      46.7237 
  394000    91.047187   -7987.0287   -7459.1667   -819.77299     102002.7      46.7237      46.7237      46.7237 
  395000    92.499777   -7993.2873   -7457.0036   -698.26654     102002.7      46.7237      46.7237      46.7237 
  396000    89.926799   -7989.7769   -7468.4105   -892.61743     102002.7      46.7237      46.7237      46.7237 
  397000    91.147138   -7989.1146    -7460.673    -997.2048     102002.7      46.7237      46.7237      46.7237 
  398000    91.474214   -7991.9945   -7461.6567   -921.38187     102002.7      46.7237      46.7237      46.7237 
  399000    90.310376   -7976.5427   -7452.9525   -976.37824     102002.7      46.7237      46.7237      46.7237 
  400000    89.106446   -7997.2981   -7480.6878    -652.9863     102002.7      46.7237      46.7237      46.7237 
  401000    91.395781   -7985.0785   -7455.1954   -969.99309     102002.7      46.7237      46.7237      46.7237 
  402000    85.934281   -7977.9195   -7479.7004   -1012.8201     102002.7      46.7237      46.7237      46.7237 
  403000    90.340697   -7999.8009   -7476.0348   -772.11074     102002.7      46.7237      46.7237      46.7237 
  404000    90.078641   -7975.1938   -7452.9471   -932.60368     102002.7      46.7237      46.7237      46.7237 
  405000     93.06313   -7993.5787   -7454.0289   -600.06912     102002.7      46.7237      46.7237      46.7237 
  406000    95.867429   -7980.6871   -7424.8789   -769.44711     102002.7      46.7237      46.7237      46.7237 
  407000    90.639882   -7987.6235   -7462.1229   -782.52162     102002.7      46.7237      46.7237      46.7237 
  408000     91.54728    -8005.694   -7474.9326   -835.64652     102002.7      46.7237      46.7237      46.7237 
  409000    89.647151   -7994.4136   -7474.6685   -749.18892     102002.7      46.7237      46.7237      46.7237 
  410000    92.113395   -7976.4673   -7442.4237   -832.56106     102002.7      46.7237      46.7237      46.7237 
  411000    92.251077   -8007.8165   -7472.9747   -673.73011     102002.7      46.7237      46.7237      46.7237 
  412000    86.106353   -7970.7001   -7471.4834   -784.53351     102002.7      46.7237      46.7237      46.7237 
  413000    91.714026   -7980.5144   -7448.7862    -503.1969     102002.7      46.7237      46.7237      46.7237 
  414000    90.324895   -7988.0302   -7464.3558    -762.4577     102002.7      46.7237      46.7237      46.7237 
  415000    94.946483   -7977.6376   -7427.1687   -465.71616     102002.7      46.7237      46.7237      46.7237 
  416000    93.472962    -7986.729   -7444.8031   -700.80665     102002.7      46.7237      46.7237      46.7237 
  417000    92.643276   -7980.8117    -7443.696   -637.90767     102002.7      46.7237      46.7237      46.7237 
  418000    90.257047   -7996.1143   -7472.8332   -721.38457     102002.7      46.7237      46.7237      46.7237 
  419000    91.919488   -7987.5875   -7454.6682   -652.59911     102002.7      46.7237      46.7237      46.7237 
  420000    89.439147   -7992.6193   -7474.0801   -798.02414     102002.7      46.7237      46.7237      46.7237 
  421000    91.673979    -7994.676     -7463.18   -596.82035     102002.7      46.7237      46.7237      46.7237 
  422000     92.52572   -7983.9173   -7447.4832   -561.06013     102002.7      46.7237      46.7237      46.7237 
  423000    92.638112   -7981.8558   -7444.7701   -696.38354     102002.7      46.7237      46.7237      46.7237 
  424000    87.977329   -7986.0642   -7476.0001   -1004.2142     102002.7      46.7237      46.7237      46.7237 
  425000     91.51179   -7989.2563   -7458.7007   -795.21656     102002.7      46.7237      46.7237      46.7237 
  426000    89.746661   -8016.4851   -7496.1631    -853.0356     102002.7      46.7237      46.7237      46.7237 
  427000    90.222347   -7996.7984   -7473.7185   -650.14464     102002.7      46.7237      46.7237      46.7237 
  428000    89.757949   -7990.2336   -7469.8461   -946.15178     102002.7      46.7237      46.7237      46.7237 
  429000    90.726616   -8020.4584   -7494.4549   -871.61347     102002.7      46.7237      46.7237      46.7237 
  430000    90.852725   -8005.0871   -7478.3525   -779.17121     102002.7      46.7237      46.7237      46.7237 
  431000    88.023907   -7976.8927   -7466.5586   -911.83777     102002.7      46.7237      46.7237      46.7237 
  432000    89.565714   -8006.6235   -7487.3505   -857.57706     102002.7      46.7237      46.7237      46.7237 
  433000    91.524064   -8001.5879   -7470.9611   -850.96208     102002.7      46.7237      46.7237      46.7237 
  434000    95.140341   -7992.8925   -7441.2997   -715.49856     102002.7      46.7237      46.7237      46.7237 
  435000     91.75396   -7993.0733   -7461.1136   -459.23593     102002.7      46.7237      46.7237      46.7237 
  436000    88.230918   -7979.7492    -7468.215   -901.57724     102002.7      46.7237      46.7237      46.7237 
  437000     90.43979   -8009.8427   -7485.5021    -755.5072     102002.7      46.7237      46.7237      46.7237 
  438000    89.125898   -7986.9934   -7470.2704   -920.40583     102002.7      46.7237      46.7237      46.7237 
  439000    90.684565   -7982.8604   -7457.1008   -688.47553     102002.7      46.7237      46.7237      46.7237 
  440000    88.246289   -7993.8495   -7482.2261   -709.60595     102002.7      46.7237      46.7237      46.7237 
  441000    91.561173   -7991.3593   -7460.5173   -883.65586     102002.7      46.7237      46.7237      46.7237 
  442000     94.80648   -8005.9699   -7456.3127   -1006.3733     102002.7      46.7237      46.7237      46.7237 
  443000    91.797896   -7969.8976   -7437.6832   -754.84921     102002.7      46.7237      46.7237      46.7237 
  444000    90.148056   -7982.4613   -7459.8121   -811.90554     102002.7      46.7237      46.7237      46.7237 
  445000    91.580916   -7991.4024    -7460.446   -877.21676     102002.7      46.7237      46.7237      46.7237 
  446000    88.269017   -7995.1896   -7483.4345   -887.33033     102002.7      46.7237      46.7237      46.7237 
  447000    90.156906   -7982.4395    -7459.739   -1061.6579     102002.7      46.7237      46.7237      46.7237 
  448000    91.354303   -7964.2957   -7434.6531   -828.34493     102002.7      46.7237      46.7237      46.7237 
  449000    88.067985   -7972.8473   -7462.2577   -660.70863     102002.7      46.7237      46.7237      46.7237 
  450000    93.607106   -7979.4928   -7436.7891   -548.56691     102002.7      46.7237      46.7237      46.7237 
  451000    92.044247   -7987.4415   -7453.7988   -447.32765     102002.7      46.7237      46.7237      46.7237 
  452000    90.183542   -7987.8543   -7464.9994   -832.01621     102002.7      46.7237      46.7237      46.7237 
  453000    94.419139   -7996.3413   -7448.9298   -772.53917     102002.7      46.7237      46.7237      46.7237 
  454000    92.572958   -7988.9941   -7452.2862   -790.64904     102002.7      46.7237      46.7237      46.7237 
  455000    91.499565   -8000.7642   -7470.2794   -897.78915     102002.7      46.7237      46.7237      46.7237 
  456000    92.922741   -8007.4264   -7468.6905   -619.94154     102002.7      46.7237      46.7237      46.7237 
  457000    88.578847    -7992.638   -7479.0866   -498.32924     102002.7      46.7237      46.7237      46.7237 
  458000    93.828966   -7995.3282   -7451.3383   -801.09536     102002.7      46.7237      46.7237      46.7237 
  459000    91.580733    -7993.202   -7462.2467   -716.55063     102002.7      46.7237      46.7237      46.7237 
  460000    89.605762    -7986.469   -7466.9639   -602.84595     102002.7      46.7237      46.7237      46.7237 
  461000     91.95804   -7982.0305   -7448.8876    -694.2217     102002.7      46.7237      46.7237      46.7237 
  462000     93.13593   -7988.1168   -7448.1449   -904.92847     102002.7      46.7237      46.7237      46.7237 
  463000    91.070909    -7977.695   -7449.6954   -606.48369     102002.7      46.7237      46.7237      46.7237 
  464000    93.757624   -8002.9871   -7459.4108   -778.34499     102002.7      46.7237      46.7237      46.7237 
  465000    92.500514   -8008.0597   -7471.7718   -911.10623     102002.7      46.7237      46.7237      46.7237 
  466000    91.369891   -7984.7039   -7454.9709   -416.52783     102002.7      46.7237      46.7237      46.7237 
  467000    92.718746   -7986.8297   -7449.2765   -804.83024     102002.7      46.7237      46.7237      46.7237 
  468000    90.753336   -7987.8171   -7461.6587   -884.43824     102002.7      46.7237      46.7237      46.7237 
  469000    89.696699   -7990.1475   -7470.1152   -1085.0432     102002.7      46.7237      46.7237      46.7237 
  470000    89.595448   -7986.9887   -7467.5433   -572.42439     102002.7      46.7237      46.7237      46.7237 
  471000    91.779319   -7962.9921   -7430.8854   -695.57098     102002.7      46.7237      46.7237      46.7237 
  472000    92.190204   -7980.7582   -7446.2693   -728.57568     102002.7      46.7237      46.7237      46.7237 
  473000     89.75106   -7979.5137   -7459.1662   -971.64804     102002.7      46.7237      46.7237      46.7237 
  474000     90.53045   -7973.4159   -7448.5497   -938.69739     102002.7      46.7237      46.7237      46.7237 
  475000    91.471823   -7991.3348   -7461.0108   -1091.7724     102002.7      46.7237      46.7237      46.7237 
  476000    93.605274   -7990.2017   -7447.5087   -907.15672     102002.7      46.7237      46.7237      46.7237 
  477000    88.331215   -7989.7099   -7477.5942   -1023.1709     102002.7      46.7237      46.7237      46.7237 
  478000    88.909602   -7982.1498   -7466.6807   -795.28246     102002.7      46.7237      46.7237      46.7237 
  479000    89.405305    -7988.102   -7469.7591   -834.91095     102002.7      46.7237      46.7237      46.7237 
  480000    89.835871   -7988.5889   -7467.7497   -759.10988     102002.7      46.7237      46.7237      46.7237 
  481000    93.199484   -7975.1666   -7434.8263   -854.04138     102002.7      46.7237      46.7237      46.7237 
  482000    91.089462   -8000.0637   -7471.9565   -792.44978     102002.7      46.7237      46.7237      46.7237 
  483000    90.863087   -7998.5629   -7471.7682   -915.79852     102002.7      46.7237      46.7237      46.7237 
  484000    90.641996   -7986.4991   -7460.9862   -906.60335     102002.7      46.7237      46.7237      46.7237 
  485000    91.518545   -7993.0371   -7462.4423   -646.50144     102002.7      46.7237      46.7237      46.7237 
  486000     91.35568   -8014.8655   -7485.2149   -901.80295     102002.7      46.7237      46.7237      46.7237 
  487000    93.177438   -7997.9394   -7457.7269    -765.0779     102002.7      46.7237      46.7237      46.7237 
  488000    93.230325   -7963.7533   -7423.2342   -812.07734     102002.7      46.7237      46.7237      46.7237 
  489000    92.777371    -7995.779   -7457.8859    -551.9717     102002.7      46.7237      46.7237      46.7237 
  490000    91.147339   -7975.6439   -7447.2012    -699.5791     102002.7      46.7237      46.7237      46.7237 
  491000    91.010143   -7998.9143    -7471.267   -805.03603     102002.7      46.7237      46.7237      46.7237 
  492000    88.490031   -7991.0993   -7478.0628   -724.93399     102002.7      46.7237      46.7237      46.7237 
  493000    91.512059   -7990.2206   -7459.6634   -868.26271     102002.7      46.7237      46.7237      46.7237 
  494000    91.354935   -7988.8665   -7459.2202    -793.0841     102002.7      46.7237      46.7237      46.7237 
  495000    90.883373   -7990.6457   -7463.7334   -562.38561     102002.7      46.7237      46.7237      46.7237 
  496000     91.62079   -7992.5639   -7461.3763   -770.57694     102002.7      46.7237      46.7237      46.7237 
  497000    91.040873    -7960.701   -7432.8755   -671.22214     102002.7      46.7237      46.7237      46.7237 
  498000    89.446736   -7978.9127   -7460.3295   -521.19039     102002.7      46.7237      46.7237      46.7237 
  499000    90.406363   -7993.5783   -7469.4315   -769.73815     102002.7      46.7237      46.7237      46.7237 
  500000    91.697178   -7994.7708   -7463.1404   -569.74467     102002.7      46.7237      46.7237      46.7237 
  500501    89.224177   -7977.8369    -7460.544   -689.12068     102002.7      46.7237      46.7237      46.7237 
Loop time of 1325.02 on 16 procs for 500000 steps with 1946 atoms

Performance: 32.603 ns/day, 0.736 hours/ns, 377.353 timesteps/s
99.8% CPU use with 16 MPI tasks x no OpenMP threads

MPI task timing breakdown:
Section |  min time  |  avg time  |  max time  |%varavg| %total
---------------------------------------------------------------
Pair    | 555.03     | 744.91     | 923.98     | 430.2 | 56.22
Bond    | 155.68     | 174.35     | 187.91     |  59.3 | 13.16
Neigh   | 5.5218     | 5.5683     | 5.6542     |   2.1 |  0.42
Comm    | 208.94     | 386.83     | 567.92     | 574.2 | 29.19
Output  | 0.020546   | 0.020881   | 0.023908   |   0.5 |  0.00
Modify  | 7.5886     | 7.9032     | 8.2639     |   7.8 |  0.60
Other   |            | 5.446      |            |       |  0.41

Nlocal:    121.625 ave 137 max 100 min
Histogram: 1 2 2 0 0 2 2 2 2 3
Nghost:    2433 ave 2457 max 2417 min
Histogram: 2 4 2 1 1 1 1 2 1 1
Neighs:    11450.3 ave 14958 max 7352 min
Histogram: 1 0 1 1 4 2 5 0 0 2

Total # of neighbors = 183205
Ave neighs/atom = 94.1444
Ave special neighs/atom = 5.91984
Neighbor list builds = 3806
Dangerous builds = 0
Neighbor list info ...
  update every 1 steps, delay 10 steps, check yes
  max neighbors/atom: 2000, page size: 100000
  master list distance cutoff = 16
  ghost atom cutoff = 16
  binsize = 8, bins = 6 6 6
  3 neighbor lists, perpetual/occasional/extra = 3 0 0
  (1) pair buck6d/coul/gauss/dsf, perpetual, skip from (3)
      attributes: half, newton on
      pair build: skip
      stencil: none
      bin: none
  (2) pair lj/cut, perpetual, skip from (3)
      attributes: half, newton on
      pair build: skip
      stencil: none
      bin: none
  (3) neighbor class addition, perpetual
      attributes: half, newton on
      pair build: half/bin/newton
      stencil: half/bin/3d/newton
      bin: standard
Setting up Verlet run ...
  Unit style    : real
  Current step  : 500501
  Time step     : 1
WARNING: Inconsistent image flags (../domain.cpp:786)
Per MPI rank memory allocation (min/avg/max) = 22.87 | 23.22 | 23.35 Mbytes
Step Time TotEng KinEng PotEng E_mol E_pair Temp Pxx Pyy Pzz Pxy Pxz Pyz Cella Cellb Cellc CellAlpha CellBeta CellGamma Volume Press 
  500501       500000    -7460.544    517.29283   -7977.8369    4191.9819   -12169.819    89.224177   -466.55328   -898.78078   -702.02798    113.95085    -159.5327   -175.77384      46.7237      46.7237      46.7237           90           90           90     102002.7   -689.12068 
  501000       500499   -7466.1804    535.37848   -8001.5589    4181.4088   -12182.968    92.343644   -947.71917   -588.54639    -1106.991   -248.78853    125.72291    -254.1366      46.7237      46.7237      46.7237           90           90           90     102002.7    -881.0855 
  502000       501499   -7445.9825    533.56586   -7979.5483    4189.3762   -12168.925    92.030997   -687.62792    -833.2354    -859.3856    70.701369   -43.811241   -49.637583      46.7237      46.7237      46.7237           90           90           90     102002.7   -793.41631 
  503000       502499    -7497.012    510.85624   -8007.8682    4162.7756   -12170.644    88.113975   -761.88611    -425.5298   -613.78727    223.42736   -200.41538   -72.163509      46.7237      46.7237      46.7237           90           90           90     102002.7   -600.40106 
  504000       503499    -7461.499    524.30327   -7985.8022     4183.271   -12169.073    90.433358   -503.71894   -854.70433   -898.80091    47.967461   -47.237028   -275.96236      46.7237      46.7237      46.7237           90           90           90     102002.7   -752.40806 
  505000       504499   -7465.7326    535.28858   -8001.0212    4184.5696   -12185.591    92.328137   -974.19565   -733.44693   -758.50277    -101.9909    15.645446    4.3070674      46.7237      46.7237      46.7237           90           90           90     102002.7   -822.04845 
  506000       505499   -7447.1491    538.07959   -7985.2287    4210.3081   -12195.537    92.809537    -945.8094   -508.35632   -895.62279    91.706759   -81.773847   -69.746859      46.7237      46.7237      46.7237           90           90           90     102002.7   -783.26284 
  507000       506499   -7466.1418     530.7269   -7996.8687    4179.3181   -12176.187    91.541325   -962.38045   -572.37337   -964.83537    54.188357    107.92946   -231.67744      46.7237      46.7237      46.7237           90           90           90     102002.7    -833.1964 
  508000       507499   -7465.9991    519.25101   -7985.2501    4194.8244   -12180.075    89.561929   -1080.0316   -705.80781   -419.17392    93.561012     16.38034    84.528561      46.7237      46.7237      46.7237           90           90           90     102002.7   -735.00445 
  509000       508499   -7477.0632    509.77375   -7986.8369    4199.0412   -12185.878    87.927265   -631.11927    -494.3387   -552.82589    76.407603   -11.703182    -49.14561      46.7237      46.7237      46.7237           90           90           90     102002.7   -559.42795 
  510000       509499   -7452.6208    540.13945   -7992.7602    4187.5765   -12180.337    93.164828   -767.77459   -1282.1971   -854.34537   -187.30223   -78.952646   -41.202291      46.7237      46.7237      46.7237           90           90           90     102002.7    -968.1057 
  511000       510499   -7465.9677    513.54472   -7979.5125    4207.7793   -12187.292    88.577692   -709.73845   -498.53609   -837.21934    42.441319    62.417814    308.37202      46.7237      46.7237      46.7237           90           90           90     102002.7    -681.8313 
  512000       511499    -7476.207      524.324    -8000.531    4161.5509   -12162.082    90.436934   -250.80333   -730.78531   -345.94428    178.61212   -62.212431   -213.55386      46.7237      46.7237      46.7237           90           90           90     102002.7   -442.51097 
  513000       512499   -7454.3914    520.64417   -7975.0355    4196.5663   -12171.602    89.802225   -1239.0147   -702.19371   -1012.6337    51.040443    -245.9548    143.34219      46.7237      46.7237      46.7237           90           90           90     102002.7   -984.61404 
  514000       513499   -7477.7857    527.04991   -8004.8356    4195.0009   -12199.836    90.907107   -710.47572   -932.60299   -643.01484    71.374696   -2.5813664   -55.768941      46.7237      46.7237      46.7237           90           90           90     102002.7   -762.03118 
  515000       514499   -7431.2663    536.13741   -7967.4037    4208.1736   -12175.577    92.474545   -937.83807   -446.28734   -766.42704    146.98651     237.6077    75.676502      46.7237      46.7237      46.7237           90           90           90     102002.7   -716.85082 
  516000       515499   -7451.2661    538.03244   -7989.2986    4185.2951   -12174.594    92.801406   -878.79014    -693.1793   -867.54048    205.66361     155.7476    136.47032      46.7237      46.7237      46.7237           90           90           90     102002.7   -813.16997 
  517000       516499   -7455.3847    529.54203   -7984.9268    4188.1019   -12173.029    91.336956   -1104.3053   -312.19564   -274.57224    97.180253    103.41672    32.450544      46.7237      46.7237      46.7237           90           90           90     102002.7   -563.69107 
  518000       517499   -7464.8302    520.06623   -7984.8964     4196.809   -12181.705     89.70254   -562.43581   -410.64512   -818.71292   -92.112725    52.615228   -83.324715      46.7237      46.7237      46.7237           90           90           90     102002.7   -597.26462 
  519000       518499   -7462.0542    533.45279    -7995.507    4175.5673   -12171.074    92.011494   -219.73671   -1076.9369   -571.31347    409.51716   -50.232047    56.108439      46.7237      46.7237      46.7237           90           90           90     102002.7   -622.66236 
  520000       519499   -7451.8411    542.91028   -7994.7514    4175.2131   -12169.965    93.642749   -772.94346   -830.23814   -393.22102    113.41038   -47.311882   -165.99953      46.7237      46.7237      46.7237           90           90           90     102002.7   -665.46754 
  521000       520499   -7487.9593    515.29584   -8003.2552    4177.9256   -12181.181     88.87973   -490.14638    -794.0217   -880.60941   -84.498479     111.3862    164.61888      46.7237      46.7237      46.7237           90           90           90     102002.7   -721.59249 
  522000       521499    -7453.926    529.20192   -7983.1279    4199.2422    -12182.37    91.278291   -733.64929   -1013.4291   -586.88876    135.04659   -53.185628     77.83869      46.7237      46.7237      46.7237           90           90           90     102002.7   -777.98906 
  523000       522499   -7450.8471    519.32014   -7970.1673    4183.2304   -12153.398    89.573854   -572.90361    -676.2579    -822.3917   -34.745649   -20.819726   -121.10305      46.7237      46.7237      46.7237           90           90           90     102002.7   -690.51774 
  524000       523499   -7460.4546    517.78732   -7978.2419    4213.1796   -12191.421    89.309468    -451.4117   -698.93495   -508.23905    -283.7167    43.783674    154.06541      46.7237      46.7237      46.7237           90           90           90     102002.7    -552.8619 
  525000       524499   -7443.2079    533.16766   -7976.3755     4186.725   -12163.101    91.962315   -377.40876   -403.23955   -550.60813   -177.01194     82.37365    162.16123      46.7237      46.7237      46.7237           90           90           90     102002.7   -443.75214 
  526000       525499   -7451.9014     538.9256    -7990.827    4161.6624   -12152.489     92.95546   -516.11404   -571.85847   -557.60557    50.543915    123.26247    37.189169      46.7237      46.7237      46.7237           90           90           90     102002.7   -548.52603 
  527000       526499   -7460.5062    538.62788   -7999.1341    4174.5869   -12173.721    92.904108   -357.33752   -795.26608    -11.92723    146.14977   -173.36023     -115.595      46.7237      46.7237      46.7237           90           90           90     102002.7   -388.17694 
  528000       527499   -7446.3825    537.53602   -7983.9185    4193.7899   -12177.708    92.715781   -524.05182   -671.16331   -340.27481   -103.52617   -212.80794   -203.91927      46.7237      46.7237      46.7237           90           90           90     102002.7   -511.82998 
  529000       528499   -7445.0955    537.78958   -7982.8851    4176.2503   -12159.135    92.759517   -261.94523   -353.39332    -865.8412    -139.8875     39.82344    206.07535      46.7237      46.7237      46.7237           90           90           90     102002.7   -493.72659 
  530000       529499   -7459.9522    524.62104   -7984.5732     4178.919   -12163.492    90.488168   -396.84129    -725.1235   -462.52134   -89.510879    54.091338    137.60637      46.7237      46.7237      46.7237           90           90           90     102002.7   -528.16204 
  531000       530499   -7429.8209    546.90949   -7976.7304    4201.6825   -12178.413    94.332545   -382.53703   -605.35468   -886.36876   -4.2384969    155.00023   -24.799607      46.7237      46.7237      46.7237           90           90           90     102002.7   -624.75349 
  532000       531499   -7458.2045     524.5148   -7982.7193    4199.5639   -12182.283    90.469843   -1161.6404   -522.74718   -1065.0881    63.815258     207.6904   -297.50693      46.7237      46.7237      46.7237           90           90           90     102002.7    -916.4919 
  533000       532499    -7465.831    527.22911   -7993.0602    4191.9199    -12184.98    90.938016   -776.22145   -408.37666   -534.95184    184.03326   -116.41515   -76.028721      46.7237      46.7237      46.7237           90           90           90     102002.7   -573.18332 
  534000       533499   -7450.1256    534.19884   -7984.3245    4174.2679   -12158.592    92.140175   -631.41811   -168.66505   -506.14673    11.079981    22.369439    283.11491      46.7237      46.7237      46.7237           90           90           90     102002.7   -435.40996 
  535000       534499   -7474.4386    507.17493   -7981.6136    4194.4985   -12176.112    87.479012   -714.16823   -714.04609   -369.64834   -49.194923    150.97568    25.720294      46.7237      46.7237      46.7237           90           90           90     102002.7   -599.28755 
  536000       535499   -7467.9717     528.1742   -7996.1459    4181.2591   -12177.405    91.101027   -809.26972   -733.13734   -715.42374    4.1820737    72.872411    110.58168      46.7237      46.7237      46.7237           90           90           90     102002.7   -752.61027 
  537000       536499    -7458.168    519.06431   -7977.2323    4197.2282   -12174.461    89.529726   -677.93608   -419.58684   -367.48493    123.46354    63.388746   -346.65445      46.7237      46.7237      46.7237           90           90           90     102002.7   -488.33595 
  538000       537499     -7435.28    532.02291   -7967.3029    4194.4694   -12161.772    91.764864   -520.74575   -980.45075   -1092.0341    -69.15071   -107.29546   -131.76487      46.7237      46.7237      46.7237           90           90           90     102002.7   -864.41019 
  539000       538499   -7445.7491    529.18199   -7974.9311    4213.4098   -12188.341    91.274855   -620.57959   -941.57161   -1048.6326   -148.12103    -161.2661    115.42158      46.7237      46.7237      46.7237           90           90           90     102002.7   -870.26129 
  540000       539499   -7468.6123    519.61863   -7988.2309    4189.3874   -12177.618    89.625338   -829.06067   -492.31646   -854.51764    118.58886   -75.128292   -363.81164      46.7237      46.7237      46.7237           90           90           90     102002.7   -725.29826 
  541000       540499   -7453.7819    529.40496   -7983.1869    4217.9505   -12201.137    91.313312   -946.67326   -1080.0961   -687.00053    -57.02241   -75.147796   -50.747412      46.7237      46.7237      46.7237           90           90           90     102002.7   -904.58997 
  542000       541499   -7498.6897    507.15451   -8005.8442    4174.1515   -12179.996     87.47549   -821.42646   -600.43758   -644.32987   -9.0265376   -104.72539    37.115732      46.7237      46.7237      46.7237           90           90           90     102002.7    -688.7313 
  543000       542499   -7465.8339    514.90316   -7980.7371    4184.4763   -12165.213       88.812   -741.69737   -725.04737   -688.88025   -26.709902    24.172779   -109.26886      46.7237      46.7237      46.7237           90           90           90     102002.7   -718.54167 
  544000       543499   -7452.9013    547.39507   -8000.2963    4194.6295   -12194.926    94.416299   -725.04502   -877.10035   -381.72177    85.850292    63.931078    139.02358      46.7237      46.7237      46.7237           90           90           90     102002.7   -661.28905 
  545000       544499   -7469.1899    533.60469   -8002.7946    4177.0061   -12179.801    92.037695   -885.54786   -666.82004   -1006.1354    148.69633    34.171266   -140.55673      46.7237      46.7237      46.7237           90           90           90     102002.7   -852.83443 
  546000       545499   -7426.4265    541.96826   -7968.3948    4218.5855    -12186.98    93.480267   -763.40646   -1095.0955   -1131.2011    33.073925     -78.6255     237.2066      46.7237      46.7237      46.7237           90           90           90     102002.7   -996.56767 
  547000       546499   -7450.9744    530.08236   -7981.0567    4194.8537    -12175.91    91.430153   -1054.1194   -687.43386   -639.58214   -305.63825   -149.72144    24.020796      46.7237      46.7237      46.7237           90           90           90     102002.7   -793.71179 
  548000       547499   -7470.3738    526.16447   -7996.5383    4169.3026   -12165.841    90.754384   -737.01549   -530.06446   -896.77945   -191.63562   -162.49472    140.73083      46.7237      46.7237      46.7237           90           90           90     102002.7   -721.28647 
  549000       548499   -7467.9439    516.16636   -7984.1103    4175.3426   -12159.453    89.029881   -796.06025   -735.36515   -572.26221    78.746368   -160.01446   -74.197298      46.7237      46.7237      46.7237           90           90           90     102002.7    -701.2292 
  550000       549499    -7476.581     504.5706   -7981.1516    4191.0602   -12172.212    87.029811   -694.72923   -336.78914   -769.35094   -55.703701   -173.58808    55.644591      46.7237      46.7237      46.7237           90           90           90     102002.7   -600.28977 
  551000       550499   -7458.3033    530.48638   -7988.7897    4174.6849   -12163.475     91.49984   -739.13884   -319.46853      -909.86    12.686186    87.655934    215.44608      46.7237      46.7237      46.7237           90           90           90     102002.7   -656.15579 
  552000       551499   -7443.5044    530.80546   -7974.3099     4186.571   -12160.881    91.554875   -284.96275    -538.9646   -465.02343   -85.838655     108.6559    3.3894686      46.7237      46.7237      46.7237           90           90           90     102002.7   -429.65026 
  553000       552499   -7467.6415    522.03872   -7989.6803    4194.9905   -12184.671    90.042763   -751.12397   -495.71753   -410.99021   -2.2105013   -91.385039     154.3797      46.7237      46.7237      46.7237           90           90           90     102002.7   -552.61057 
  554000       553499   -7433.0048    537.33048   -7970.3353    4199.8813   -12170.217     92.68033    -835.5178   -735.81163   -498.32395   -297.36687   -27.693433   -127.39825      46.7237      46.7237      46.7237           90           90           90     102002.7   -689.88446 
  555000       554499   -7463.1502    518.80971   -7981.9599    4216.4819   -12198.442    89.485814   -742.14393       -879.9   -788.52145    18.321946     -20.8265    104.77766      46.7237      46.7237      46.7237           90           90           90     102002.7   -803.52179 
[...]
  936000       935499   -7436.8688     545.0997   -7981.9685    4185.4203   -12167.389    94.020387    -678.3392   -557.03142   -419.16792    75.199689    54.061771    8.4405965      46.7237      46.7237      46.7237           90           90           90     102002.7   -551.51285 
  937000       936499   -7436.2214    540.15048   -7976.3719    4204.3508   -12180.723    93.166732   -894.92436   -723.11909   -992.00262    106.75027   -52.800402   -207.39531      46.7237      46.7237      46.7237           90           90           90     102002.7   -870.01536 
  938000       937499   -7456.8847    530.29167   -7987.1764    4179.7431    -12166.92    91.466255   -589.86524   -728.76255    -649.3624    -52.11969   -127.19993    206.62154      46.7237      46.7237      46.7237           90           90           90     102002.7   -655.99673 
  939000       938499   -7450.1867    534.03144   -7984.2182    4214.2343   -12198.452    92.111301   -616.84303   -868.27536   -651.44203   -21.495401    90.387018    231.52495      46.7237      46.7237      46.7237           90           90           90     102002.7   -712.18681 
  940000       939499    -7448.054    516.79246   -7964.8465    4213.5314   -12178.378    89.137873   -995.79295   -810.66529   -839.40427    53.108809   -39.713777    8.3520933      46.7237      46.7237      46.7237           90           90           90     102002.7   -881.95417 
  941000       940499   -7443.5889    544.79223   -7988.3812    4193.9637   -12182.345    93.967354    -1041.427   -389.27175   -528.53253   -82.011259    109.80799   -119.64769      46.7237      46.7237      46.7237           90           90           90     102002.7    -653.0771 
  942000       941499   -7464.5029    528.33326   -7992.8361    4188.3432   -12181.179    91.128463    -869.0446    -942.1869   -979.32786    36.448723   -245.97548   -58.862946      46.7237      46.7237      46.7237           90           90           90     102002.7   -930.18645 
  943000       942499   -7440.3736    539.19922   -7979.5728    4178.0736   -12157.646    93.002655   -810.34489   -331.37304   -617.83728   -131.54236    147.24286    10.434774      46.7237      46.7237      46.7237           90           90           90     102002.7    -586.5184 
  944000       943499   -7467.1864    527.13773   -7994.3241    4198.2839   -12192.608    90.922254   -1001.0042   -620.75965   -775.32958   -15.359115   -133.74161   -160.40829      46.7237      46.7237      46.7237           90           90           90     102002.7   -799.03116 
  945000       944499   -7451.4962    529.03105   -7980.5273    4191.4621   -12171.989     91.24882   -850.10524   -625.20792   -817.74134   -39.802112   -78.922131   -53.284424      46.7237      46.7237      46.7237           90           90           90     102002.7    -764.3515 
  946000       945499   -7480.0657    523.00788   -8003.0736    4181.3256   -12184.399    90.209926   -655.24251   -746.61876    -547.8424    28.721128   -57.973407    30.618728      46.7237      46.7237      46.7237           90           90           90     102002.7   -649.90122 
  947000       946499   -7445.2748    522.02068   -7967.2955    4212.5345    -12179.83     90.03965   -1116.6133   -1016.5344   -1488.0971    235.13106      98.6333   -79.326537      46.7237      46.7237      46.7237           90           90           90     102002.7   -1207.0816 
  948000       947499   -7482.1661    517.20346   -7999.3696    4172.0856   -12171.455    89.208763   -818.08069   -382.44061    -496.1805    -30.81155    180.08035    103.14931      46.7237      46.7237      46.7237           90           90           90     102002.7   -565.56726 
  949000       948499   -7460.2792    532.42382   -7992.7031    4201.9038   -12194.607    91.834015   -841.96961   -373.94716   -1379.6925   -45.817557   -12.563681    62.534102      46.7237      46.7237      46.7237           90           90           90     102002.7   -865.20311 
  950000       949499   -7442.3641    537.89688   -7980.2609    4213.9293    -12194.19    92.778024   -997.51651   -583.58667   -1084.9656   -223.52787    140.25905   -159.57027      46.7237      46.7237      46.7237           90           90           90     102002.7   -888.68958 
  951000       950499   -7471.3291    524.72168   -7996.0508    4175.2453   -12171.296    90.505526   -972.36468   -542.73737   -736.46774    29.526786    94.137527   -54.350887      46.7237      46.7237      46.7237           90           90           90     102002.7   -750.52326 
  952000       951499   -7445.8662    528.56854   -7974.4347    4209.4444   -12183.879    91.169044   -964.62664   -649.11202   -1049.4473    128.95278    152.66305   -171.30766      46.7237      46.7237      46.7237           90           90           90     102002.7   -887.72864 
  953000       952499   -7435.2474    534.81821   -7970.0656    4201.4794   -12171.545    92.247005   -930.55479   -627.11783   -988.14151   -223.52074    24.474764    92.943683      46.7237      46.7237      46.7237           90           90           90     102002.7   -848.60471 
  954000       953499   -7464.2263    518.01308   -7982.2394    4197.1262   -12179.366    89.348408   -1054.0874   -816.70972   -1173.1163   -97.567371    10.538069   -73.458628      46.7237      46.7237      46.7237           90           90           90     102002.7   -1014.6378 
  955000       954499   -7466.5988    534.16002   -8000.7588     4163.988   -12164.747     92.13348   -1069.3361   -843.11731    -881.2893   -24.508925   -143.62011     182.4802      46.7237      46.7237      46.7237           90           90           90     102002.7   -931.24756 
  956000       955499   -7421.1707    546.14464   -7967.3153    4197.7243    -12165.04    94.200621   -367.29112   -642.08713   -741.50736   -25.271827    2.1464532    72.021163      46.7237      46.7237      46.7237           90           90           90     102002.7   -583.62854 
  957000       956499   -7459.6007    527.76001   -7987.3607    4185.2644   -12172.625    91.029587   -1004.0185   -1125.6143   -773.41497    103.59274   -49.906511    21.529803      46.7237      46.7237      46.7237           90           90           90     102002.7   -967.68262 
  958000       957499   -7459.9463    534.69529   -7994.6416    4174.5113   -12169.153    92.225805   -774.38697   -1207.6953   -885.14271   -218.00386    -45.06135   -28.805424      46.7237      46.7237      46.7237           90           90           90     102002.7   -955.74167 
  959000       958499   -7421.8859    551.42568   -7973.3115    4183.6002   -12156.912    95.111511   -726.84078   -130.45745   -486.09402    11.911551    -198.4103    69.667651      46.7237      46.7237      46.7237           90           90           90     102002.7   -447.79741 
  960000       959499   -7455.5891    530.21257   -7985.8017    4191.9811   -12177.783    91.452611   -1054.1362   -723.04909    -911.3876    7.4758914    259.08097   -31.923201      46.7237      46.7237      46.7237           90           90           90     102002.7   -896.19097 
  961000       960499   -7462.7038    522.98917   -7985.6929    4182.7023   -12168.395    90.206698   -437.63235   -599.63159   -755.78805   -54.616014   -167.56017    -87.51356      46.7237      46.7237      46.7237           90           90           90     102002.7   -597.68399 
  962000       961499    -7440.896    533.68895    -7974.585    4189.5873   -12164.172    92.052228   -627.56733   -548.41228   -527.15017   -29.241789    65.521289   -91.273316      46.7237      46.7237      46.7237           90           90           90     102002.7   -567.70993 
  963000       962499   -7465.4002    517.83246   -7983.2326    4190.9086   -12174.141    89.317253   -932.43835   -1123.5682   -379.32002    87.440504    17.985213    110.33727      46.7237      46.7237      46.7237           90           90           90     102002.7   -811.77551 
  964000       963499   -7448.8536    528.67614   -7977.5297    4188.5451   -12166.075    91.187604   -608.74813   -935.53152   -847.22384    315.97455   -102.61532    18.812564      46.7237      46.7237      46.7237           90           90           90     102002.7   -797.16783 
  965000       964499   -7469.0729     516.8355   -7985.9084    4183.8286   -12169.737    89.145296    -783.3582    -587.7368   -1227.1587   -131.92679   -333.90728    175.85369      46.7237      46.7237      46.7237           90           90           90     102002.7   -866.08456 
  966000       965499   -7424.8913    537.83169    -7962.723    4206.7492   -12169.472    92.766779   -705.52911   -555.84257   -777.56864   -13.175299    10.638972   -162.62969      46.7237      46.7237      46.7237           90           90           90     102002.7   -679.64677 
  967000       966499   -7461.8396    513.80222   -7975.6418    4193.1511   -12168.793    88.622107   -961.11126   -796.95041   -729.50814   -39.450895    105.99976    -57.98328      46.7237      46.7237      46.7237           90           90           90     102002.7   -829.18994 
  968000       967499   -7449.9929    526.90426   -7976.8972    4199.6689   -12176.566    90.881985   -826.47957   -673.77982    -783.2062   -25.881139   -165.26893   -151.98663      46.7237      46.7237      46.7237           90           90           90     102002.7    -761.1552 
  969000       968499   -7438.8424     536.8676     -7975.71    4195.7927   -12171.503     92.60049    -742.3698    -153.4959   -785.22528   -95.693931    56.904871    105.61522      46.7237      46.7237      46.7237           90           90           90     102002.7   -560.36366 
  970000       969499   -7473.1818    517.41614   -7990.5979    4164.9913   -12155.589    89.245445   -731.33525    -832.8605   -769.89067    17.127985    101.91212   -79.048878      46.7237      46.7237      46.7237           90           90           90     102002.7   -778.02881 
  971000       970499    -7460.161    513.05768   -7973.2186    4198.2294   -12171.448    88.493686   -964.67971   -899.39957   -778.48287    202.82968    110.24241    -8.630634      46.7237      46.7237      46.7237           90           90           90     102002.7   -880.85405 
  972000       971499   -7457.3568    514.83777   -7972.1946    4184.2115   -12156.406    88.800721   -1437.6568   -1141.6211   -773.51321   -171.92035   -3.5698309   -66.845001      46.7237      46.7237      46.7237           90           90           90     102002.7   -1117.5971 
  973000       972499   -7475.0648    515.91878   -7990.9836    4195.3406   -12186.324    88.987177    -1110.405   -797.91077   -1029.7992    178.30031   -49.283352    17.770452      46.7237      46.7237      46.7237           90           90           90     102002.7   -979.37166 
  974000       973499   -7437.4329    542.48512    -7979.918    4212.4718    -12192.39    93.569416   -845.73998   -818.65881   -1293.6217   -65.167336    38.161637    64.035742      46.7237      46.7237      46.7237           90           90           90     102002.7   -986.00682 
  975000       974499   -7466.2812    531.00113   -7997.2823    4170.7933   -12168.076    91.588625   -923.12667   -731.75549   -1106.0896   -50.562632   -98.122045    8.9199841      46.7237      46.7237      46.7237           90           90           90     102002.7   -920.32391 
  976000       975499   -7460.3898    520.91791   -7981.3077    4207.1571   -12188.465    89.849441   -463.44043   -184.96171   -925.28489   -120.05749    13.779681     81.36557      46.7237      46.7237      46.7237           90           90           90     102002.7   -524.56234 
  977000       976499    -7433.501    529.61067   -7963.1117    4215.1417   -12178.253    91.348794    -1027.551   -784.35465   -843.56873    79.337114   0.68065377    68.239948      46.7237      46.7237      46.7237           90           90           90     102002.7   -885.15812 
  978000       977499   -7448.6345    509.00981   -7957.6443    4222.3803   -12180.025    87.795497   -841.48166   -802.94007   -395.02375   -4.2733767   -7.6565326    99.111293      46.7237      46.7237      46.7237           90           90           90     102002.7   -679.81516 
  979000       978499   -7480.9747    521.55768   -8002.5324    4170.4992   -12173.032    89.959792   -568.24237   -783.29689   -689.96314    55.457318    31.079502     258.7295      46.7237      46.7237      46.7237           90           90           90     102002.7    -680.5008 
  980000       979499    -7451.041    524.34311   -7975.3841     4204.184   -12179.568     90.44023   -808.66038   -920.83037   -566.54967   -146.62342   -84.131445   -130.80775      46.7237      46.7237      46.7237           90           90           90     102002.7   -765.34681 
  981000       980499   -7445.0627    520.04238    -7965.105    4201.7308   -12166.836    89.698428   -888.22467    -732.0361   -565.14886    53.336394   -25.307947   -66.508216      46.7237      46.7237      46.7237           90           90           90     102002.7   -728.46988 
  982000       981499   -7454.4015    534.47902   -7988.8805    4183.5112   -12172.392    92.188502   -662.01969   -929.86854   -1017.6834    11.320394   -212.72112   -8.8072384      46.7237      46.7237      46.7237           90           90           90     102002.7    -869.8572 
  983000       982499   -7457.8683    522.80962   -7980.6779    4202.3722    -12183.05     90.17573   -553.73826   -610.85076   -665.06868    163.76259    -122.6624    72.899623      46.7237      46.7237      46.7237           90           90           90     102002.7    -609.8859 
  984000       983499   -7485.2692    519.99168   -8005.2608    4166.7342   -12171.995    89.689682   -771.31531    -624.6929   -731.62051   -49.359715   -99.953448   -102.75273      46.7237      46.7237      46.7237           90           90           90     102002.7   -709.20957 
  985000       984499    -7462.925    532.64427   -7995.5693    4191.2813   -12186.851    91.872038    -697.2067   -811.74427   -1057.7351   -13.120433   -73.785436    94.597376      46.7237      46.7237      46.7237           90           90           90     102002.7   -855.56203 
  986000       985499   -7459.1336    528.73963   -7987.8733    4203.5091   -12191.382    91.198555     -674.976   -1082.0782   -929.98278    145.23305     192.5535   -119.87494      46.7237      46.7237      46.7237           90           90           90     102002.7     -895.679 
  987000       986499   -7469.9873     520.6756    -7990.663    4195.3974    -12186.06    89.807648    -1220.819   -527.90486   -825.82406   -123.65091   -201.12759    89.444668      46.7237      46.7237      46.7237           90           90           90     102002.7   -858.18263 
  988000       987499   -7441.8936    539.62162   -7981.5152    4202.3397   -12183.855    93.075512   -417.92288   -939.48233   -1260.1526     100.4838   -47.453191   -120.36135      46.7237      46.7237      46.7237           90           90           90     102002.7   -872.51926 
  989000       988499   -7452.2458    528.60963   -7980.8554    4196.5993   -12177.455    91.176132   -903.79696   -1112.8944   -933.47739   -38.034363   -76.544588    -101.8536      46.7237      46.7237      46.7237           90           90           90     102002.7    -983.3896 
  990000       989499   -7478.0385    519.52207   -7997.5606    4169.5764   -12167.137    89.608683   -900.33482   -877.32916   -729.52297   -204.74541    21.908618    -3.437476      46.7237      46.7237      46.7237           90           90           90     102002.7   -835.72898 
  991000       990499   -7456.9808    532.45506   -7989.4358    4201.4919   -12190.928    91.839403   -571.92135   -772.36354   -783.49971    133.37237   -135.49254    46.646315      46.7237      46.7237      46.7237           90           90           90     102002.7   -709.26154 
  992000       991499   -7439.3774    527.87901   -7967.2564    4203.2284   -12170.485    91.050113   -1022.5725   -1094.4831   -729.37789   -69.352407   -193.83943   -74.671547      46.7237      46.7237      46.7237           90           90           90     102002.7   -948.81116 
  993000       992499   -7464.3123    532.34213   -7996.6545    4196.8597   -12193.514    91.819925   -1055.3299   -484.26723   -760.68758    101.71082    79.234307    42.952235      46.7237      46.7237      46.7237           90           90           90     102002.7   -766.76156 
  994000       993499   -7451.3193    543.50503   -7994.8243    4183.2771   -12178.101    93.745333   -751.71643   -607.69759   -913.56428   -25.295139   -62.733707   -60.322493      46.7237      46.7237      46.7237           90           90           90     102002.7   -757.65943 
  995000       994499   -7474.2456    520.00164   -7994.2472    4190.5601   -12184.807    89.691401   -784.38744   -1065.9156   -1029.0688     -160.423    29.768198    26.991499      46.7237      46.7237      46.7237           90           90           90     102002.7   -959.79059 
  996000       995499   -7451.7894    531.43917   -7983.2286    4201.4756   -12184.704    91.664179   -939.87354   -485.48452   -809.55692   -25.227897   -70.427667   -195.94255      46.7237      46.7237      46.7237           90           90           90     102002.7   -744.97166 
  997000       996499   -7450.3487    516.09811   -7966.4468    4213.9788   -12180.426    89.018108   -1246.9448   -369.21421   -800.64387    61.563519    88.847058    195.65027      46.7237      46.7237      46.7237           90           90           90     102002.7   -805.60098 
  998000       997499   -7451.0208    529.94983   -7980.9706    4199.6221   -12180.593    91.407294   -1134.0026   -703.32324    -654.9389   -17.370517    107.90602    346.62333      46.7237      46.7237      46.7237           90           90           90     102002.7   -830.75491 
  999000       998499    -7468.873      529.161    -7998.034    4184.2863    -12182.32    91.271235   -751.54903   -1294.2357   -834.74636   -134.10358   -52.793202   -37.942701      46.7237      46.7237      46.7237           90           90           90     102002.7   -960.17703 
 1000000       999499   -7462.2642     522.0175   -7984.2817    4176.1754   -12160.457    90.039102   -983.53898   -650.69149   -585.58335   -92.057776    22.800453    33.674872      46.7237      46.7237      46.7237           90           90           90     102002.7   -739.93794 
 1000501      1000000   -7458.9854    536.61643   -7995.6018     4178.593   -12174.195    92.557168   -972.05711   -587.81717   -738.93878   -24.495659    25.231477   -2.8228264      46.7237      46.7237      46.7237           90           90           90     102002.7   -766.27102 
Loop time of 1479.72 on 16 procs for 500000 steps with 1946 atoms

Performance: 29.195 ns/day, 0.822 hours/ns, 337.901 timesteps/s
99.8% CPU use with 16 MPI tasks x no OpenMP threads

MPI task timing breakdown:
Section |  min time  |  avg time  |  max time  |%varavg| %total
---------------------------------------------------------------
Pair    | 670.99     | 859.56     | 1033.6     | 380.0 | 58.09
Bond    | 159.33     | 183.55     | 203.15     |  96.4 | 12.40
Neigh   | 5.5427     | 5.5759     | 5.6541     |   1.8 |  0.38
Comm    | 238.93     | 403.55     | 576.98     | 504.4 | 27.27
Output  | 0.10021    | 0.10572    | 0.10618    |   0.4 |  0.01
Modify  | 21.69      | 22.013     | 22.393     |   5.4 |  1.49
Other   |            | 5.372      |            |       |  0.36

Nlocal:    121.625 ave 147 max 85 min
Histogram: 1 0 1 3 0 2 4 1 3 1
Nghost:    2430.62 ave 2468 max 2404 min
Histogram: 2 1 3 3 1 3 0 1 1 1
Neighs:    11455.8 ave 15878 max 7338 min
Histogram: 3 1 1 2 2 0 3 1 0 3

Total # of neighbors = 183293
Ave neighs/atom = 94.1896
Ave special neighs/atom = 5.91984
Neighbor list builds = 3850
Dangerous builds = 0
Total wall time: 0:46:48
