LAMMPS (30 Mar 2018)
Reading data file ...
  orthogonal box = (0 0 0) to (46.7237 46.7237 46.7237)
  2 by 2 by 4 MPI processor grid
  reading atoms ...
  2089 atoms
  scanning bonds ...
  5 = max bonds/atom
  scanning angles ...
  10 = max angles/atom
  scanning dihedrals ...
  32 = max dihedrals/atom
  scanning impropers ...
  3 = max impropers/atom
  reading bonds ...
  2064 bonds
  reading angles ...
  3696 angles
  reading dihedrals ...
  6240 dihedrals
  reading impropers ...
  1008 impropers
Finding 1-2 1-3 1-4 neighbors ...
  special bond factors lj:   0          0          0         
  special bond factors coul: 0          0          0         
  5 = max # of 1-2 neighbors
  8 = max # of 1-3 neighbors
  20 = max # of 1-4 neighbors
  19 = max # of special neighbors
Finding 1-2 1-3 1-4 neighbors ...
  special bond factors lj:   0          0          1         
  special bond factors coul: 1          1          1         
  5 = max # of 1-2 neighbors
  8 = max # of 1-3 neighbors
  19 = max # of special neighbors
WARNING: Using 'neigh_modify every 1 delay 0 check yes' setting during minimization (../min.cpp:168)
Neighbor list info ...
  update every 1 steps, delay 0 steps, check yes
  max neighbors/atom: 2000, page size: 100000
  master list distance cutoff = 16
  ghost atom cutoff = 16
  binsize = 8, bins = 6 6 6
  3 neighbor lists, perpetual/occasional/extra = 3 0 0
  (1) pair buck6d/coul/gauss/dsf, perpetual, skip from (3)
      attributes: half, newton on
      pair build: skip
      stencil: none
      bin: none
  (2) pair lj/cut, perpetual, skip from (3)
      attributes: half, newton on
      pair build: skip
      stencil: none
      bin: none
  (3) neighbor class addition, perpetual
      attributes: half, newton on
      pair build: half/bin/newton
      stencil: half/bin/3d/newton
      bin: standard
Setting up cg style minimization ...
  Unit style    : real
  Current step  : 0
WARNING: Inconsistent image flags (../domain.cpp:786)
Per MPI rank memory allocation (min/avg/max) = 22.92 | 23.37 | 23.82 Mbytes
Step Temp E_pair E_mol TotEng Press 
       0            0   -12678.428    6482.8914   -6195.5367    6075.9864 
     501            0   -12775.471    3732.9177   -9042.5529   -658.30327 
Loop time of 3.18579 on 16 procs for 501 steps with 2089 atoms

99.9% CPU use with 16 MPI tasks x no OpenMP threads

Minimization stats:
  Stopping criterion = max force evaluations
  Energy initial, next-to-last, final = 
        -6195.53668822     -9042.50971034     -9042.55293282
  Force two-norm initial, final = 2573.95 9.88092
  Force max component initial, final = 151.938 1.51603
  Final line search alpha, max atom move = 0.0037765 0.00572528
  Iterations, force evaluations = 501 1001

MPI task timing breakdown:
Section |  min time  |  avg time  |  max time  |%varavg| %total
---------------------------------------------------------------
Pair    | 1.3908     | 1.8903     | 2.3901     |  21.8 | 59.33
Bond    | 0.31024    | 0.35894    | 0.4318     |   5.3 | 11.27
Neigh   | 0.027156   | 0.027282   | 0.02739    |   0.0 |  0.86
Comm    | 0.34452    | 0.86861    | 1.3946     |  31.6 | 27.27
Output  | 0          | 0          | 0          |   0.0 |  0.00
Modify  | 0          | 0          | 0          |   0.0 |  0.00
Other   |            | 0.0407     |            |       |  1.28

Nlocal:    130.562 ave 139 max 113 min
Histogram: 1 1 1 2 0 0 1 0 4 6
Nghost:    2540.06 ave 2557 max 2528 min
Histogram: 1 5 2 0 3 0 1 1 1 2
Neighs:    11447.2 ave 15176 max 8129 min
Histogram: 2 3 3 0 1 1 0 2 2 2

Total # of neighbors = 183156
Ave neighs/atom = 87.6764
Ave special neighs/atom = 5.5146
Neighbor list builds = 16
Dangerous builds = 0
Neighbor list info ...
  update every 1 steps, delay 10 steps, check yes
  max neighbors/atom: 2000, page size: 100000
  master list distance cutoff = 16
  ghost atom cutoff = 16
  binsize = 8, bins = 6 6 6
  3 neighbor lists, perpetual/occasional/extra = 3 0 0
  (1) pair buck6d/coul/gauss/dsf, perpetual, skip from (3)
      attributes: half, newton on
      pair build: skip
      stencil: none
      bin: none
  (2) pair lj/cut, perpetual, skip from (3)
      attributes: half, newton on
      pair build: skip
      stencil: none
      bin: none
  (3) neighbor class addition, perpetual
      attributes: half, newton on
      pair build: half/bin/newton
      stencil: half/bin/3d/newton
      bin: standard
Setting up Verlet run ...
  Unit style    : real
  Current step  : 501
  Time step     : 1
WARNING: Inconsistent image flags (../domain.cpp:786)
Per MPI rank memory allocation (min/avg/max) = 22.56 | 22.64 | 22.75 Mbytes
Step Temp PotEng TotEng Press Volume Lx Ly Lz 
     501           91   -9042.5529   -8476.1752   -404.48239     102002.7      46.7237      46.7237      46.7237 
    1000    77.256333   -8535.0118   -8054.1737   -558.30884     102002.7      46.7237      46.7237      46.7237 
    2000    96.652996   -8473.8318   -7872.2701   -652.98961     102002.7      46.7237      46.7237      46.7237 
    3000    90.940746   -8437.5301   -7871.5211   -807.30957     102002.7      46.7237      46.7237      46.7237 
    4000    87.856271   -8440.3532   -7893.5418   -696.14157     102002.7      46.7237      46.7237      46.7237 
    5000    88.311184   -8452.3687   -7902.7259   -661.34739     102002.7      46.7237      46.7237      46.7237 
    6000    90.940254   -8446.7394   -7880.7335   -470.41794     102002.7      46.7237      46.7237      46.7237 
    7000    90.914311   -8435.6697   -7869.8253   -512.96787     102002.7      46.7237      46.7237      46.7237 
    8000    90.047801   -8463.1207   -7902.6694   -812.38204     102002.7      46.7237      46.7237      46.7237 
    9000    90.603331   -8448.0795   -7884.1706   -558.91234     102002.7      46.7237      46.7237      46.7237 
   10000    92.004775   -8437.8641   -7865.2327   -716.02217     102002.7      46.7237      46.7237      46.7237 
   11000    92.960661   -8472.4515   -7893.8707   -601.80591     102002.7      46.7237      46.7237      46.7237 
   12000    90.402585   -8448.2863   -7885.6268   -752.31425     102002.7      46.7237      46.7237      46.7237 
   13000    92.201738   -8464.6019   -7890.7446   -608.77484     102002.7      46.7237      46.7237      46.7237 
   14000    90.845471    -8455.274   -7889.8581   -823.38782     102002.7      46.7237      46.7237      46.7237 
   15000    92.352839   -8448.7913   -7873.9935    -610.2597     102002.7      46.7237      46.7237      46.7237 
   16000    91.001027   -8454.2971    -7887.913   -703.72484     102002.7      46.7237      46.7237      46.7237 
   17000    87.804143   -8449.4135   -7902.9265   -477.88571     102002.7      46.7237      46.7237      46.7237 
   18000    92.490977   -8458.0889   -7882.4314   -483.53015     102002.7      46.7237      46.7237      46.7237 
   19000    91.136787   -8448.3799   -7881.1508   -784.27928     102002.7      46.7237      46.7237      46.7237 
   20000    90.440983   -8452.5842   -7889.6857   -455.80207     102002.7      46.7237      46.7237      46.7237 
   21000    93.002532   -8472.1073   -7893.2659   -543.47028     102002.7      46.7237      46.7237      46.7237 
   22000    91.100637   -8453.5186   -7886.5145    -735.6648     102002.7      46.7237      46.7237      46.7237 
   23000    91.416991   -8452.8889   -7883.9158    -672.6675     102002.7      46.7237      46.7237      46.7237 
   24000    91.717737   -8454.2976   -7883.4527   -546.60734     102002.7      46.7237      46.7237      46.7237 
   25000     90.26151   -8441.2467   -7879.4652   -787.68144     102002.7      46.7237      46.7237      46.7237 
   26000    91.460739   -8447.3697   -7878.1243   -769.24012     102002.7      46.7237      46.7237      46.7237 
   27000    89.623982   -8450.4086   -7892.5951   -866.47485     102002.7      46.7237      46.7237      46.7237 
   28000    89.132427   -8450.3787   -7895.6246    -630.1494     102002.7      46.7237      46.7237      46.7237 
   29000    90.064825   -8439.3268   -7878.7696   -850.13885     102002.7      46.7237      46.7237      46.7237 
   30000    90.141479    -8463.191   -7902.1566    -830.1262     102002.7      46.7237      46.7237      46.7237 
   31000    88.997154   -8471.0931   -7917.1809   -977.70136     102002.7      46.7237      46.7237      46.7237 
   32000    90.622326   -8443.8636   -7879.8365   -896.62908     102002.7      46.7237      46.7237      46.7237 
   33000    89.298867   -8461.0748   -7905.2848   -778.42307     102002.7      46.7237      46.7237      46.7237 
   34000    89.609249   -8446.1048   -7888.3829   -823.12959     102002.7      46.7237      46.7237      46.7237 
   35000    88.260021    -8456.757   -7907.4326   -731.24868     102002.7      46.7237      46.7237      46.7237 
   36000    93.809015   -8443.8297   -7859.9688   -680.11154     102002.7      46.7237      46.7237      46.7237 
   37000    91.717425   -8469.5379    -7898.695   -734.44973     102002.7      46.7237      46.7237      46.7237 
   38000    91.880833   -8453.5596   -7881.6996   -770.20736     102002.7      46.7237      46.7237      46.7237 
   39000    90.445339   -8454.2745   -7891.3489    -616.9489     102002.7      46.7237      46.7237      46.7237 
   40000    90.523505   -8469.1076   -7905.6955   -802.67286     102002.7      46.7237      46.7237      46.7237 
   41000    91.377847   -8456.6512   -7887.9218   -634.48018     102002.7      46.7237      46.7237      46.7237 
   42000    91.750711    -8474.845   -7903.7949    -803.2469     102002.7      46.7237      46.7237      46.7237 
   43000     92.06939   -8458.3624   -7885.3289   -657.64927     102002.7      46.7237      46.7237      46.7237 
   44000    88.713101   -8447.7949   -7895.6506   -589.24818     102002.7      46.7237      46.7237      46.7237 
   45000      90.4423   -8450.8923   -7887.9856   -757.93242     102002.7      46.7237      46.7237      46.7237 
   46000     90.02403   -8459.7176   -7899.4142    -410.4744     102002.7      46.7237      46.7237      46.7237 
   47000    90.402804   -8439.0214   -7876.3605   -720.09889     102002.7      46.7237      46.7237      46.7237 
   48000    89.480863   -8437.5358    -7880.613   -818.16601     102002.7      46.7237      46.7237      46.7237 
   49000     89.82012   -8469.3106   -7910.2763   -851.09439     102002.7      46.7237      46.7237      46.7237 
   50000    88.926854   -8443.8171   -7890.3424   -834.37731     102002.7      46.7237      46.7237      46.7237 
   51000     92.64738   -8460.2642   -7883.6333   -806.88375     102002.7      46.7237      46.7237      46.7237 
   52000    90.335121   -8446.5131   -7884.2735   -609.25517     102002.7      46.7237      46.7237      46.7237 
   53000    87.835567   -8451.6155    -7904.933   -622.81766     102002.7      46.7237      46.7237      46.7237 
   54000    89.295605   -8431.6899   -7875.9202   -752.23276     102002.7      46.7237      46.7237      46.7237 
   55000    91.049369   -8443.0482   -7876.3632   -616.91524     102002.7      46.7237      46.7237      46.7237 
   56000    89.784725   -8453.7062   -7894.8922   -641.60649     102002.7      46.7237      46.7237      46.7237 
   57000     90.56145   -8464.2686   -7900.6203   -662.80759     102002.7      46.7237      46.7237      46.7237 
   58000    90.151929   -8457.6477   -7896.5483   -878.71873     102002.7      46.7237      46.7237      46.7237 
   59000    87.292597   -8467.8935   -7924.5904   -629.51012     102002.7      46.7237      46.7237      46.7237 
   60000    92.684349    -8457.998    -7881.137   -540.08584     102002.7      46.7237      46.7237      46.7237 
   61000     90.23923   -8463.4391   -7901.7963    -740.3882     102002.7      46.7237      46.7237      46.7237 
   62000    89.667498   -8439.9463    -7881.862   -575.61847     102002.7      46.7237      46.7237      46.7237 
   63000    90.868041   -8468.1453   -7902.5889    -752.4274     102002.7      46.7237      46.7237      46.7237 
   64000    91.306659   -8443.4356   -7875.1492   -384.43229     102002.7      46.7237      46.7237      46.7237 
   65000    91.891484   -8453.1773    -7881.251   -597.63677     102002.7      46.7237      46.7237      46.7237 
   66000    92.730558   -8438.0669   -7860.9183   -689.80973     102002.7      46.7237      46.7237      46.7237 
   67000     92.99076   -8450.9291    -7872.161   -741.86257     102002.7      46.7237      46.7237      46.7237 
   68000    87.954937   -8452.0122   -7904.5867   -977.80979     102002.7      46.7237      46.7237      46.7237 
   69000    90.075454   -8435.7664   -7875.1429   -833.10256     102002.7      46.7237      46.7237      46.7237 
   70000    89.681583   -8426.7349   -7868.5629   -715.80244     102002.7      46.7237      46.7237      46.7237 
   71000    92.282243   -8447.0581   -7872.6998   -825.14149     102002.7      46.7237      46.7237      46.7237 
   72000    90.884524   -8460.4817   -7894.8227   -908.12878     102002.7      46.7237      46.7237      46.7237 
   73000    91.519609   -8467.0541   -7897.4423   -988.68415     102002.7      46.7237      46.7237      46.7237 
   74000    91.506188   -8444.2273   -7874.6991   -927.56966     102002.7      46.7237      46.7237      46.7237 
   75000    92.885022   -8457.1117   -7879.0017   -1097.8082     102002.7      46.7237      46.7237      46.7237 
   76000    89.891309   -8468.7463    -7909.269   -713.83745     102002.7      46.7237      46.7237      46.7237 
   77000    90.829175   -8457.8151   -7892.5005   -676.58572     102002.7      46.7237      46.7237      46.7237 
   78000    90.284696   -8443.5912   -7881.6654    -795.9228     102002.7      46.7237      46.7237      46.7237 
   79000    91.403518   -8450.3641   -7881.4749   -713.72213     102002.7      46.7237      46.7237      46.7237 
   80000    89.546997    -8427.927   -7870.5927   -815.87041     102002.7      46.7237      46.7237      46.7237 
   81000    89.446798   -8450.4796   -7893.7688   -599.43957     102002.7      46.7237      46.7237      46.7237 
   82000    95.580978   -8428.8006   -7833.9112   -631.95163     102002.7      46.7237      46.7237      46.7237 
   83000    91.927547   -8439.3486   -7867.1979   -888.87458     102002.7      46.7237      46.7237      46.7237 
   84000    91.763873    -8435.617    -7864.485   -492.26195     102002.7      46.7237      46.7237      46.7237 
   85000    91.310585   -8464.6018    -7896.291   -714.05722     102002.7      46.7237      46.7237      46.7237 
   86000    89.126631   -8441.0503   -7886.3323   -543.92341     102002.7      46.7237      46.7237      46.7237 
   87000    94.025454   -8415.0749    -7829.867   -689.41584     102002.7      46.7237      46.7237      46.7237 
   88000    91.107229   -8436.9928   -7869.9477   -857.72238     102002.7      46.7237      46.7237      46.7237 
   89000    89.825625   -8457.6282   -7898.5597   -696.25021     102002.7      46.7237      46.7237      46.7237 
   90000    89.847692    -8454.077   -7894.8712   -805.90728     102002.7      46.7237      46.7237      46.7237 
   91000     88.55659   -8437.9563   -7886.7861   -860.03269     102002.7      46.7237      46.7237      46.7237 
   92000    89.800465   -8443.1148   -7884.2029   -680.89869     102002.7      46.7237      46.7237      46.7237 
   93000    89.157743   -8447.1815   -7892.2698   -926.87579     102002.7      46.7237      46.7237      46.7237 
   94000    93.538028   -8449.6484   -7867.4741   -755.20662     102002.7      46.7237      46.7237      46.7237 
   95000    91.079415   -8445.4328   -7878.5608   -914.07993     102002.7      46.7237      46.7237      46.7237 
   96000    89.001054   -8467.6486   -7913.7122    -773.4622     102002.7      46.7237      46.7237      46.7237 
   97000    90.443698   -8439.9712   -7877.0558    -918.0927     102002.7      46.7237      46.7237      46.7237 
   98000    90.267098   -8452.0092    -7890.193   -890.60974     102002.7      46.7237      46.7237      46.7237 
   99000    90.350438   -8449.6906   -7887.3557   -849.76104     102002.7      46.7237      46.7237      46.7237 
  100000    89.578162   -8467.5958   -7910.0674   -791.72983     102002.7      46.7237      46.7237      46.7237 
  101000    89.879819   -8442.0082   -7882.6024   -569.54222     102002.7      46.7237      46.7237      46.7237 
  102000    91.197809   -8450.0464   -7882.4375   -745.22889     102002.7      46.7237      46.7237      46.7237 
  103000    90.667472   -8454.6039   -7890.2957   -845.88405     102002.7      46.7237      46.7237      46.7237 
  104000    93.625059   -8432.2489    -7849.533   -803.08831     102002.7      46.7237      46.7237      46.7237 
  105000    88.330609   -8420.3745   -7870.6109   -682.37186     102002.7      46.7237      46.7237      46.7237 
  106000    90.707341   -8458.8815   -7894.3253   -633.50177     102002.7      46.7237      46.7237      46.7237 
  107000    89.256329    -8454.128   -7898.6027   -858.42004     102002.7      46.7237      46.7237      46.7237 
  108000    92.825668    -8457.943   -7880.2024   -836.95247     102002.7      46.7237      46.7237      46.7237 
  109000    90.988134   -8443.6236   -7877.3197   -982.46884     102002.7      46.7237      46.7237      46.7237 
  110000    92.057593   -8438.4288   -7865.4687   -856.48273     102002.7      46.7237      46.7237      46.7237 
  111000    89.604689   -8465.4874    -7907.794   -731.69189     102002.7      46.7237      46.7237      46.7237 
  112000    90.721124   -8450.6635   -7886.0214   -769.72405     102002.7      46.7237      46.7237      46.7237 
  113000     86.40677   -8450.2015   -7912.4117   -964.80508     102002.7      46.7237      46.7237      46.7237 
  114000    91.665357   -8452.2218   -7881.7029   -835.85557     102002.7      46.7237      46.7237      46.7237 
  115000    91.908818   -8444.0952    -7872.061   -669.41139     102002.7      46.7237      46.7237      46.7237 
  116000    91.360107   -8444.9175   -7876.2984   -727.01032     102002.7      46.7237      46.7237      46.7237 
  117000    92.260103   -8455.1507   -7880.9301   -664.31539     102002.7      46.7237      46.7237      46.7237 
  118000    91.168485   -8465.4142   -7897.9878   -697.38904     102002.7      46.7237      46.7237      46.7237 
  119000    90.610207     -8456.61   -7892.6583   -890.77508     102002.7      46.7237      46.7237      46.7237 
  120000    87.601343   -8439.0782   -7893.8534    -804.0259     102002.7      46.7237      46.7237      46.7237 
  121000    90.826389   -8435.2961   -7869.9989   -737.47104     102002.7      46.7237      46.7237      46.7237 
  122000    93.153337   -8443.2884   -7863.5085   -618.52686     102002.7      46.7237      46.7237      46.7237 
  123000    91.116359   -8459.9874   -7892.8854   -467.28432     102002.7      46.7237      46.7237      46.7237 
  124000    90.174493   -8456.1885   -7894.9486   -617.56389     102002.7      46.7237      46.7237      46.7237 
  125000    92.427651    -8440.324   -7865.0606   -739.78068     102002.7      46.7237      46.7237      46.7237 
  126000     89.66602   -8469.7693   -7911.6942   -679.49886     102002.7      46.7237      46.7237      46.7237 
  127000    91.655313   -8455.3103    -7884.854   -987.79625     102002.7      46.7237      46.7237      46.7237 
  128000    93.036539   -8463.3616   -7884.3086   -927.95728     102002.7      46.7237      46.7237      46.7237 
  129000    91.759928    -8435.882   -7864.7746   -534.23792     102002.7      46.7237      46.7237      46.7237 
  130000    91.208562   -8425.3091   -7857.6333   -892.31346     102002.7      46.7237      46.7237      46.7237 
  131000    89.592635   -8465.2742   -7907.6557   -947.30571     102002.7      46.7237      46.7237      46.7237 
  132000    92.998839   -8449.8509   -7871.0325     -834.586     102002.7      46.7237      46.7237      46.7237 
  133000     96.11876   -8457.3371   -7859.1005   -668.61795     102002.7      46.7237      46.7237      46.7237 
  134000     91.70298   -8432.6465   -7861.8934   -682.58249     102002.7      46.7237      46.7237      46.7237 
  135000    88.724312   -8437.6875   -7885.4734   -717.98828     102002.7      46.7237      46.7237      46.7237 
  136000    87.027722    -8452.655   -7911.0004   -469.53362     102002.7      46.7237      46.7237      46.7237 
  137000    93.152656   -8455.6869   -7875.9112   -751.12816     102002.7      46.7237      46.7237      46.7237 
  138000    90.305386   -8446.6745     -7884.62   -657.74764     102002.7      46.7237      46.7237      46.7237 
  139000    89.979679   -8447.2608   -7887.2335    -604.5989     102002.7      46.7237      46.7237      46.7237 
  140000    93.345094   -8458.3593   -7877.3859   -769.89794     102002.7      46.7237      46.7237      46.7237 
  141000    94.006337   -8455.4944   -7870.4054    -346.7977     102002.7      46.7237      46.7237      46.7237 
  142000    94.705405   -8445.4298   -7855.9899   -500.38107     102002.7      46.7237      46.7237      46.7237 
  143000    87.497998    -8430.089   -7885.5074   -526.47203     102002.7      46.7237      46.7237      46.7237 
  144000    90.649898   -8421.2269   -7857.0281   -622.44256     102002.7      46.7237      46.7237      46.7237 
  145000     91.23482   -8456.5589   -7888.7197   -774.80739     102002.7      46.7237      46.7237      46.7237 
  146000    92.112236   -8442.9027   -7869.6025   -707.33287     102002.7      46.7237      46.7237      46.7237 
  147000    93.363601   -8448.6527   -7867.5641   -976.71383     102002.7      46.7237      46.7237      46.7237 
  148000    91.312786    -8455.541   -7887.2165   -820.17285     102002.7      46.7237      46.7237      46.7237 
  149000    95.604115   -8443.8541   -7848.8207   -669.86967     102002.7      46.7237      46.7237      46.7237 
  150000    91.894652   -8448.4186   -7876.4726   -774.16913     102002.7      46.7237      46.7237      46.7237 
  151000    90.970751   -8445.7469   -7879.5512   -806.12623     102002.7      46.7237      46.7237      46.7237 
  152000    91.750589   -8445.8502   -7874.8009   -932.38147     102002.7      46.7237      46.7237      46.7237 
  153000    91.124074   -8488.8079   -7921.6579   -539.78722     102002.7      46.7237      46.7237      46.7237 
  154000    92.820031   -8447.1812   -7869.4757    -703.8566     102002.7      46.7237      46.7237      46.7237 
  155000    90.660073   -8444.0495   -7879.7874   -942.89793     102002.7      46.7237      46.7237      46.7237 
  156000    90.472773    -8437.386   -7874.2897   -714.12078     102002.7      46.7237      46.7237      46.7237 
  157000    90.733145    -8445.121   -7880.4042   -753.70695     102002.7      46.7237      46.7237      46.7237 
  158000    90.942221   -8434.2095   -7868.1913   -622.14565     102002.7      46.7237      46.7237      46.7237 
  159000    88.580249   -8452.7009   -7901.3835   -658.40209     102002.7      46.7237      46.7237      46.7237 
  160000    93.946547   -8457.3702   -7872.6534   -750.17869     102002.7      46.7237      46.7237      46.7237 
  161000    91.633095   -8457.9462   -7887.6281   -988.33594     102002.7      46.7237      46.7237      46.7237 
  162000    91.638108   -8440.7016   -7870.3523   -860.83732     102002.7      46.7237      46.7237      46.7237 
  163000    93.094702   -8426.9898   -7847.5747   -928.10655     102002.7      46.7237      46.7237      46.7237 
  164000    91.991301   -8469.2535   -7896.7059   -800.66586     102002.7      46.7237      46.7237      46.7237 
  165000    92.409711   -8460.3867    -7885.235   -745.46278     102002.7      46.7237      46.7237      46.7237 
  166000    91.020709    -8453.072   -7886.5654    -768.6951     102002.7      46.7237      46.7237      46.7237 
  167000    92.004716   -8439.6302   -7866.9992   -814.37243     102002.7      46.7237      46.7237      46.7237 
  168000      89.2475   -8456.3707   -7900.9004   -730.11463     102002.7      46.7237      46.7237      46.7237 
  169000     90.66306   -8460.6073   -7896.3266    -942.4217     102002.7      46.7237      46.7237      46.7237 
  170000    92.746323   -8446.3871   -7869.1404    -934.3382     102002.7      46.7237      46.7237      46.7237 
  171000    90.057738   -8446.5601   -7886.0469   -808.55841     102002.7      46.7237      46.7237      46.7237 
  172000    92.169438   -8475.1037   -7901.4474   -617.24657     102002.7      46.7237      46.7237      46.7237 
  173000    93.123518   -8471.5923   -7891.9979   -831.90312     102002.7      46.7237      46.7237      46.7237 
  174000    92.158312   -8430.6113   -7857.0243   -804.54342     102002.7      46.7237      46.7237      46.7237 
  175000    92.629638   -8453.1031   -7876.5826   -879.71148     102002.7      46.7237      46.7237      46.7237 
  176000    90.038931   -8443.0791    -7882.683   -653.40897     102002.7      46.7237      46.7237      46.7237 
  177000    87.657701    -8459.965   -7914.3895   -876.65697     102002.7      46.7237      46.7237      46.7237 
  178000    90.755356   -8441.8876   -7877.0325   -735.60183     102002.7      46.7237      46.7237      46.7237 
  179000     92.68341    -8459.244   -7882.3888   -715.95825     102002.7      46.7237      46.7237      46.7237 
  180000    90.336888   -8463.4993   -7901.2487   -637.72914     102002.7      46.7237      46.7237      46.7237 
  181000    90.072311   -8458.7541   -7898.1502   -557.77687     102002.7      46.7237      46.7237      46.7237 
  182000    92.229674   -8451.1912   -7877.1601   -562.83112     102002.7      46.7237      46.7237      46.7237 
  183000    90.855768   -8452.8016   -7887.3216   -822.40991     102002.7      46.7237      46.7237      46.7237 
  184000    94.153416   -8447.3044      -7861.3   -774.44747     102002.7      46.7237      46.7237      46.7237 
  185000    91.611344   -8461.0134   -7890.8307    -720.0365     102002.7      46.7237      46.7237      46.7237 
  186000    88.796886   -8465.2821   -7912.6163   -830.08015     102002.7      46.7237      46.7237      46.7237 
  187000    91.332661   -8464.1229   -7895.6747   -759.76042     102002.7      46.7237      46.7237      46.7237 
  188000    90.234465   -8447.1642   -7885.5511   -753.78236     102002.7      46.7237      46.7237      46.7237 
  189000    90.975001   -8452.9006   -7886.6784   -815.36332     102002.7      46.7237      46.7237      46.7237 
  190000    94.155808   -8447.7137   -7861.6944   -755.18376     102002.7      46.7237      46.7237      46.7237 
  191000    92.255263   -8456.1095   -7881.9191    -723.6986     102002.7      46.7237      46.7237      46.7237 
  192000    90.191984   -8445.4291   -7884.0804   -705.13935     102002.7      46.7237      46.7237      46.7237 
  193000    92.350001   -8449.4993   -7874.7192   -829.63317     102002.7      46.7237      46.7237      46.7237 
  194000    92.102548   -8450.4612   -7877.2213   -815.81398     102002.7      46.7237      46.7237      46.7237 
  195000    92.278629   -8457.8535   -7883.5176   -802.58615     102002.7      46.7237      46.7237      46.7237 
  196000    90.364408   -8454.5425   -7892.1207   -820.21473     102002.7      46.7237      46.7237      46.7237 
  197000    90.125658   -8458.7858   -7897.8498    -672.4941     102002.7      46.7237      46.7237      46.7237 
  198000    91.153656   -8433.9482   -7866.6141   -752.71021     102002.7      46.7237      46.7237      46.7237 
  199000    91.400747   -8451.3334   -7882.4614   -593.26961     102002.7      46.7237      46.7237      46.7237 
  200000    90.939662   -8431.7619   -7865.7597   -907.03758     102002.7      46.7237      46.7237      46.7237 
  201000    92.467013   -8451.2478   -7875.7394    -824.3662     102002.7      46.7237      46.7237      46.7237 
  202000    91.878268   -8449.1178   -7877.2738   -706.00479     102002.7      46.7237      46.7237      46.7237 
  203000    89.857159   -8454.9124   -7895.6476   -844.27525     102002.7      46.7237      46.7237      46.7237 
  204000    90.167317   -8453.1477   -7891.9525   -881.94538     102002.7      46.7237      46.7237      46.7237 
  205000    89.095928    -8438.711    -7884.184   -1039.4743     102002.7      46.7237      46.7237      46.7237 
  206000    92.330541    -8459.034    -7884.375   -859.52057     102002.7      46.7237      46.7237      46.7237 
  207000    89.668654   -8434.3946    -7876.303   -901.28552     102002.7      46.7237      46.7237      46.7237 
  208000    90.937994   -8456.7937   -7890.8018   -833.83348     102002.7      46.7237      46.7237      46.7237 
  209000    94.126473    -8438.093   -7852.2562   -728.33905     102002.7      46.7237      46.7237      46.7237 
  210000     88.49769   -8455.8622   -7905.0587   -737.43939     102002.7      46.7237      46.7237      46.7237 
  211000    90.097449   -8438.6619   -7877.9016   -851.33015     102002.7      46.7237      46.7237      46.7237 
  212000    90.949765   -8455.6075   -7889.5424   -774.76642     102002.7      46.7237      46.7237      46.7237 
  213000    90.928182   -8431.6472   -7865.7165   -956.94992     102002.7      46.7237      46.7237      46.7237 
  214000     95.51391   -8438.5785   -7844.1065   -779.69675     102002.7      46.7237      46.7237      46.7237 
  215000    89.704873   -8457.2714   -7898.9544   -790.90354     102002.7      46.7237      46.7237      46.7237 
  216000    91.466279   -8442.9151   -7873.6353   -849.68416     102002.7      46.7237      46.7237      46.7237 
  217000    87.327696   -8431.3761   -7887.8545   -973.64555     102002.7      46.7237      46.7237      46.7237 
  218000    92.659388   -8463.1513   -7886.4456   -868.44941     102002.7      46.7237      46.7237      46.7237 
  219000      90.5444   -8445.6211    -7882.079   -972.67181     102002.7      46.7237      46.7237      46.7237 
  220000    90.642105   -8447.9256   -7883.7754   -821.83118     102002.7      46.7237      46.7237      46.7237 
  221000    91.482871   -8449.7115   -7880.3284    -863.1867     102002.7      46.7237      46.7237      46.7237 
  222000    89.978306   -8421.8765   -7861.8577   -1020.0152     102002.7      46.7237      46.7237      46.7237 
  223000    90.096177    -8436.845   -7876.0926   -858.40278     102002.7      46.7237      46.7237      46.7237 
  224000    94.344155   -8442.4621   -7855.2706   -861.91752     102002.7      46.7237      46.7237      46.7237 
  225000    88.970786   -8419.4931    -7865.745   -705.35359     102002.7      46.7237      46.7237      46.7237 
  226000    93.588509   -8428.3699   -7845.8814   -704.33326     102002.7      46.7237      46.7237      46.7237 
  227000    91.717149   -8460.0536   -7889.2124   -643.74226     102002.7      46.7237      46.7237      46.7237 
  228000    93.062048   -8436.4293   -7857.2175   -867.16555     102002.7      46.7237      46.7237      46.7237 
  229000    90.423767   -8451.2583    -7888.467   -624.47645     102002.7      46.7237      46.7237      46.7237 
  230000    87.768412   -8458.6229   -7912.3583   -754.74183     102002.7      46.7237      46.7237      46.7237 
  231000    91.944143   -8435.5543   -7863.3002   -778.55318     102002.7      46.7237      46.7237      46.7237 
  232000    91.435937   -8449.3988   -7880.3078   -688.04227     102002.7      46.7237      46.7237      46.7237 
  233000    90.597536   -8443.7248    -7879.852    -724.1606     102002.7      46.7237      46.7237      46.7237 
  234000    93.714793   -8461.2229   -7877.9484   -727.18322     102002.7      46.7237      46.7237      46.7237 
  235000    88.363869   -8454.7032   -7904.7326   -654.43968     102002.7      46.7237      46.7237      46.7237 
  236000    90.774945   -8450.6882   -7885.7112   -486.20316     102002.7      46.7237      46.7237      46.7237 
  237000     88.22557   -8448.2088   -7899.0989   -870.03245     102002.7      46.7237      46.7237      46.7237 
  238000    87.351231    -8445.574   -7901.9059   -660.96793     102002.7      46.7237      46.7237      46.7237 
  239000    90.571393   -8439.6794   -7875.9692    -778.9236     102002.7      46.7237      46.7237      46.7237 
  240000    92.307938   -8450.9225   -7876.4042   -908.95168     102002.7      46.7237      46.7237      46.7237 
  241000    90.427585    -8457.892   -7895.0769   -628.12971     102002.7      46.7237      46.7237      46.7237 
  242000    94.432035    -8437.722   -7849.9835    -728.5468     102002.7      46.7237      46.7237      46.7237 
  243000    89.600335   -8451.0489   -7893.3826   -660.46318     102002.7      46.7237      46.7237      46.7237 
  244000    90.630455   -8421.1119   -7857.0341   -587.18275     102002.7      46.7237      46.7237      46.7237 
  245000    89.344876   -8457.0652   -7900.9888   -655.20093     102002.7      46.7237      46.7237      46.7237 
  246000    89.353729   -8434.1198   -7877.9883   -910.06858     102002.7      46.7237      46.7237      46.7237 
  247000    93.389285   -8471.8506   -7890.6021   -733.13972     102002.7      46.7237      46.7237      46.7237 
  248000    89.732594   -8453.6981   -7895.2086   -880.47349     102002.7      46.7237      46.7237      46.7237 
  249000    91.434758    -8449.744   -7880.6603   -659.40261     102002.7      46.7237      46.7237      46.7237 
  250000     92.17528    -8435.687   -7861.9944   -1131.2324     102002.7      46.7237      46.7237      46.7237 
  251000    88.259818    -8439.238    -7889.915   -656.93409     102002.7      46.7237      46.7237      46.7237 
  252000     91.91291   -8443.0546   -7870.9949   -654.58994     102002.7      46.7237      46.7237      46.7237 
  253000    88.876146   -8446.3021   -7893.1431   -1238.4247     102002.7      46.7237      46.7237      46.7237 
  254000    92.921106   -8463.9992   -7885.6646   -555.81334     102002.7      46.7237      46.7237      46.7237 
  255000    90.389366   -8438.2751   -7875.6978   -997.64074     102002.7      46.7237      46.7237      46.7237 
  256000    92.349279   -8424.6521   -7849.8765   -708.28128     102002.7      46.7237      46.7237      46.7237 
  257000    89.143019   -8439.3299   -7884.5099   -525.57798     102002.7      46.7237      46.7237      46.7237 
  258000    90.370403   -8447.7692     -7885.31   -905.33042     102002.7      46.7237      46.7237      46.7237 
  259000    92.966603   -8450.3746   -7871.7569   -773.37266     102002.7      46.7237      46.7237      46.7237 
  260000    92.262035   -8446.5763   -7872.3437   -906.55293     102002.7      46.7237      46.7237      46.7237 
  261000    90.550199   -8450.6191   -7887.0409   -943.74323     102002.7      46.7237      46.7237      46.7237 
  262000    91.786653   -8458.4022   -7887.1284   -1008.6726     102002.7      46.7237      46.7237      46.7237 
  263000    89.923431   -8446.7545   -7887.0772    -1121.712     102002.7      46.7237      46.7237      46.7237 
  264000     91.51004   -8446.9263   -7877.3741   -802.22778     102002.7      46.7237      46.7237      46.7237 
  265000     88.47742    -8428.778   -7878.1006   -676.17682     102002.7      46.7237      46.7237      46.7237 
  266000    91.663911   -8454.4578   -7883.9479   -683.33521     102002.7      46.7237      46.7237      46.7237 
  267000    93.784756   -8446.3414   -7862.6315   -642.16363     102002.7      46.7237      46.7237      46.7237 
  268000    89.310779   -8455.5712    -7899.707   -626.89549     102002.7      46.7237      46.7237      46.7237 
  269000    87.518915   -8446.7499   -7902.0381    -693.9756     102002.7      46.7237      46.7237      46.7237 
  270000    91.289167   -8451.3252   -7883.1476   -822.82294     102002.7      46.7237      46.7237      46.7237 
  271000    90.797227   -8460.4814   -7895.3657   -880.78565     102002.7      46.7237      46.7237      46.7237 
  272000    92.528669     -8456.66   -7880.7679   -695.00109     102002.7      46.7237      46.7237      46.7237 
  273000    90.880274   -8445.6619   -7880.0293   -721.39319     102002.7      46.7237      46.7237      46.7237 
  274000    90.632109   -8467.0871    -7902.999   -814.20064     102002.7      46.7237      46.7237      46.7237 
  275000    92.499027   -8465.3828   -7889.6752   -663.00756     102002.7      46.7237      46.7237      46.7237 
  276000    91.747521   -8468.4193   -7897.3891   -848.56637     102002.7      46.7237      46.7237      46.7237 
  277000    92.931976   -8468.4656   -7890.0634   -734.71021     102002.7      46.7237      46.7237      46.7237 
  278000    91.562467     -8442.05   -7872.1715   -692.00397     102002.7      46.7237      46.7237      46.7237 
  279000    90.542284   -8455.3036   -7891.7747   -699.99224     102002.7      46.7237      46.7237      46.7237 
  280000     93.51394   -8443.7481   -7861.7238   -651.77179     102002.7      46.7237      46.7237      46.7237 
  281000    91.721485   -8463.6366   -7892.7684   -714.28058     102002.7      46.7237      46.7237      46.7237 
  282000    90.383661   -8449.3342   -7886.7925   -666.10652     102002.7      46.7237      46.7237      46.7237 
  283000    89.525195   -8452.2926    -7895.094   -713.20592     102002.7      46.7237      46.7237      46.7237 
  284000    90.395543    -8470.055   -7907.4394   -744.88049     102002.7      46.7237      46.7237      46.7237 
  285000    91.245676   -8432.2704   -7864.3636   -671.14054     102002.7      46.7237      46.7237      46.7237 
  286000    91.190129   -8461.1231    -7893.562   -789.23758     102002.7      46.7237      46.7237      46.7237 
  287000    92.667866   -8425.2507   -7848.4922   -812.07117     102002.7      46.7237      46.7237      46.7237 
  288000    91.196881   -8450.7248   -7883.1216   -889.82689     102002.7      46.7237      46.7237      46.7237 
  289000    94.015308   -8451.8423   -7866.6974   -798.10031     102002.7      46.7237      46.7237      46.7237 
  290000    90.011618   -8439.2826   -7879.0564   -999.59885     102002.7      46.7237      46.7237      46.7237 
  291000    89.550606   -8448.0965   -7890.7397   -960.08595     102002.7      46.7237      46.7237      46.7237 
  292000    90.586083   -8457.8322   -7894.0307   -885.38625     102002.7      46.7237      46.7237      46.7237 
  293000    92.693513    -8452.034   -7875.1159   -1070.9554     102002.7      46.7237      46.7237      46.7237 
  294000    87.109728   -8442.5353   -7900.3703   -797.48203     102002.7      46.7237      46.7237      46.7237 
  295000    90.692616   -8442.8754   -7878.4108    -871.7839     102002.7      46.7237      46.7237      46.7237 
  296000    90.832418   -8462.0174   -7896.6827   -841.86201     102002.7      46.7237      46.7237      46.7237 
  297000    92.594259   -8444.2877   -7867.9873   -1076.9808     102002.7      46.7237      46.7237      46.7237 
  298000    94.959171   -8480.1951   -7889.1757   -758.57335     102002.7      46.7237      46.7237      46.7237 
  299000    91.700176   -8446.8851   -7876.1495   -774.36343     102002.7      46.7237      46.7237      46.7237 
  300000    90.341663   -8473.6944   -7911.4141   -928.52329     102002.7      46.7237      46.7237      46.7237 
  301000    92.589202   -8454.4019   -7878.1331   -479.87809     102002.7      46.7237      46.7237      46.7237 
  302000    93.143879   -8441.4804   -7861.7593   -647.26419     102002.7      46.7237      46.7237      46.7237 
  303000    90.747941   -8464.6567   -7899.8477   -947.00464     102002.7      46.7237      46.7237      46.7237 
  304000    93.177471    -8456.225   -7876.2948   -792.53153     102002.7      46.7237      46.7237      46.7237 
  305000    91.821474   -8451.2332   -7879.7426   -702.67576     102002.7      46.7237      46.7237      46.7237 
  306000    90.367623     -8459.45   -7897.0081    -495.2041     102002.7      46.7237      46.7237      46.7237 
  307000    90.539664   -8440.8437    -7877.331   -810.89724     102002.7      46.7237      46.7237      46.7237 
  308000    90.950546   -8438.3123   -7872.2424   -509.96887     102002.7      46.7237      46.7237      46.7237 
  309000    92.419912   -8470.7922    -7895.577   -868.04976     102002.7      46.7237      46.7237      46.7237 
  310000    90.335905   -8448.8092   -7886.5647   -709.36125     102002.7      46.7237      46.7237      46.7237 
  311000    91.787352   -8442.3089   -7871.0307    -926.3248     102002.7      46.7237      46.7237      46.7237 
  312000    90.210446   -8463.1117   -7901.6481   -671.01495     102002.7      46.7237      46.7237      46.7237 
  313000    90.955561    -8453.251   -7887.1498    -668.1042     102002.7      46.7237      46.7237      46.7237 
  314000    92.008325   -8455.6256   -7882.9721   -717.11294     102002.7      46.7237      46.7237      46.7237 
  315000    92.645526   -8455.5503   -7878.9309   -597.41451     102002.7      46.7237      46.7237      46.7237 
  316000    89.783598   -8463.8987   -7905.0918   -485.58018     102002.7      46.7237      46.7237      46.7237 
  317000    91.298594   -8454.4004   -7886.1642   -655.91028     102002.7      46.7237      46.7237      46.7237 
  318000     88.83007   -8443.0795   -7890.2072   -708.36802     102002.7      46.7237      46.7237      46.7237 
  319000    94.418331   -8473.7656   -7886.1124   -634.93446     102002.7      46.7237      46.7237      46.7237 
  320000     91.62317   -8452.8068   -7882.5505    -947.4993     102002.7      46.7237      46.7237      46.7237 
  321000    87.266032   -8455.7708    -7912.633   -532.03461     102002.7      46.7237      46.7237      46.7237 
  322000    89.483134   -8459.8016   -7902.8647   -819.71028     102002.7      46.7237      46.7237      46.7237 
  323000    91.337028   -8453.6977   -7885.2223   -870.75237     102002.7      46.7237      46.7237      46.7237 
  324000    91.352475    -8452.591   -7884.0195    -815.7213     102002.7      46.7237      46.7237      46.7237 
  325000    90.408519   -8447.0017   -7884.3053   -786.74785     102002.7      46.7237      46.7237      46.7237 
  326000    94.316915    -8458.717   -7871.6949   -628.36231     102002.7      46.7237      46.7237      46.7237 
  327000    91.718135   -8435.7365   -7864.8891   -450.50252     102002.7      46.7237      46.7237      46.7237 
  328000    90.512891   -8464.9733   -7901.6273   -537.85794     102002.7      46.7237      46.7237      46.7237 
  329000    92.174053   -8450.1155   -7876.4305   -754.19658     102002.7      46.7237      46.7237      46.7237 
  330000    93.017219    -8430.215   -7851.2822   -610.50536     102002.7      46.7237      46.7237      46.7237 
  331000    92.137423     -8455.16    -7881.703   -510.71294     102002.7      46.7237      46.7237      46.7237 
  332000    93.541485   -8449.4773   -7867.2815    -467.0674     102002.7      46.7237      46.7237      46.7237 
  333000    89.553545   -8454.3253   -7896.9502   -710.00158     102002.7      46.7237      46.7237      46.7237 
  334000    89.766761   -8465.2729   -7906.5707   -919.86335     102002.7      46.7237      46.7237      46.7237 
  335000    91.161144   -8454.7182   -7887.3375   -741.25827     102002.7      46.7237      46.7237      46.7237 
  336000    89.545647    -8445.851   -7888.5251   -879.59239     102002.7      46.7237      46.7237      46.7237 
  337000    91.461052   -8475.0182   -7905.7709   -823.23324     102002.7      46.7237      46.7237      46.7237 
  338000    91.863767   -8436.5031   -7864.7493   -977.02215     102002.7      46.7237      46.7237      46.7237 
  339000    90.436944   -8459.4052   -7896.5319   -749.88919     102002.7      46.7237      46.7237      46.7237 
  340000    91.382422   -8446.9333   -7878.1754   -709.87912     102002.7      46.7237      46.7237      46.7237 
  341000    93.324889   -8446.4188   -7865.5711   -962.44237     102002.7      46.7237      46.7237      46.7237 
  342000    88.478857    -8461.172   -7910.4856   -597.25584     102002.7      46.7237      46.7237      46.7237 
  343000    89.312771   -8452.5925   -7896.7159   -678.30013     102002.7      46.7237      46.7237      46.7237 
  344000      92.2047   -8451.1032   -7877.2274   -727.35173     102002.7      46.7237      46.7237      46.7237 
  345000    92.551243    -8449.748   -7873.7154   -793.45258     102002.7      46.7237      46.7237      46.7237 
  346000    91.374803   -8470.2539   -7901.5433   -733.68245     102002.7      46.7237      46.7237      46.7237 
  347000     90.69198   -8441.9683   -7877.5077    -861.2121     102002.7      46.7237      46.7237      46.7237 
  348000    92.214231   -8451.8972   -7877.9621   -887.21231     102002.7      46.7237      46.7237      46.7237 
  349000    90.555545    -8438.911   -7875.2995    -1030.692     102002.7      46.7237      46.7237      46.7237 
  350000    87.835908   -8442.2292   -7895.5445   -809.72642     102002.7      46.7237      46.7237      46.7237 
  351000    89.925357    -8445.434   -7885.7448   -867.29432     102002.7      46.7237      46.7237      46.7237 
  352000    89.680741   -8441.5554   -7883.3887   -629.28623     102002.7      46.7237      46.7237      46.7237 
  353000    92.619098   -8447.0205   -7870.5656   -508.22578     102002.7      46.7237      46.7237      46.7237 
  354000    92.283311   -8415.6313   -7841.2663   -966.19188     102002.7      46.7237      46.7237      46.7237 
  355000    93.159717   -8455.0094   -7875.1897   -688.05327     102002.7      46.7237      46.7237      46.7237 
  356000    92.654235   -8441.4591   -7864.7855   -1084.6369     102002.7      46.7237      46.7237      46.7237 
  357000    93.677283    -8440.811     -7857.77   -836.64219     102002.7      46.7237      46.7237      46.7237 
  358000    89.630791   -8445.3124   -7887.4565    -876.2437     102002.7      46.7237      46.7237      46.7237 
  359000    90.480363   -8446.7271   -7883.5836   -957.97162     102002.7      46.7237      46.7237      46.7237 
  360000    91.936984   -8435.2178   -7863.0083   -972.66194     102002.7      46.7237      46.7237      46.7237 
  361000    92.503665   -8438.5148   -7862.7784   -983.13403     102002.7      46.7237      46.7237      46.7237 
  362000    92.724054   -8437.7609   -7860.6527   -1022.0553     102002.7      46.7237      46.7237      46.7237 
  363000    90.790573   -8442.1521   -7877.0778   -743.49896     102002.7      46.7237      46.7237      46.7237 
  364000     91.04718   -8436.0277   -7869.3563    -722.2557     102002.7      46.7237      46.7237      46.7237 
  365000     92.18925    -8467.152   -7893.3724   -634.82959     102002.7      46.7237      46.7237      46.7237 
  366000    90.707958   -8451.7518   -7887.1916   -725.80621     102002.7      46.7237      46.7237      46.7237 
  367000    90.655087   -8450.0854   -7885.8543   -552.28152     102002.7      46.7237      46.7237      46.7237 
  368000    92.469893   -8432.6798   -7857.1535   -516.93485     102002.7      46.7237      46.7237      46.7237 
  369000    90.382687   -8434.0444   -7871.5088   -781.41261     102002.7      46.7237      46.7237      46.7237 
  370000    88.681042   -8440.2109   -7888.2662   -550.04678     102002.7      46.7237      46.7237      46.7237 
  371000    92.016021   -8450.9992   -7878.2978   -749.82661     102002.7      46.7237      46.7237      46.7237 
  372000    90.676152   -8444.0935   -7879.7313   -442.04396     102002.7      46.7237      46.7237      46.7237 
  373000    92.798796   -8435.3692   -7857.7959   -359.46946     102002.7      46.7237      46.7237      46.7237 
  374000    89.112976   -8454.4283   -7899.7952   -564.67179     102002.7      46.7237      46.7237      46.7237 
  375000    91.798266   -8440.3819   -7869.0358   -299.95438     102002.7      46.7237      46.7237      46.7237 
  376000    91.037904   -8443.4344   -7876.8207   -560.97991     102002.7      46.7237      46.7237      46.7237 
  377000    93.654823    -8434.608   -7851.7068   -797.19004     102002.7      46.7237      46.7237      46.7237 
  378000     91.64686   -8446.0306   -7875.6269   -599.02455     102002.7      46.7237      46.7237      46.7237 
  379000    89.932357   -8450.5469   -7890.8141   -577.31389     102002.7      46.7237      46.7237      46.7237 
  380000    95.224482   -8443.3207   -7850.6501   -697.20592     102002.7      46.7237      46.7237      46.7237 
  381000    89.401166   -8456.4058   -7899.9791   -746.73274     102002.7      46.7237      46.7237      46.7237 
  382000    93.455818   -8444.2783   -7862.6157   -843.45626     102002.7      46.7237      46.7237      46.7237 
  383000    87.164454    -8426.072   -7883.5664   -798.88463     102002.7      46.7237      46.7237      46.7237 
  384000    89.712805   -8441.2146   -7882.8483    -698.6463     102002.7      46.7237      46.7237      46.7237 
  385000    88.128184   -8441.1695   -7892.6658   -603.78754     102002.7      46.7237      46.7237      46.7237 
  386000     92.18956   -8419.5487   -7845.7672   -785.59372     102002.7      46.7237      46.7237      46.7237 
  387000    92.487208   -8458.0055   -7882.3714   -796.76246     102002.7      46.7237      46.7237      46.7237 
  388000    90.353524   -8440.6461   -7878.2919   -563.71357     102002.7      46.7237      46.7237      46.7237 
  389000    91.639913   -8425.6181   -7855.2576   -857.84981     102002.7      46.7237      46.7237      46.7237 
  390000    92.716345   -8461.5056   -7884.4454   -890.39561     102002.7      46.7237      46.7237      46.7237 
  391000    87.957919    -8419.064     -7871.62   -738.94629     102002.7      46.7237      46.7237      46.7237 
  392000    93.300415   -8433.4206   -7852.7252   -900.38463     102002.7      46.7237      46.7237      46.7237 
  393000    89.533802   -8441.5631   -7884.3109   -861.21032     102002.7      46.7237      46.7237      46.7237 
  394000    89.053068   -8423.6478   -7869.3876   -790.01967     102002.7      46.7237      46.7237      46.7237 
  395000      94.3303   -8448.1509   -7861.0456   -963.82354     102002.7      46.7237      46.7237      46.7237 
  396000    89.383866   -8441.6592   -7885.3402   -766.60405     102002.7      46.7237      46.7237      46.7237 
  397000    90.202039   -8462.1752   -7900.7639   -956.14902     102002.7      46.7237      46.7237      46.7237 
  398000    89.942675   -8446.3609   -7886.5639   -653.50362     102002.7      46.7237      46.7237      46.7237 
  399000    91.061989   -8427.5992   -7860.8356   -1018.1298     102002.7      46.7237      46.7237      46.7237 
  400000    92.048472   -8439.3853   -7866.4819   -884.90632     102002.7      46.7237      46.7237      46.7237 
  401000    91.910983   -8438.2441   -7866.1964   -817.75457     102002.7      46.7237      46.7237      46.7237 
  402000    91.867346   -8434.2975   -7862.5214   -849.55989     102002.7      46.7237      46.7237      46.7237 
  403000    90.199376   -8446.9956   -7885.6009   -557.58075     102002.7      46.7237      46.7237      46.7237 
  404000    90.546703   -8447.0705    -7883.514   -714.35493     102002.7      46.7237      46.7237      46.7237 
  405000     88.06541   -8446.1311   -7898.0181   -615.75578     102002.7      46.7237      46.7237      46.7237 
  406000    88.598789   -8456.7377   -7905.3049   -355.68553     102002.7      46.7237      46.7237      46.7237 
  407000     90.83872   -8440.5997   -7875.2257   -552.02753     102002.7      46.7237      46.7237      46.7237 
  408000    93.024184    -8442.563   -7863.5869    -589.1838     102002.7      46.7237      46.7237      46.7237 
  409000    92.567198   -8453.1273   -7876.9955   -633.02867     102002.7      46.7237      46.7237      46.7237 
  410000    90.419879   -8437.8354   -7875.0683   -663.25407     102002.7      46.7237      46.7237      46.7237 
  411000    89.766157   -8441.7312   -7883.0328   -740.01937     102002.7      46.7237      46.7237      46.7237 
  412000    92.117456   -8453.6972   -7880.3645   -499.44428     102002.7      46.7237      46.7237      46.7237 
  413000    91.205542   -8459.8384   -7892.1813   -646.54949     102002.7      46.7237      46.7237      46.7237 
  414000    91.127309   -8437.4021    -7870.232   -909.43221     102002.7      46.7237      46.7237      46.7237 
  415000    91.554448   -8450.9354   -7881.1068   -763.05941     102002.7      46.7237      46.7237      46.7237 
  416000    88.506024   -8434.4864    -7883.631   -993.89977     102002.7      46.7237      46.7237      46.7237 
  417000    91.082503   -8458.2466   -7891.3554   -904.39824     102002.7      46.7237      46.7237      46.7237 
  418000    91.139052   -8434.6645   -7867.4213   -804.81983     102002.7      46.7237      46.7237      46.7237 
  419000    91.962232   -8438.1523   -7865.7857   -1328.2478     102002.7      46.7237      46.7237      46.7237 
  420000    92.103351   -8438.0127   -7864.7678   -721.43432     102002.7      46.7237      46.7237      46.7237 
  421000    91.816742   -8451.1973   -7879.7362   -940.11848     102002.7      46.7237      46.7237      46.7237 
  422000    91.090647   -8447.4018   -7880.4599   -853.84162     102002.7      46.7237      46.7237      46.7237 
  423000    91.548409   -8460.5695   -7890.7785   -501.55664     102002.7      46.7237      46.7237      46.7237 
  424000    92.813572   -8453.9813    -7876.316   -731.95574     102002.7      46.7237      46.7237      46.7237 
  425000    89.861274   -8452.5321   -7893.2417   -724.35882     102002.7      46.7237      46.7237      46.7237 
  426000     91.47783   -8440.2216   -7870.8699   -445.83718     102002.7      46.7237      46.7237      46.7237 
  427000    90.665574   -8451.5758   -7887.2794   -727.79421     102002.7      46.7237      46.7237      46.7237 
  428000    90.061512   -8462.4112   -7901.8745   -780.51664     102002.7      46.7237      46.7237      46.7237 
  429000    90.161473   -8453.3319   -7892.1731   -878.00809     102002.7      46.7237      46.7237      46.7237 
  430000    90.232714   -8441.2023   -7879.6001   -986.28197     102002.7      46.7237      46.7237      46.7237 
  431000     89.78538   -8459.4686   -7900.6505   -689.51765     102002.7      46.7237      46.7237      46.7237 
  432000     94.11929   -8447.0365   -7861.2445   -922.52163     102002.7      46.7237      46.7237      46.7237 
  433000    91.133222   -8462.3991   -7895.1922   -511.20429     102002.7      46.7237      46.7237      46.7237 
  434000     93.15476   -8445.6736   -7865.8848    -966.3829     102002.7      46.7237      46.7237      46.7237 
  435000    92.577749   -8441.2043   -7865.0068   -1072.6793     102002.7      46.7237      46.7237      46.7237 
  436000    93.157695    -8459.793   -7879.9859   -645.38223     102002.7      46.7237      46.7237      46.7237 
  437000    88.488616   -8466.7022   -7915.9551    -915.0618     102002.7      46.7237      46.7237      46.7237 
  438000    90.148917   -8433.7106   -7872.6299    -619.6877     102002.7      46.7237      46.7237      46.7237 
  439000    92.712898   -8446.6157    -7869.577   -627.85306     102002.7      46.7237      46.7237      46.7237 
  440000    92.883861   -8452.4282   -7874.3254   -746.73882     102002.7      46.7237      46.7237      46.7237 
  441000    89.183012   -8463.8241   -7908.7551   -843.92828     102002.7      46.7237      46.7237      46.7237 
  442000    90.020947   -8464.9441   -7904.6599   -804.27429     102002.7      46.7237      46.7237      46.7237 
  443000    91.273306    -8448.306   -7880.2272   -820.03349     102002.7      46.7237      46.7237      46.7237 
  444000    92.711188   -8456.2768   -7879.2487   -874.21736     102002.7      46.7237      46.7237      46.7237 
  445000    92.092258   -8460.7865   -7887.6106   -937.45203     102002.7      46.7237      46.7237      46.7237 
  446000    89.442709   -8437.5494   -7880.8641   -678.99397     102002.7      46.7237      46.7237      46.7237 
  447000    90.658929   -8455.3405   -7891.0856   -1133.8991     102002.7      46.7237      46.7237      46.7237 
  448000    89.154962   -8451.9944      -7897.1   -877.82953     102002.7      46.7237      46.7237      46.7237 
  449000    90.623329   -8455.2507   -7891.2174    -844.8953     102002.7      46.7237      46.7237      46.7237 
  450000    94.005566   -8449.1452    -7864.061      -829.28     102002.7      46.7237      46.7237      46.7237 
  451000    89.858193   -8440.9443   -7881.6731   -809.90977     102002.7      46.7237      46.7237      46.7237 
  452000    92.791301   -8464.6819   -7887.1552   -848.74978     102002.7      46.7237      46.7237      46.7237 
  453000    89.813889    -8467.446   -7908.4505   -607.65869     102002.7      46.7237      46.7237      46.7237 
  454000    89.739886   -8437.6867   -7879.1518   -799.33555     102002.7      46.7237      46.7237      46.7237 
  455000    91.274169   -8430.7607   -7862.6765   -716.87267     102002.7      46.7237      46.7237      46.7237 
  456000    90.739377   -8449.9085   -7885.1528   -764.23696     102002.7      46.7237      46.7237      46.7237 
  457000     90.87952   -8456.4648   -7890.8369   -893.81659     102002.7      46.7237      46.7237      46.7237 
  458000    87.812812   -8444.9763   -7898.4354   -591.76708     102002.7      46.7237      46.7237      46.7237 
  459000    89.778318   -8437.8661    -7879.092   -942.35724     102002.7      46.7237      46.7237      46.7237 
  460000    90.429815   -8451.6774   -7888.8484   -853.30443     102002.7      46.7237      46.7237      46.7237 
  461000    88.442718   -8476.2389   -7925.7775   -994.65238     102002.7      46.7237      46.7237      46.7237 
  462000     92.28057     -8458.46   -7884.1121   -795.40171     102002.7      46.7237      46.7237      46.7237 
  463000    90.773994   -8434.7267   -7869.7556   -796.88504     102002.7      46.7237      46.7237      46.7237 
  464000    93.871445   -8457.4404    -7873.191   -926.07273     102002.7      46.7237      46.7237      46.7237 
  465000    91.728357   -8454.7661   -7883.8551   -918.90164     102002.7      46.7237      46.7237      46.7237 
  466000    89.468246   -8467.6926   -7910.8484   -611.49032     102002.7      46.7237      46.7237      46.7237 
  467000    90.532212   -8465.2075   -7901.7412   -908.80382     102002.7      46.7237      46.7237      46.7237 
  468000    93.993397   -8439.3934   -7854.3849   -864.72099     102002.7      46.7237      46.7237      46.7237 
  469000    91.760024    -8463.477   -7892.3689   -897.36799     102002.7      46.7237      46.7237      46.7237 
  470000    91.408686   -8442.2803   -7873.3589   -926.91178     102002.7      46.7237      46.7237      46.7237 
  471000    93.389401   -8461.5518   -7880.3026   -888.56552     102002.7      46.7237      46.7237      46.7237 
  472000    87.546936   -8464.6473   -7919.7611   -734.33799     102002.7      46.7237      46.7237      46.7237 
  473000    92.428384   -8461.0364   -7885.7685   -1030.4014     102002.7      46.7237      46.7237      46.7237 
  474000    91.457643   -8438.0088   -7868.7828   -606.65204     102002.7      46.7237      46.7237      46.7237 
  475000    88.837414   -8456.7197   -7903.8017   -613.78707     102002.7      46.7237      46.7237      46.7237 
  476000    91.019632   -8458.2314   -7891.7315   -598.45501     102002.7      46.7237      46.7237      46.7237 
  477000    93.630421   -8459.7161   -7876.9668   -560.15203     102002.7      46.7237      46.7237      46.7237 
  478000    91.112244   -8474.2885   -7907.2122   -693.49999     102002.7      46.7237      46.7237      46.7237 
  479000     91.12578    -8437.764   -7870.6034   -877.89672     102002.7      46.7237      46.7237      46.7237 
  480000     92.18462    -8455.304   -7881.5533   -519.05241     102002.7      46.7237      46.7237      46.7237 
  481000    90.799088   -8478.5597   -7913.4324    -440.2756     102002.7      46.7237      46.7237      46.7237 
  482000    91.863547   -8450.1716   -7878.4192   -782.11671     102002.7      46.7237      46.7237      46.7237 
  483000    93.175869   -8443.0803   -7863.1601   -623.88754     102002.7      46.7237      46.7237      46.7237 
  484000     89.57844   -8452.4569   -7894.9269   -721.62282     102002.7      46.7237      46.7237      46.7237 
  485000    89.338891    -8459.348   -7903.3089   -738.89707     102002.7      46.7237      46.7237      46.7237 
  486000    91.320826   -8442.8946     -7874.52    -913.7448     102002.7      46.7237      46.7237      46.7237 
  487000     91.30774   -8454.9847   -7886.6916   -796.95629     102002.7      46.7237      46.7237      46.7237 
  488000     92.89267   -8470.2701   -7892.1125   -764.19438     102002.7      46.7237      46.7237      46.7237 
  489000    91.281141   -8455.0632   -7886.9357   -607.41128     102002.7      46.7237      46.7237      46.7237 
  490000    90.752746   -8461.6485   -7896.8096   -810.26268     102002.7      46.7237      46.7237      46.7237 
  491000    93.554106   -8457.5723    -7875.298   -540.36088     102002.7      46.7237      46.7237      46.7237 
  492000    91.883289    -8449.776   -7877.9007   -561.73503     102002.7      46.7237      46.7237      46.7237 
  493000    88.788827   -8442.4146   -7889.7991   -915.70911     102002.7      46.7237      46.7237      46.7237 
  494000    90.655217   -8453.8462   -7889.6144   -944.72028     102002.7      46.7237      46.7237      46.7237 
  495000    91.880974   -8449.5987   -7877.7379   -437.32078     102002.7      46.7237      46.7237      46.7237 
  496000     93.99169   -8456.2095   -7871.2116   -692.23949     102002.7      46.7237      46.7237      46.7237 
  497000    91.537308   -8449.9132   -7880.1913   -612.94298     102002.7      46.7237      46.7237      46.7237 
  498000    91.857818   -8453.0532   -7881.3365   -639.86069     102002.7      46.7237      46.7237      46.7237 
  499000    92.813727   -8442.0528   -7864.3866   -576.70133     102002.7      46.7237      46.7237      46.7237 
  500000    91.686064   -8434.3967   -7863.7489   -604.67539     102002.7      46.7237      46.7237      46.7237 
  500501    91.424522   -8452.0348   -7883.0148   -766.25114     102002.7      46.7237      46.7237      46.7237 
Loop time of 1419.17 on 16 procs for 500000 steps with 2089 atoms

Performance: 30.440 ns/day, 0.788 hours/ns, 352.318 timesteps/s
99.8% CPU use with 16 MPI tasks x no OpenMP threads

MPI task timing breakdown:
Section |  min time  |  avg time  |  max time  |%varavg| %total
---------------------------------------------------------------
Pair    | 563.43     | 783.78     | 1015.4     | 530.1 | 55.23
Bond    | 167.8      | 174.43     | 186.08     |  41.9 | 12.29
Neigh   | 6.6365     | 6.6708     | 6.6922     |   0.7 |  0.47
Comm    | 201.54     | 440.19     | 660.16     | 717.6 | 31.02
Output  | 0.020619   | 0.021115   | 0.024553   |   0.6 |  0.00
Modify  | 7.7277     | 8.5521     | 9.1584     |  15.0 |  0.60
Other   |            | 5.536      |            |       |  0.39

Nlocal:    130.562 ave 162 max 105 min
Histogram: 1 2 3 0 4 2 1 1 1 1
Nghost:    2613.25 ave 2635 max 2579 min
Histogram: 1 0 2 1 0 3 2 3 2 2
Neighs:    11467.9 ave 16342 max 7181 min
Histogram: 3 3 1 1 1 1 1 2 0 3

Total # of neighbors = 183486
Ave neighs/atom = 87.8344
Ave special neighs/atom = 5.5146
Neighbor list builds = 3884
Dangerous builds = 0
Neighbor list info ...
  update every 1 steps, delay 10 steps, check yes
  max neighbors/atom: 2000, page size: 100000
  master list distance cutoff = 16
  ghost atom cutoff = 16
  binsize = 8, bins = 6 6 6
  3 neighbor lists, perpetual/occasional/extra = 3 0 0
  (1) pair buck6d/coul/gauss/dsf, perpetual, skip from (3)
      attributes: half, newton on
      pair build: skip
      stencil: none
      bin: none
  (2) pair lj/cut, perpetual, skip from (3)
      attributes: half, newton on
      pair build: skip
      stencil: none
      bin: none
  (3) neighbor class addition, perpetual
      attributes: half, newton on
      pair build: half/bin/newton
      stencil: half/bin/3d/newton
      bin: standard
Setting up Verlet run ...
  Unit style    : real
  Current step  : 500501
  Time step     : 1
WARNING: Inconsistent image flags (../domain.cpp:786)
Per MPI rank memory allocation (min/avg/max) = 23.17 | 23.33 | 23.36 Mbytes
Step Time TotEng KinEng PotEng E_mol E_pair Temp Pxx Pyy Pzz Pxy Pxz Pyz Cella Cellb Cellc CellAlpha CellBeta CellGamma Volume Press 
  500501       500000   -7883.0148    569.01995   -8452.0348     4208.512   -12660.547    91.424522    -539.6175   -1200.8526   -558.28337    10.721838   -90.523194     158.2262      46.7237      46.7237      46.7237           90           90           90     102002.7   -766.25114 
  501000       500499   -7900.9004    550.36756    -8451.268    4200.6653   -12651.933     88.42764   -544.98341   -883.64299   -1198.2893   -16.551685   -41.996029    6.3735131      46.7237      46.7237      46.7237           90           90           90     102002.7   -875.63856 
  502000       501499   -7891.4126    557.41446    -8448.827     4198.576   -12647.403    89.559866   -518.91391   -887.05187   -638.32923   -62.448615      268.717    -109.9499      46.7237      46.7237      46.7237           90           90           90     102002.7   -681.43167 
  503000       502499   -7880.8871     571.5621   -8452.4492    4208.1343   -12660.584    91.832969   -834.11601   -784.82791   -583.00731    105.21821   -168.18486    64.021178      46.7237      46.7237      46.7237           90           90           90     102002.7   -733.98374 
  504000       503499    -7872.038     566.7809   -8438.8189    4227.8795   -12666.698    91.064774   -1023.9686    -579.6392   -943.78946    191.21922   -70.590858   -77.426427      46.7237      46.7237      46.7237           90           90           90     102002.7   -849.13243 
  505000       504499   -7886.2489    562.19751   -8448.4464    4215.4491   -12663.896     90.32836   -1114.2046   -1058.9399   -1030.0514    80.439197    416.18333   -78.329821      46.7237      46.7237      46.7237           90           90           90     102002.7   -1067.7319 
  506000       505499   -7892.0599    565.78647   -8457.8464    4197.8153   -12655.662    90.904999   -1043.9106   -1189.7378   -792.20963    96.806621   -213.92406   -220.71409      46.7237      46.7237      46.7237           90           90           90     102002.7   -1008.6193 
  507000       506499   -7866.0624    585.29084   -8451.3533    4192.8792   -12644.233    94.038768   -1051.7198   -674.69075   -974.26617   -180.01076   -67.385091   -28.981558      46.7237      46.7237      46.7237           90           90           90     102002.7   -900.22556 
  508000       507499   -7892.9197    564.04873   -8456.9684    4193.0239   -12649.992    90.625795   -857.35699   -1245.1623   -694.23756   -167.62469 -0.036691074   -35.862842      46.7237      46.7237      46.7237           90           90           90     102002.7   -932.25227 
  509000       508499   -7918.2922    557.53467   -8475.8269    4185.9314   -12661.758    89.579181   -925.58843   -906.78304   -510.95285   -50.785914   -113.78495   -82.399987      46.7237      46.7237      46.7237           90           90           90     102002.7    -781.1081 
  510000       509499   -7898.6652    565.63739   -8464.3026    4206.0749   -12670.377    90.881045   -1121.9444   -608.87513   -740.92438    287.89941   -233.43795   -104.23613      46.7237      46.7237      46.7237           90           90           90     102002.7   -823.91464 
  511000       510499   -7892.6139    565.47296   -8458.0868    4211.9692   -12670.056    90.854626   -1330.0328   -824.24978   -768.32747   -48.757284    74.409859   -111.41381      46.7237      46.7237      46.7237           90           90           90     102002.7   -974.20334 
  512000       511499   -7878.4974    577.07022   -8455.5676    4195.3273   -12650.895     92.71796   -935.48432   -931.51954   -228.98176   -12.628118   -336.93912     70.59083      46.7237      46.7237      46.7237           90           90           90     102002.7   -698.66187 
  513000       512499   -7889.3576    570.22843   -8459.5861    4206.8137     -12666.4    91.618688   -699.04984   -996.27019   -1287.6572   -80.855089   -218.57858   -337.53548      46.7237      46.7237      46.7237           90           90           90     102002.7   -994.32575 
  514000       513499   -7911.5103    541.28509   -8452.7954    4186.8831   -12639.679    86.968358   -1012.4027   -573.89046   -890.99701   -26.009102    -163.8755    23.627156      46.7237      46.7237      46.7237           90           90           90     102002.7    -825.7634 
  515000       514499   -7882.0418    569.37714    -8451.419     4198.115   -12649.534    91.481911   -605.69392   -921.47047   -576.63997    42.723693   -50.065439    20.931722      46.7237      46.7237      46.7237           90           90           90     102002.7   -701.26812 
  516000       515499   -7909.0211    559.44566   -8468.4668    4182.5351   -12651.002     89.88622   -887.16578   -460.54862   -496.29755    142.76537   -56.758356    85.268689      46.7237      46.7237      46.7237           90           90           90     102002.7   -614.67065 
  517000       516499    -7912.552    551.65321   -8464.2052    4203.0126   -12667.218    88.634205   -1214.6139   -357.49971    -306.9031    89.403424    233.96533    56.475031      46.7237      46.7237      46.7237           90           90           90     102002.7    -626.3389 
  518000       517499   -7869.7003    568.30915   -8438.0095     4215.689   -12653.698    91.310317   -461.82142    -765.6511   -434.55698    23.930224   -218.22557    13.164452      46.7237      46.7237      46.7237           90           90           90     102002.7   -554.00983 
  519000       518499   -7881.9171     579.0887   -8461.0058    4191.0812   -12652.087     93.04227   -820.37238   -613.14063   -418.88927    12.629906    2.8735797    -179.1977      46.7237      46.7237      46.7237           90           90           90     102002.7   -617.46743 
  520000       519499    -7866.138    571.51802   -8437.6561    4219.5448   -12657.201    91.825887   -815.85896    -693.1636   -755.00987    161.02718    53.101495   -97.022267      46.7237      46.7237      46.7237           90           90           90     102002.7   -754.67748 
  521000       520499   -7886.9213    558.33717   -8445.2585    4206.3661   -12651.625    89.708117   -236.76457   -1021.0739   -590.00971    211.71605    165.47442   -98.665622      46.7237      46.7237      46.7237           90           90           90     102002.7   -615.94939 
  522000       521499   -7887.4135    548.04791   -8435.4615    4226.5652   -12662.027    88.054941   -612.06506   -868.59428   -363.45625    184.21112    134.59235     125.8661      46.7237      46.7237      46.7237           90           90           90     102002.7    -614.7052 
  523000       522499    -7849.747    570.88573   -8420.6327    4241.6152   -12662.248    91.724296   -844.76514   -421.75827   -893.64145   -96.236028    147.31514    263.59344      46.7237      46.7237      46.7237           90           90           90     102002.7   -720.05495 
  524000       523499   -7892.0676    561.08893   -8453.1565    4207.9566   -12661.113    90.150243   -974.06162   -923.78851    -622.0635   -92.000576   -94.158071    57.525123      46.7237      46.7237      46.7237           90           90           90     102002.7   -839.97121 
  525000       524499   -7897.8323    561.91027   -8459.7425    4206.7121   -12666.455    90.282209   -805.51294   -364.56636    -875.1072   -199.99683   -9.4366991    40.640094      46.7237      46.7237      46.7237           90           90           90     102002.7   -681.72884 
  526000       525499   -7885.8645    573.41815   -8459.2827    4201.5076    -12660.79    92.131181   -215.53542   -679.87084   -949.42219    104.89725     249.9461    65.794885      46.7237      46.7237      46.7237           90           90           90     102002.7   -614.94282 
  527000       526499   -7892.8596    574.55837    -8467.418    4205.1383   -12672.556     92.31438   -856.74033   -712.14133    -462.9194   -69.788248    -403.0043    42.260197      46.7237      46.7237      46.7237           90           90           90     102002.7   -677.26702 
  528000       527499   -7893.8404    567.23371   -8461.0741    4199.3897   -12660.464    91.137526   -1401.3044   -1058.0491   -547.27547   -92.664718   -64.989717    15.333705      46.7237      46.7237      46.7237           90           90           90     102002.7   -1002.2097 
  529000       528499   -7878.0404    573.02125   -8451.0616    4213.0471   -12664.109    92.067412   -591.70329   -640.92081   -784.45575  -0.43951713    130.68069    228.06342      46.7237      46.7237      46.7237           90           90           90     102002.7   -672.35995 
  530000       529499   -7865.2407     586.8735   -8452.1142    4207.1185   -12659.233    94.293054   -987.56396   -347.75313   -994.27429   -53.228062    149.36011    118.08083      46.7237      46.7237      46.7237           90           90           90     102002.7   -776.53046 
  531000       530499   -7902.9863    561.76346   -8464.7497    4182.1945   -12646.944     90.25862   -994.04124   -1143.7556   -483.30268    92.928801       48.175   -213.61465      46.7237      46.7237      46.7237           90           90           90     102002.7   -873.69985 
  532000       531499    -7878.105    563.48658   -8441.5916    4212.7683    -12654.36    90.535475   -714.04639    -621.6849   -418.83549   -245.95135    74.268834    14.324897      46.7237      46.7237      46.7237           90           90           90     102002.7   -584.85559 
  533000       532499   -7892.7789    576.05682   -8468.8358    4184.0079   -12652.844    92.555136   -1028.7036    -601.1184   -1159.9457    107.62575   -42.481712    40.682547      46.7237      46.7237      46.7237           90           90           90     102002.7   -929.92257 
  534000       533499   -7901.2542    567.21226   -8468.4665     4192.138   -12660.605    91.134079   -1305.9897   -973.41472   -346.07147     120.4713   -51.825332   -96.599114      46.7237      46.7237      46.7237           90           90           90     102002.7   -875.15865 
  535000       534499    -7882.274    556.45991   -8438.7339    4223.7908   -12662.525    89.406498   -775.76884   -975.39525   -867.37445   -85.606795   -87.875937   -226.88516      46.7237      46.7237      46.7237           90           90           90     102002.7   -872.84618 
  536000       535499   -7882.0402    553.59727   -8435.6374    4216.2611   -12651.899    88.946558   -404.30873   -864.79547   -830.04202    186.63694   -143.19245   -13.990091      46.7237      46.7237      46.7237           90           90           90     102002.7   -699.71541 
  537000       536499   -7884.1617    574.72364   -8458.8853    4194.3821   -12653.267    92.340935   -726.85994   -1036.5567   -781.19896     63.73868    260.82568    47.031833      46.7237      46.7237      46.7237           90           90           90     102002.7   -848.20521 
  538000       537499   -7904.0678    551.22112   -8455.2889    4214.8648   -12670.154    88.564781   -692.60789   -640.80255   -1025.3971    -33.18092   -173.53026    10.091401      46.7237      46.7237      46.7237           90           90           90     102002.7   -786.26918 
  539000       538499   -7875.6106    566.61417   -8442.2248    4205.8641   -12648.089    91.037985   -1010.0091   -490.85665   -1149.1766    330.43016   -113.42353    163.38015      46.7237      46.7237      46.7237           90           90           90     102002.7   -883.34744 
  540000       539499   -7901.1961     553.9365   -8455.1326    4205.4111   -12660.544    89.001062   -439.02712   -798.01741   -1084.7236    86.742247    -72.46659   -133.78267      46.7237      46.7237      46.7237           90           90           90     102002.7    -773.9227 
  541000       540499   -7872.0742     572.9374   -8445.0116    4209.7443   -12654.756     92.05394   -1309.4954   -835.47461   -1297.5506    -148.8166    19.587134   -94.341753      46.7237      46.7237      46.7237           90           90           90     102002.7   -1147.5069 
  542000       541499   -7914.4256    548.48974   -8462.9153    4203.6761   -12666.591     88.12593   -1123.1867   -799.47284   -826.85124     202.2931    362.55509    62.892079      46.7237      46.7237      46.7237           90           90           90     102002.7   -916.50358 
  543000       542499   -7863.6793     577.7187    -8441.398    4220.9875   -12662.385    92.822151    -738.6157   -933.58368   -673.13618    62.806735     125.1019    82.693492      46.7237      46.7237      46.7237           90           90           90     102002.7   -781.77852 
  544000       543499   -7866.1834    565.20453   -8431.3879    4223.1635   -12654.551    90.811497   -1224.1928   -985.35278   -1361.8429   -196.07849   -67.884909    87.302548      46.7237      46.7237      46.7237           90           90           90     102002.7   -1190.4628 
  545000       544499    -7859.661    580.52324   -8440.1842    4217.2519   -12657.436    93.272757   -942.63289   -1031.1021   -951.35741   -70.499974    86.542133   -174.12197      46.7237      46.7237      46.7237           90           90           90     102002.7   -975.03079 
  546000       545499    -7886.531    575.74533   -8462.2764    4185.5096   -12647.786    92.505089   -514.55009   -1055.0484   -703.14578     152.5155   -86.301471   -4.2794127      46.7237      46.7237      46.7237           90           90           90     102002.7   -757.58142 
  547000       546499   -7912.8697    550.93096   -8463.8007    4192.4474   -12656.248    88.518162   -513.29302   -672.28194   -594.94573   -187.13251    103.60066    286.47363      46.7237      46.7237      46.7237           90           90           90     102002.7    -593.5069 
  548000       547499   -7872.9707     553.5708   -8426.5415     4237.385   -12663.927    88.942304   -961.97521   -833.46008   -662.35861   -34.462071   -5.4360928    -117.3284      46.7237      46.7237      46.7237           90           90           90     102002.7   -819.26463 
  549000       548499   -7916.8191    553.96244   -8470.7815    4177.5851   -12648.367     89.00523   -621.10183   -981.47343   -915.79944    13.302713   -144.18753    41.297284      46.7237      46.7237      46.7237           90           90           90     102002.7   -839.45824 
  550000       549499   -7873.0522    556.21858   -8429.2708     4214.354   -12643.625    89.367723   -717.99003    -564.1596   -334.05829   -98.005189   -125.98522   -11.714103      46.7237      46.7237      46.7237           90           90           90     102002.7   -538.73597 
  551000       550499   -7894.5278    563.84199   -8458.3698     4189.063   -12647.433    90.592579   -813.79277   -541.53535    -512.6928   -68.004583    120.99603    190.16456      46.7237      46.7237      46.7237           90           90           90     102002.7   -622.67364 
  552000       551499   -7909.9577    568.96595   -8478.9237    4171.7051   -12650.629    91.415846   -490.37181   -882.13126   -890.23501   -76.167185    186.90433     95.98402      46.7237      46.7237      46.7237           90           90           90     102002.7   -754.24603 
  553000       552499   -7881.4265    566.94228   -8448.3688    4206.2722   -12654.641    91.090703   -693.02901   -887.55323   -311.74469   -19.740075   -174.01563     67.38983      46.7237      46.7237      46.7237           90           90           90     102002.7   -630.77564 
  554000       553499   -7871.8391    570.68272   -8442.5219    4198.7034   -12641.225     91.69168   -933.84467   -639.16041   -1088.9676    239.67687    122.96947   -89.996183      46.7237      46.7237      46.7237           90           90           90     102002.7   -887.32422 
  555000       554499   -7891.0633    553.61459   -8444.6779    4210.1774   -12654.855    88.949341   -1017.7392   -667.42404   -442.18805   -2.9448689    46.955416    26.916378      46.7237      46.7237      46.7237           90           90           90     102002.7   -709.11709 
[...]
  936000       935499   -7896.2249    558.61734   -8454.8423    4217.3006   -12672.143    89.753133   -1152.5532   -713.89187   -563.16931   -225.15715    -91.72894    38.181957      46.7237      46.7237      46.7237           90           90           90     102002.7   -809.87145 
  937000       936499    -7869.952    573.24052   -8443.1925    4227.8227   -12671.015    92.102641   -1278.4561    -871.2427   -1517.4074   -39.513773   -114.70831    196.80329      46.7237      46.7237      46.7237           90           90           90     102002.7   -1222.3687 
  938000       937499   -7887.5419    568.83421   -8456.3761    4211.5103   -12667.886    91.394679   -917.90238   -927.58845   -1059.4821   -280.58108      23.5493   -152.93996      46.7237      46.7237      46.7237           90           90           90     102002.7    -968.3243 
  939000       938499   -7907.0445     547.8483   -8454.8928    4206.2414   -12661.134     88.02287   -564.15988   -1088.5882   -977.19009    103.90522   -190.34266    68.844309      46.7237      46.7237      46.7237           90           90           90     102002.7   -876.64606 
  940000       939499   -7885.8676      567.155   -8453.0227    4205.9637   -12658.986     91.12488   -841.57089   -702.93867   -1024.7687     229.6675    198.95998    271.17617      46.7237      46.7237      46.7237           90           90           90     102002.7   -856.42609 
  941000       940499   -7867.6824    565.70161    -8433.384    4218.3744   -12651.758    90.891363   -837.32738   -880.28301   -733.87973    18.705411   -344.66216   -53.333798      46.7237      46.7237      46.7237           90           90           90     102002.7   -817.16337 
  942000       941499   -7866.7614    585.00595   -8451.7673     4195.267   -12647.034    93.992994   -1149.6954   -513.77699   -877.51581   -72.446097    5.8832846    -75.21814      46.7237      46.7237      46.7237           90           90           90     102002.7   -846.99607 
  943000       942499   -7882.7959    577.16003   -8459.9559    4203.2983   -12663.254     92.73239   -914.87705   -474.63935   -631.44306    203.50992    23.797969   -164.62316      46.7237      46.7237      46.7237           90           90           90     102002.7   -673.65315 
  944000       943499   -7899.5448     553.4035   -8452.9483    4196.4593   -12649.408    88.915424   -938.28421   -513.65067   -695.73362    -2.603072    371.91607   -145.31136      46.7237      46.7237      46.7237           90           90           90     102002.7    -715.8895 
  945000       944499   -7870.7969    583.29943   -8454.0964    4205.1395   -12659.236    93.718807   -765.86491    -416.0806    -1018.108    130.25191    217.34184    140.70535      46.7237      46.7237      46.7237           90           90           90     102002.7   -733.35116 
  946000       945499   -7897.3538    556.43973   -8453.7936    4181.6834   -12635.477    89.403256   -680.15036   -618.86542   -627.88246    -6.765351   -78.277487   -95.954596      46.7237      46.7237      46.7237           90           90           90     102002.7   -642.29941 
  947000       946499   -7860.2604    581.65965     -8441.92    4195.6388   -12637.559    93.455344   -732.23286   -523.99279   -539.53109     7.765528    21.565234    205.85432      46.7237      46.7237      46.7237           90           90           90     102002.7   -598.58558 
  948000       947499   -7903.1447    573.45303   -8476.5977    4181.8559   -12658.454    92.136786   -622.61266   -318.40824   -982.61745     -136.048   -71.257942    118.97615      46.7237      46.7237      46.7237           90           90           90     102002.7   -641.21278 
  949000       948499   -7905.9739    558.36896   -8464.3428    4186.9726   -12651.315    89.713226   -1154.3266   -378.02197   -624.44319     159.5029    160.38637    25.245854      46.7237      46.7237      46.7237           90           90           90     102002.7    -718.9306 
  950000       949499   -7880.3869    577.78796   -8458.1749    4190.4154    -12648.59    92.833279   -855.33174    -429.4942   -914.58249    -33.05123    108.37054    97.331806      46.7237      46.7237      46.7237           90           90           90     102002.7   -733.13614 
  951000       950499   -7837.4465    583.22383   -8420.6703     4220.832   -12641.502    93.706661    -782.2631   -689.48923   -877.51345    89.463113    93.799872   -150.49388      46.7237      46.7237      46.7237           90           90           90     102002.7    -783.0886 
  952000       951499   -7869.4184    561.69512   -8431.1135    4220.2045   -12651.318    90.247639   -1273.2021   -534.20869   -827.80936   -126.73121     48.98281   -30.060471      46.7237      46.7237      46.7237           90           90           90     102002.7   -878.40672 
  953000       952499   -7888.9108    551.23759   -8440.1484    4205.6818    -12645.83    88.567427   -1281.4467   -1109.2254   -893.36595   -132.25002   -133.03196    141.25921      46.7237      46.7237      46.7237           90           90           90     102002.7   -1094.6793 
  954000       953499   -7888.5642    563.34219   -8451.9064    4191.2493   -12643.156    90.512276   -1005.1892   -668.48603   -745.01386   -41.194996    94.887612    171.90938      46.7237      46.7237      46.7237           90           90           90     102002.7   -806.22971 
  955000       954499   -7862.2845    574.45342   -8436.7379    4222.2998   -12659.038    92.297517   -983.63871   -706.26736   -894.19515    107.93595   -108.69935   -109.96833      46.7237      46.7237      46.7237           90           90           90     102002.7   -861.36707 
  956000       955499   -7869.4228    558.79608   -8428.2188    4227.7815       -12656    89.781852   -811.41354   -875.78008   -718.68244   -114.08924   -180.04563    -73.49953      46.7237      46.7237      46.7237           90           90           90     102002.7   -801.95869 
  957000       956499   -7888.6608    561.00084   -8449.6617    4196.4522   -12646.114     90.13609   -736.44109   -1066.1665   -934.37369   -85.011155   -91.056383   -154.75119      46.7237      46.7237      46.7237           90           90           90     102002.7    -912.3271 
  958000       957499    -7852.564     585.2599   -8437.8239    4213.4005   -12651.224    94.033797   -793.90819   -838.92211   -758.22086    172.45782     55.96759    86.286857      46.7237      46.7237      46.7237           90           90           90     102002.7   -797.01705 
  959000       958499   -7890.0402    562.24735   -8452.2876    4201.8248   -12654.112    90.336367   -293.12583   -799.17726   -708.44469    -7.929454   -33.851587    158.25937      46.7237      46.7237      46.7237           90           90           90     102002.7   -600.24926 
  960000       959499   -7905.0965    553.56225   -8458.6587     4200.519   -12659.178     88.94093   -1025.1565   -1179.7768   -933.55569    151.39051   -54.593566   -96.415517      46.7237      46.7237      46.7237           90           90           90     102002.7    -1046.163 
  961000       960499   -7866.5269    583.30179   -8449.8287    4200.3715     -12650.2    93.719187    -1405.867   -763.35382   -869.76001    51.901847   -52.743775    29.672682      46.7237      46.7237      46.7237           90           90           90     102002.7   -1012.9936 
  962000       961499   -7888.6142    555.37207   -8443.9863    4219.6417   -12663.628    89.231714   -777.46304   -1128.1976   -932.98115   -51.763894    175.00546    80.444106      46.7237      46.7237      46.7237           90           90           90     102002.7   -946.21391 
  963000       962499   -7912.3224    563.97342   -8476.2958     4194.822   -12671.118    90.613695   -596.79507    -1037.686   -761.07511   -21.462076   -94.319227    273.76035      46.7237      46.7237      46.7237           90           90           90     102002.7   -798.51871 
  964000       963499   -7897.6139    575.79051   -8473.4044    4189.0174   -12662.422    92.512348   -828.79887    -1000.507   -707.04689   -83.014755   -161.30334    61.933357      46.7237      46.7237      46.7237           90           90           90     102002.7   -845.45092 
  965000       964499   -7904.6453    550.40828   -8455.0536    4201.0144   -12656.068    88.434183   -720.03009   -1022.2376   -803.64518   -14.598732    69.895045    50.073447      46.7237      46.7237      46.7237           90           90           90     102002.7   -848.63762 
  966000       965499   -7880.6678    571.93134   -8452.5991    4207.2008     -12659.8    91.892295   -747.35425   -477.78526   -785.26169    13.892078   -184.42865    109.65257      46.7237      46.7237      46.7237           90           90           90     102002.7   -670.13373 
  967000       966499   -7901.1809    553.23999   -8454.4209    4210.4686   -12664.889    88.889153   -822.24913   -1075.0883   -1046.3712    171.13759   -38.383415   -146.67857      46.7237      46.7237      46.7237           90           90           90     102002.7   -981.23622 
  968000       967499   -7864.6521    573.76154   -8438.4137    4225.4662    -12663.88    92.186353   -681.47925    -793.2347    -470.0525    83.062821   -117.17245   -148.38424      46.7237      46.7237      46.7237           90           90           90     102002.7   -648.25548 
  969000       968499   -7890.7023    557.45564   -8448.1579    4207.8998   -12656.058    89.566482    -745.3565   -763.83154   -865.99785   -20.374196   -10.658004   -49.504672      46.7237      46.7237      46.7237           90           90           90     102002.7   -791.72863 
  970000       969499   -7880.8103    566.41343   -8447.2238    4216.5294   -12663.753    91.005732   -665.37028   -758.96356   -638.66927   -68.719205    55.523927    168.09439      46.7237      46.7237      46.7237           90           90           90     102002.7    -687.6677 
  971000       970499   -7871.8898    576.94203   -8448.8318     4194.559   -12643.391    92.697363   -431.67782   -897.01362   -517.32035    91.197965   -119.21733   -43.843486      46.7237      46.7237      46.7237           90           90           90     102002.7   -615.33726 
  972000       971499   -7903.9404    572.93333   -8476.8737     4191.891   -12668.765    92.053285   -577.11635     -765.075   -572.67463    254.18251    49.857996    179.85353      46.7237      46.7237      46.7237           90           90           90     102002.7   -638.28866 
  973000       972499   -7896.9123    562.54218   -8459.4545    4189.8559    -12649.31    90.383737   -785.37611   -758.29057   -1018.2462    182.15665   -192.34293    118.70035      46.7237      46.7237      46.7237           90           90           90     102002.7   -853.97097 
  974000       973499   -7896.2139    567.82366   -8464.0375    4195.2855   -12659.323    91.232313   -768.06084   -1085.2681   -701.86918   -57.023229    57.693242   -24.024321      46.7237      46.7237      46.7237           90           90           90     102002.7   -851.73269 
  975000       974499   -7900.0858    556.46002   -8456.5458    4201.0039    -12657.55    89.406515   -1109.5986   -442.46373   -714.82436   -45.323283   -66.920975   -1.5902606      46.7237      46.7237      46.7237           90           90           90     102002.7    -755.6289 
  976000       975499   -7911.7947    542.48943   -8454.2842    4214.0928   -12668.377    87.161859   -617.94786   -995.41941   -523.00006   -148.36319   -72.467007    93.013214      46.7237      46.7237      46.7237           90           90           90     102002.7   -712.12244 
  977000       976499   -7888.9741    563.76865   -8452.7428    4188.4675    -12641.21    90.580795   -979.71822   -1021.9642   -901.75782    85.944391   -158.12067   -50.508783      46.7237      46.7237      46.7237           90           90           90     102002.7    -967.8134 
  978000       977499   -7878.9038    560.28367   -8439.1875    4208.8079   -12647.995    90.020863   -633.41332   -830.16526   -666.66208   -13.704245    -10.19421   -95.529842      46.7237      46.7237      46.7237           90           90           90     102002.7   -710.08022 
  979000       978499   -7865.3626    574.53815   -8439.9007    4228.8586   -12668.759    92.311132   -973.30822     -766.712   -1423.0982   -21.388512   -115.16055    263.28184      46.7237      46.7237      46.7237           90           90           90     102002.7   -1054.3728 
  980000       979499   -7887.7174    555.50892   -8443.2264    4213.9571   -12657.183    89.253702   -830.72758   -641.11061   -1262.3599    -136.1528   -138.80666    36.958023      46.7237      46.7237      46.7237           90           90           90     102002.7   -911.39936 
  981000       980499   -7896.2955    570.80278   -8467.0983    4196.4317    -12663.53     91.71097   -859.94368    -750.9436   -978.83729    188.64377    68.749523   -70.350322      46.7237      46.7237      46.7237           90           90           90     102002.7   -863.24152 
  982000       981499   -7884.0324    568.46361    -8452.496    4197.5222   -12650.018    91.335134   -776.35887   -804.71568   -625.08868   -47.120441    101.60618   -235.52997      46.7237      46.7237      46.7237           90           90           90     102002.7   -735.38774 
  983000       982499   -7896.2538    557.15762   -8453.4114    4207.7637   -12661.175    89.518599   -849.21736   -825.61525    -603.6075    58.016701    254.62638   -58.260878      46.7237      46.7237      46.7237           90           90           90     102002.7   -759.48004 
  984000       983499   -7898.8735    558.79508   -8457.6685     4210.226   -12667.895    89.781691   -786.96124   -832.59045   -905.32233   -136.24188    15.066489    18.156382      46.7237      46.7237      46.7237           90           90           90     102002.7   -841.62467 
  985000       984499   -7871.0653     580.6228   -8451.6881     4212.412     -12664.1    93.288754   -1055.5267   -854.27398   -680.15198      30.0611   -86.063821   -76.607814      46.7237      46.7237      46.7237           90           90           90     102002.7   -863.31756 
  986000       985499    -7877.081    585.57222   -8462.6532    4197.8398   -12660.493    94.083977   -1062.5101   -1023.0152   -1166.2527    342.88433    122.86372    165.84988      46.7237      46.7237      46.7237           90           90           90     102002.7    -1083.926 
  987000       986499    -7896.615    563.02556   -8459.6406    4198.3445   -12657.985    90.461403    -911.4101    -1076.234   -803.88284   -59.647047    36.425747    148.54694      46.7237      46.7237      46.7237           90           90           90     102002.7   -930.50897 
  988000       987499   -7900.6404    547.22825   -8447.8686    4208.3463   -12656.215    87.923246   -799.81392     -937.654   -650.14119   -9.7021725   -88.529729    24.528673      46.7237      46.7237      46.7237           90           90           90     102002.7    -795.8697 
  989000       988499   -7881.2038    575.20236   -8456.4061    4202.2028   -12658.609     92.41785   -765.57125   -676.73736   -729.28771   -47.000814   -25.897067    88.674299      46.7237      46.7237      46.7237           90           90           90     102002.7   -723.86544 
  990000       989499   -7881.4255    571.84562   -8453.2711    4207.0451   -12660.316    91.878522   -540.43399   -594.35024   -838.33282   -102.09512    189.42306    -101.5387      46.7237      46.7237      46.7237           90           90           90     102002.7   -657.70568 
  991000       990499   -7904.2368     542.6076   -8446.8444    4209.0371   -12655.881    87.180845   -522.43953   -708.76607   -505.08682    154.13735    167.87145    139.66936      46.7237      46.7237      46.7237           90           90           90     102002.7   -578.76414 
  992000       991499   -7866.9276    571.80016   -8438.7277    4212.2113   -12650.939    91.871218   -926.39535   -738.92445   -567.26172     -86.6557   -100.93742   -56.000508      46.7237      46.7237      46.7237           90           90           90     102002.7   -744.19384 
  993000       992499   -7894.2557    544.90266   -8439.1583    4219.0604   -12658.219    87.549592   -655.37625   -1147.7982   -486.66952   -221.72429   -115.80588   -132.16481      46.7237      46.7237      46.7237           90           90           90     102002.7   -763.28134 
  994000       993499   -7870.4389    580.51238   -8450.9512    4208.9393   -12659.891    93.271012   -745.88524   -772.73486   -813.49554   -171.79084    -167.6305     20.86194      46.7237      46.7237      46.7237           90           90           90     102002.7   -777.37188 
  995000       994499   -7930.9052    554.31584    -8485.221    4168.8569   -12654.078    89.062009   -858.39261   -770.39167   -421.13596    70.386617    95.490969   -77.751914      46.7237      46.7237      46.7237           90           90           90     102002.7   -683.30675 
  996000       995499   -7871.4727     570.3644   -8441.8371    4204.6256   -12646.463    91.640535   -612.33291   -702.97137   -661.78499   -26.561463   -8.0277966    106.81445      46.7237      46.7237      46.7237           90           90           90     102002.7   -659.02976 
  997000       996499   -7882.6958    568.80905   -8451.5048    4218.4946   -12669.999    91.390636   -399.59795   -1004.5076    -915.5657   -127.54634    20.884968   -52.748354      46.7237      46.7237      46.7237           90           90           90     102002.7   -773.22375 
  998000       997499   -7856.7696    572.33367   -8429.1033    4224.0958   -12653.199    91.956937   -767.68048   -1055.5966   -688.36904   -163.26441    201.01175    120.94467      46.7237      46.7237      46.7237           90           90           90     102002.7   -837.21539 
  999000       998499   -7867.2809    581.20752   -8448.4884    4210.7584   -12659.247      93.3827    -1206.123   -945.05514   -1028.8474   -31.714406    60.594391   -17.530013      46.7237      46.7237      46.7237           90           90           90     102002.7   -1060.0085 
 1000000       999499   -7885.6175    566.72789   -8452.3454    4214.9446    -12667.29    91.056257   -561.97366   -1001.6923   -895.19395    269.12905   -57.791204    197.79965      46.7237      46.7237      46.7237           90           90           90     102002.7   -819.61996 
 1000501      1000000   -7886.3129    566.86828   -8453.1812    4179.3509   -12632.532    91.078812   -415.09179   -779.95801    -795.8417    121.80471   -201.45106    251.51123      46.7237      46.7237      46.7237           90           90           90     102002.7    -663.6305 
Loop time of 1674.12 on 16 procs for 500000 steps with 2089 atoms

Performance: 25.805 ns/day, 0.930 hours/ns, 298.664 timesteps/s
99.8% CPU use with 16 MPI tasks x no OpenMP threads

MPI task timing breakdown:
Section |  min time  |  avg time  |  max time  |%varavg| %total
---------------------------------------------------------------
Pair    | 622.25     | 920.65     | 1229.4     | 695.1 | 54.99
Bond    | 166.92     | 183.67     | 204.11     | 105.7 | 10.97
Neigh   | 6.7509     | 6.7824     | 6.8052     |   0.7 |  0.41
Comm    | 206.51     | 534.36     | 845.16     | 969.3 | 31.92
Output  | 0.10457    | 0.11531    | 0.12091    |   1.7 |  0.01
Modify  | 22.258     | 22.964     | 23.615     |   8.6 |  1.37
Other   |            | 5.584      |            |       |  0.33

Nlocal:    130.562 ave 152 max 98 min
Histogram: 1 0 2 1 2 1 0 5 3 1
Nghost:    2619.62 ave 2659 max 2591 min
Histogram: 4 1 0 4 2 0 2 1 1 1
Neighs:    11461.7 ave 15932 max 6786 min
Histogram: 2 1 0 5 1 0 1 3 2 1

Total # of neighbors = 183387
Ave neighs/atom = 87.787
Ave special neighs/atom = 5.5146
Neighbor list builds = 3896
Dangerous builds = 0
Total wall time: 0:51:36
