LAMMPS (30 Mar 2018)
Reading data file ...
  orthogonal box = (0 0 0) to (46.7237 46.7237 46.7237)
  2 by 3 by 4 MPI processor grid
  reading atoms ...
  2040 atoms
  scanning bonds ...
  5 = max bonds/atom
  scanning angles ...
  10 = max angles/atom
  scanning dihedrals ...
  32 = max dihedrals/atom
  scanning impropers ...
  3 = max impropers/atom
  reading bonds ...
  2064 bonds
  reading angles ...
  3696 angles
  reading dihedrals ...
  6240 dihedrals
  reading impropers ...
  1008 impropers
Finding 1-2 1-3 1-4 neighbors ...
  special bond factors lj:   0          0          0         
  special bond factors coul: 0          0          0         
  5 = max # of 1-2 neighbors
  8 = max # of 1-3 neighbors
  20 = max # of 1-4 neighbors
  19 = max # of special neighbors
Finding 1-2 1-3 1-4 neighbors ...
  special bond factors lj:   0          0          1         
  special bond factors coul: 1          1          1         
  5 = max # of 1-2 neighbors
  8 = max # of 1-3 neighbors
  19 = max # of special neighbors
WARNING: Using 'neigh_modify every 1 delay 0 check yes' setting during minimization (../min.cpp:168)
Neighbor list info ...
  update every 1 steps, delay 0 steps, check yes
  max neighbors/atom: 2000, page size: 100000
  master list distance cutoff = 16
  ghost atom cutoff = 16
  binsize = 8, bins = 6 6 6
  3 neighbor lists, perpetual/occasional/extra = 3 0 0
  (1) pair buck6d/coul/gauss/dsf, perpetual, skip from (3)
      attributes: half, newton on
      pair build: skip
      stencil: none
      bin: none
  (2) pair lj/cut, perpetual, skip from (3)
      attributes: half, newton on
      pair build: skip
      stencil: none
      bin: none
  (3) neighbor class addition, perpetual
      attributes: half, newton on
      pair build: half/bin/newton
      stencil: half/bin/3d/newton
      bin: standard
Setting up cg style minimization ...
  Unit style    : real
  Current step  : 0
WARNING: Inconsistent image flags (../domain.cpp:786)
Per MPI rank memory allocation (min/avg/max) = 22.89 | 23.3 | 24.44 Mbytes
Step Temp E_pair E_mol TotEng Press 
       0            0    -12463.74    6482.8914   -5980.8486     6076.046 
     501            0     -12596.8    3734.9592   -8861.8404   -721.06313 
Loop time of 1.36114 on 24 procs for 501 steps with 2040 atoms

99.7% CPU use with 24 MPI tasks x no OpenMP threads

Minimization stats:
  Stopping criterion = max force evaluations
  Energy initial, next-to-last, final = 
        -5980.84856258     -8861.75581722     -8861.84035375
  Force two-norm initial, final = 2575.23 13.6721
  Force max component initial, final = 152.02 3.11493
  Final line search alpha, max atom move = 0.00325105 0.0101268
  Iterations, force evaluations = 501 1001

MPI task timing breakdown:
Section |  min time  |  avg time  |  max time  |%varavg| %total
---------------------------------------------------------------
Pair    | 0.44946    | 0.69175    | 0.91669    |  15.5 | 50.82
Bond    | 0.10998    | 0.15809    | 0.20123    |   5.5 | 11.61
Neigh   | 0.012075   | 0.013587   | 0.014295   |   0.7 |  1.00
Comm    | 0.20703    | 0.47452    | 0.71076    |  19.6 | 34.86
Output  | 0          | 0          | 0          |   0.0 |  0.00
Modify  | 0          | 0          | 0          |   0.0 |  0.00
Other   |            | 0.02319    |            |       |  1.70

Nlocal:    85 ave 108 max 68 min
Histogram: 3 1 1 7 3 2 3 3 0 1
Nghost:    2269.04 ave 2439 max 2175 min
Histogram: 15 1 0 0 0 0 0 0 1 7
Neighs:    7641.83 ave 11722 max 4847 min
Histogram: 5 2 2 6 1 1 0 5 1 1

Total # of neighbors = 183404
Ave neighs/atom = 89.9039
Ave special neighs/atom = 5.64706
Neighbor list builds = 15
Dangerous builds = 0
Neighbor list info ...
  update every 1 steps, delay 10 steps, check yes
  max neighbors/atom: 2000, page size: 100000
  master list distance cutoff = 16
  ghost atom cutoff = 16
  binsize = 8, bins = 6 6 6
  3 neighbor lists, perpetual/occasional/extra = 3 0 0
  (1) pair buck6d/coul/gauss/dsf, perpetual, skip from (3)
      attributes: half, newton on
      pair build: skip
      stencil: none
      bin: none
  (2) pair lj/cut, perpetual, skip from (3)
      attributes: half, newton on
      pair build: skip
      stencil: none
      bin: none
  (3) neighbor class addition, perpetual
      attributes: half, newton on
      pair build: half/bin/newton
      stencil: half/bin/3d/newton
      bin: standard
Setting up Verlet run ...
  Unit style    : real
  Current step  : 501
  Time step     : 1
WARNING: Inconsistent image flags (../domain.cpp:786)
Per MPI rank memory allocation (min/avg/max) = 22.54 | 22.72 | 23.31 Mbytes
Step Temp PotEng TotEng Press Volume Lx Ly Lz 
     501          110   -8861.8404   -8193.2745   -421.44687     102002.7      46.7237      46.7237      46.7237 
    1000    92.042918   -8252.1936   -7692.7686   -482.59578     102002.7      46.7237      46.7237      46.7237 
    2000     119.4893   -8195.2479   -7469.0072   -833.16901     102002.7      46.7237      46.7237      46.7237 
    3000    108.44332   -8131.2305   -7472.1259   -876.19699     102002.7      46.7237      46.7237      46.7237 
    4000     106.3169   -8149.4046   -7503.2241   -592.25442     102002.7      46.7237      46.7237      46.7237 
    5000    112.43227   -8173.7619   -7490.4129   -334.45983     102002.7      46.7237      46.7237      46.7237 
    6000    112.02205   -8148.0587    -7467.203   -937.60335     102002.7      46.7237      46.7237      46.7237 
    7000    108.53475   -8164.4388   -7504.7785   -823.81784     102002.7      46.7237      46.7237      46.7237 
    8000     107.1195   -8165.0703   -7514.0117   -758.68202     102002.7      46.7237      46.7237      46.7237 
    9000    110.11743   -8153.7578   -7484.4782   -839.99512     102002.7      46.7237      46.7237      46.7237 
   10000    110.92152   -8152.8982   -7478.7314   -1037.1098     102002.7      46.7237      46.7237      46.7237 
   11000    111.48634   -8170.4143   -7492.8146   -730.27019     102002.7      46.7237      46.7237      46.7237 
   12000    113.46921   -8171.0662   -7481.4149   -924.33374     102002.7      46.7237      46.7237      46.7237 
   13000    109.00847   -8134.4299   -7471.8904    -882.3401     102002.7      46.7237      46.7237      46.7237 
   14000    109.64505   -8155.1311   -7488.7226   -583.91368     102002.7      46.7237      46.7237      46.7237 
   15000    112.54328   -8145.3129   -7461.2893    -620.8308     102002.7      46.7237      46.7237      46.7237 
   16000    114.15391   -8164.5533   -7470.7405   -497.19143     102002.7      46.7237      46.7237      46.7237 
   17000    111.00154   -8167.8937   -7493.2406   -708.45755     102002.7      46.7237      46.7237      46.7237 
   18000    107.92553   -8156.4352   -7500.4777   -670.75399     102002.7      46.7237      46.7237      46.7237 
   19000    114.37313   -8170.8665   -7475.7213   -604.62159     102002.7      46.7237      46.7237      46.7237 
   20000    111.81996   -8162.2775   -7482.6501     -873.026     102002.7      46.7237      46.7237      46.7237 
   21000    110.71097     -8176.28    -7503.393   -832.61131     102002.7      46.7237      46.7237      46.7237 
   22000    107.84714   -8159.7842   -7504.3031   -608.02847     102002.7      46.7237      46.7237      46.7237 
   23000     109.5473   -8140.8774    -7475.063   -687.95057     102002.7      46.7237      46.7237      46.7237 
   24000    105.54397   -8154.6934   -7513.2107   -911.86818     102002.7      46.7237      46.7237      46.7237 
   25000    109.40357   -8149.6538    -7484.713    -654.8725     102002.7      46.7237      46.7237      46.7237 
   26000    111.73918   -8125.6735   -7446.5372   -830.33963     102002.7      46.7237      46.7237      46.7237 
   27000    111.77774   -8158.5711   -7479.2003   -777.33914     102002.7      46.7237      46.7237      46.7237 
   28000    112.34814   -8139.7997   -7456.9621   -766.50572     102002.7      46.7237      46.7237      46.7237 
   29000    111.55789   -8189.5519   -7511.5174   -767.02728     102002.7      46.7237      46.7237      46.7237 
   30000    109.20975   -8140.2069   -7476.4441   -602.63424     102002.7      46.7237      46.7237      46.7237 
   31000    106.96898   -8188.4628   -7538.3191   -892.74376     102002.7      46.7237      46.7237      46.7237 
   32000    111.91583   -8148.5282   -7468.3182   -778.69899     102002.7      46.7237      46.7237      46.7237 
   33000    110.03665   -8148.8558   -7480.0671   -1083.8019     102002.7      46.7237      46.7237      46.7237 
   34000    109.03148   -8154.6191   -7491.9397   -901.00803     102002.7      46.7237      46.7237      46.7237 
   35000     114.3711   -8166.1855   -7471.0527   -994.25569     102002.7      46.7237      46.7237      46.7237 
   36000    111.21223   -8148.8947   -7472.9611    -960.4827     102002.7      46.7237      46.7237      46.7237 
   37000    109.71327   -8140.8279   -7474.0047   -980.41795     102002.7      46.7237      46.7237      46.7237 
   38000    113.66373    -8125.172   -7434.3384   -962.71507     102002.7      46.7237      46.7237      46.7237 
   39000    114.09956   -8155.5127   -7462.0302   -601.44581     102002.7      46.7237      46.7237      46.7237 
   40000    109.70727    -8135.188   -7468.4013   -768.68082     102002.7      46.7237      46.7237      46.7237 
   41000    113.04687   -8143.2158   -7456.1315    -824.8084     102002.7      46.7237      46.7237      46.7237 
   42000     108.9054   -8165.8002   -7503.8871   -643.27732     102002.7      46.7237      46.7237      46.7237 
   43000    112.21441   -8146.8167   -7464.7919   -766.05313     102002.7      46.7237      46.7237      46.7237 
   44000    108.99987   -8161.5524   -7499.0652   -384.78054     102002.7      46.7237      46.7237      46.7237 
   45000    106.45318   -8162.1767   -7515.1679   -866.80456     102002.7      46.7237      46.7237      46.7237 
   46000    109.13402   -8144.8364   -7481.5338   -790.17247     102002.7      46.7237      46.7237      46.7237 
   47000    109.57512   -8156.7939   -7490.8103   -787.54668     102002.7      46.7237      46.7237      46.7237 
   48000    105.26057   -8156.9126   -7517.1524   -907.09875     102002.7      46.7237      46.7237      46.7237 
   49000    110.78202   -8147.8145   -7474.4956   -763.01871     102002.7      46.7237      46.7237      46.7237 
   50000    112.60928   -8150.4245   -7465.9997   -976.29245     102002.7      46.7237      46.7237      46.7237 
   51000    108.60235   -8170.2899   -7510.2188   -663.23943     102002.7      46.7237      46.7237      46.7237 
   52000    109.20533   -8150.7812   -7487.0453   -622.96134     102002.7      46.7237      46.7237      46.7237 
   53000    113.80474   -8132.4755   -7440.7849   -725.62995     102002.7      46.7237      46.7237      46.7237 
   54000     111.1438   -8160.0189   -7484.5011   -727.68347     102002.7      46.7237      46.7237      46.7237 
   55000    110.42645   -8167.3155   -7496.1577   -742.44975     102002.7      46.7237      46.7237      46.7237 
   56000    109.95062   -8139.4504   -7471.1846   -804.52985     102002.7      46.7237      46.7237      46.7237 
   57000    112.52447   -8151.5362   -7467.6269   -444.46928     102002.7      46.7237      46.7237      46.7237 
   58000    110.85797   -8163.0332   -7489.2527    -654.0423     102002.7      46.7237      46.7237      46.7237 
   59000    109.08896   -8148.6779   -7485.6492   -661.52531     102002.7      46.7237      46.7237      46.7237 
   60000    110.76325   -8168.4778    -7495.273   -561.98302     102002.7      46.7237      46.7237      46.7237 
   61000    109.47512   -8157.7509   -7492.3751    -915.7523     102002.7      46.7237      46.7237      46.7237 
   62000    112.78235   -8140.8186    -7455.342    -746.6009     102002.7      46.7237      46.7237      46.7237 
   63000     110.8597   -8136.4347   -7462.6436   -673.67949     102002.7      46.7237      46.7237      46.7237 
   64000    108.57449   -8164.2333   -7504.3315   -797.77195     102002.7      46.7237      46.7237      46.7237 
   65000    108.93486    -8154.523   -7492.4309   -802.91608     102002.7      46.7237      46.7237      46.7237 
   66000    111.54546   -8142.3946   -7464.4356    -835.1902     102002.7      46.7237      46.7237      46.7237 
   67000     110.1925   -8147.3949    -7477.659   -591.62698     102002.7      46.7237      46.7237      46.7237 
   68000    107.66257   -8153.4352   -7499.0759   -788.25637     102002.7      46.7237      46.7237      46.7237 
   69000    105.21703    -8157.934   -7518.4384   -809.28016     102002.7      46.7237      46.7237      46.7237 
   70000    109.27763   -8157.9046   -7493.7292   -728.26461     102002.7      46.7237      46.7237      46.7237 
   71000    107.96271   -8158.6063   -7502.4227    -1054.296     102002.7      46.7237      46.7237      46.7237 
   72000     109.6216   -8153.0016   -7486.7355   -738.87244     102002.7      46.7237      46.7237      46.7237 
   73000    108.27731   -8161.8925   -7503.7969   -1002.3791     102002.7      46.7237      46.7237      46.7237 
   74000    111.05559    -8133.485   -7458.5034   -816.40586     102002.7      46.7237      46.7237      46.7237 
   75000    111.37516   -8143.1687   -7466.2448   -896.03861     102002.7      46.7237      46.7237      46.7237 
   76000    113.65601   -8143.4449   -7452.6583   -1207.1436     102002.7      46.7237      46.7237      46.7237 
   77000    109.35325   -8138.2143   -7473.5793   -837.42559     102002.7      46.7237      46.7237      46.7237 
   78000    108.06443   -8135.5217     -7478.72   -992.38222     102002.7      46.7237      46.7237      46.7237 
   79000    110.30217   -8159.7223   -7489.3199   -733.07909     102002.7      46.7237      46.7237      46.7237 
   80000    110.53373     -8161.02   -7489.2102   -993.12423     102002.7      46.7237      46.7237      46.7237 
   81000    112.22961   -8142.7709   -7460.6538   -858.44897     102002.7      46.7237      46.7237      46.7237 
   82000    112.96037   -8149.5081   -7462.9495   -862.75987     102002.7      46.7237      46.7237      46.7237 
   83000    107.96282   -8173.0345   -7516.8503   -801.87817     102002.7      46.7237      46.7237      46.7237 
   84000    110.97213   -8177.0402   -7502.5658   -933.63345     102002.7      46.7237      46.7237      46.7237 
   85000    111.11306   -8150.6987   -7475.3678   -775.85824     102002.7      46.7237      46.7237      46.7237 
   86000     107.4784   -8165.2253   -7511.9853   -771.23071     102002.7      46.7237      46.7237      46.7237 
   87000    109.99844   -8146.0991   -7477.5427   -872.38145     102002.7      46.7237      46.7237      46.7237 
   88000    108.87288    -8140.448   -7478.7326   -707.20806     102002.7      46.7237      46.7237      46.7237 
   89000    114.57026   -8151.5747   -7455.2314    -1026.917     102002.7      46.7237      46.7237      46.7237 
   90000    111.06471    -8156.443    -7481.406   -679.08425     102002.7      46.7237      46.7237      46.7237 
   91000    109.38324   -8156.5552   -7491.7379   -786.62952     102002.7      46.7237      46.7237      46.7237 
   92000    109.41658   -8134.8222   -7469.8022   -536.05791     102002.7      46.7237      46.7237      46.7237 
   93000    109.23656   -8140.7568    -7476.831   -427.99389     102002.7      46.7237      46.7237      46.7237 
   94000     110.3614   -8161.0614   -7490.2989   -589.85514     102002.7      46.7237      46.7237      46.7237 
   95000    110.59263   -8140.2984   -7468.1306   -743.34814     102002.7      46.7237      46.7237      46.7237 
   96000    113.03849   -8160.1796   -7473.1462   -664.37646     102002.7      46.7237      46.7237      46.7237 
   97000    111.67367   -8152.9935   -7474.2553   -907.73846     102002.7      46.7237      46.7237      46.7237 
   98000    106.32583   -8135.9875   -7489.7528   -1069.8727     102002.7      46.7237      46.7237      46.7237 
   99000    111.07172   -8127.5622   -7452.4826   -879.52192     102002.7      46.7237      46.7237      46.7237 
  100000    109.51555   -8133.5198   -7467.8984   -575.87663     102002.7      46.7237      46.7237      46.7237 
  101000    109.47319   -8156.1577   -7490.7937   -540.13756     102002.7      46.7237      46.7237      46.7237 
  102000    107.92643   -8148.3805   -7492.4175    -875.2882     102002.7      46.7237      46.7237      46.7237 
  103000    109.97023   -8141.7582   -7473.3732   -633.40154     102002.7      46.7237      46.7237      46.7237 
  104000    110.10906    -8144.454   -7475.2253   -791.26604     102002.7      46.7237      46.7237      46.7237 
  105000     113.5219   -8150.8097   -7460.8381    -814.6509     102002.7      46.7237      46.7237      46.7237 
  106000    108.52055    -8124.181    -7464.607   -629.96047     102002.7      46.7237      46.7237      46.7237 
  107000    109.69144   -8166.6859   -7499.9954   -921.24401     102002.7      46.7237      46.7237      46.7237 
  108000    110.85533   -8150.3719   -7476.6075   -721.76025     102002.7      46.7237      46.7237      46.7237 
  109000    110.29699   -8163.2826   -7492.9116   -543.42889     102002.7      46.7237      46.7237      46.7237 
  110000    109.42507   -8134.6578   -7469.5863   -617.84895     102002.7      46.7237      46.7237      46.7237 
  111000    108.73968   -8157.3669   -7496.4611   -487.84313     102002.7      46.7237      46.7237      46.7237 
  112000    108.11241   -8129.1937   -7472.1004   -834.38747     102002.7      46.7237      46.7237      46.7237 
  113000    107.68496   -8145.1946   -7490.6992   -412.99882     102002.7      46.7237      46.7237      46.7237 
  114000    114.46713   -8164.0502   -7468.3336   -590.55907     102002.7      46.7237      46.7237      46.7237 
  115000     111.4715   -8175.0167   -7497.5072   -614.33278     102002.7      46.7237      46.7237      46.7237 
  116000    111.11743    -8149.833   -7474.4755   -658.81271     102002.7      46.7237      46.7237      46.7237 
  117000    114.18309   -8143.3588   -7449.3687   -721.37096     102002.7      46.7237      46.7237      46.7237 
  118000    109.54749   -8131.1655     -7465.35   -599.74709     102002.7      46.7237      46.7237      46.7237 
  119000    108.37497   -8184.3528   -7525.6636   -774.41749     102002.7      46.7237      46.7237      46.7237 
  120000     110.2785   -8160.9561   -7490.6975   -745.52693     102002.7      46.7237      46.7237      46.7237 
  121000    110.14158   -8151.3602   -7481.9338   -770.29422     102002.7      46.7237      46.7237      46.7237 
  122000    107.67059   -8153.1789   -7498.7709   -873.29137     102002.7      46.7237      46.7237      46.7237 
  123000    110.64706   -8175.5131   -7503.0144   -818.37733     102002.7      46.7237      46.7237      46.7237 
  124000     107.0734   -8157.0033   -7506.2249   -808.70411     102002.7      46.7237      46.7237      46.7237 
  125000    110.26617   -8155.3701   -7485.1864   -932.47432     102002.7      46.7237      46.7237      46.7237 
  126000     107.7369   -8147.8339   -7493.0229   -699.77026     102002.7      46.7237      46.7237      46.7237 
  127000    105.84481   -8154.5352   -7511.2241   -924.17367     102002.7      46.7237      46.7237      46.7237 
  128000    109.44155   -8155.8952   -7490.7235   -755.48692     102002.7      46.7237      46.7237      46.7237 
  129000    112.26475   -8177.7249   -7495.3941   -630.04224     102002.7      46.7237      46.7237      46.7237 
  130000    107.40711   -8161.8026   -7508.9959    -443.7544     102002.7      46.7237      46.7237      46.7237 
  131000    110.18871    -8157.017   -7487.3042   -546.93596     102002.7      46.7237      46.7237      46.7237 
  132000    110.27592   -8144.6617   -7474.4188   -659.34804     102002.7      46.7237      46.7237      46.7237 
  133000    111.88646   -8148.7687   -7468.7372   -546.96982     102002.7      46.7237      46.7237      46.7237 
  134000     107.3651   -8150.2628   -7497.7115   -610.57705     102002.7      46.7237      46.7237      46.7237 
  135000    111.39916   -8164.0571   -7486.9873   -691.19798     102002.7      46.7237      46.7237      46.7237 
  136000     107.4768   -8152.1803   -7498.9501   -703.56499     102002.7      46.7237      46.7237      46.7237 
  137000    113.08415   -8170.1936   -7482.8827   -655.94034     102002.7      46.7237      46.7237      46.7237 
  138000    111.33303    -8149.875   -7473.2072   -543.98542     102002.7      46.7237      46.7237      46.7237 
  139000    107.98361   -8140.2289   -7483.9184   -971.57589     102002.7      46.7237      46.7237      46.7237 
  140000    111.17673   -8171.3247   -7495.6068   -884.91389     102002.7      46.7237      46.7237      46.7237 
  141000    109.68508   -8127.4605   -7460.8086   -722.44254     102002.7      46.7237      46.7237      46.7237 
  142000    111.26183   -8154.6898   -7478.4547   -1139.0375     102002.7      46.7237      46.7237      46.7237 
  143000    109.48139   -8163.0217   -7497.6079   -733.09043     102002.7      46.7237      46.7237      46.7237 
  144000    110.57049   -8180.0759   -7508.0426   -829.29691     102002.7      46.7237      46.7237      46.7237 
  145000    111.76142   -8164.3343   -7485.0627   -820.07378     102002.7      46.7237      46.7237      46.7237 
  146000    107.22173     -8166.29   -7514.6101   -892.56216     102002.7      46.7237      46.7237      46.7237 
  147000    112.79935   -8179.8662   -7494.2862   -928.27315     102002.7      46.7237      46.7237      46.7237 
  148000    109.31615   -8140.2623   -7475.8527   -540.69951     102002.7      46.7237      46.7237      46.7237 
  149000      111.109   -8161.1264   -7485.8201   -1028.2875     102002.7      46.7237      46.7237      46.7237 
  150000    109.66225   -8162.5377   -7496.0246    -784.9065     102002.7      46.7237      46.7237      46.7237 
  151000    111.01557   -8150.1933   -7475.4549    -313.5626     102002.7      46.7237      46.7237      46.7237 
  152000    112.34144   -8156.4765   -7473.6797    -836.5325     102002.7      46.7237      46.7237      46.7237 
  153000    107.45412   -8164.8368   -7511.7444   -858.95244     102002.7      46.7237      46.7237      46.7237 
  154000    108.95505   -8172.0123   -7509.7975   -754.84102     102002.7      46.7237      46.7237      46.7237 
  155000     112.7199   -8155.0973   -7470.0002   -698.22832     102002.7      46.7237      46.7237      46.7237 
  156000    109.22524   -8155.8789   -7492.0219   -705.16543     102002.7      46.7237      46.7237      46.7237 
  157000     110.1914   -8169.5477   -7499.8186    -622.1533     102002.7      46.7237      46.7237      46.7237 
  158000    107.44883   -8179.8573   -7526.7971   -493.71699     102002.7      46.7237      46.7237      46.7237 
  159000    108.58209   -8163.7414   -7503.7934     -714.649     102002.7      46.7237      46.7237      46.7237 
  160000    110.41279    -8138.352   -7467.2772   -798.18963     102002.7      46.7237      46.7237      46.7237 
  161000    112.29391   -8157.1733   -7474.6653   -918.27521     102002.7      46.7237      46.7237      46.7237 
  162000    111.69282    -8156.809   -7477.9544   -812.77094     102002.7      46.7237      46.7237      46.7237 
  163000    110.47561   -8174.9652   -7503.5086   -887.60181     102002.7      46.7237      46.7237      46.7237 
  164000    106.62229   -8155.3434   -7507.3068   -907.98882     102002.7      46.7237      46.7237      46.7237 
  165000    110.27537   -8138.2432   -7468.0036   -815.40257     102002.7      46.7237      46.7237      46.7237 
  166000    107.93007   -8165.0493   -7509.0642   -862.58551     102002.7      46.7237      46.7237      46.7237 
  167000      109.943   -8154.7371   -7486.5177   -877.90085     102002.7      46.7237      46.7237      46.7237 
  168000    107.74944   -8147.4184   -7492.5312   -644.50165     102002.7      46.7237      46.7237      46.7237 
  169000    108.61139    -8158.526   -7498.3999    -837.8745     102002.7      46.7237      46.7237      46.7237 
  170000    107.15553   -8148.5719   -7497.2943   -829.02072     102002.7      46.7237      46.7237      46.7237 
  171000    108.26773   -8130.3178   -7472.2804    -610.1338     102002.7      46.7237      46.7237      46.7237 
  172000    108.06349   -8134.2103   -7477.4143    -500.0917     102002.7      46.7237      46.7237      46.7237 
  173000     108.5938   -8155.8698   -7495.8506   -905.35244     102002.7      46.7237      46.7237      46.7237 
  174000     107.7533   -8152.2521   -7497.3414    -528.3771     102002.7      46.7237      46.7237      46.7237 
  175000    110.10688   -8162.3401   -7493.1246   -741.10927     102002.7      46.7237      46.7237      46.7237 
  176000    108.56217   -8150.3483   -7490.5214   -525.38773     102002.7      46.7237      46.7237      46.7237 
  177000    107.72298   -8147.8979   -7493.1714   -579.62055     102002.7      46.7237      46.7237      46.7237 
  178000    108.00371   -8146.3232   -7489.8905   -774.56178     102002.7      46.7237      46.7237      46.7237 
  179000    107.38668   -8158.6193   -7505.9368   -448.64718     102002.7      46.7237      46.7237      46.7237 
  180000    109.95265   -8184.4513   -7516.1732   -608.27877     102002.7      46.7237      46.7237      46.7237 
  181000    110.14138   -8165.3353   -7495.9101   -789.45488     102002.7      46.7237      46.7237      46.7237 
  182000    111.13859   -8167.5184   -7492.0323   -602.56582     102002.7      46.7237      46.7237      46.7237 
  183000    107.93632   -8118.2252   -7462.2021   -1034.3209     102002.7      46.7237      46.7237      46.7237 
  184000    109.04379   -8171.2497   -7508.4955    -321.1966     102002.7      46.7237      46.7237      46.7237 
  185000    111.73682   -8174.3237   -7495.2017   -736.12355     102002.7      46.7237      46.7237      46.7237 
  186000     108.5727   -8173.9352   -7514.0443   -686.36481     102002.7      46.7237      46.7237      46.7237 
  187000    109.76646   -8166.3382   -7499.1917    -493.1178     102002.7      46.7237      46.7237      46.7237 
  188000    110.70597   -8136.5613   -7463.7046   -527.71705     102002.7      46.7237      46.7237      46.7237 
  189000    111.73672   -8172.3368   -7493.2153   -629.47811     102002.7      46.7237      46.7237      46.7237 
  190000    111.28631     -8168.05   -7491.6661   -520.66948     102002.7      46.7237      46.7237      46.7237 
  191000    108.68595   -8156.0275   -7495.4483   -670.29043     102002.7      46.7237      46.7237      46.7237 
  192000    108.70688   -8126.6454    -7465.939   -713.14172     102002.7      46.7237      46.7237      46.7237 
  193000    108.91222   -8174.4455    -7512.491    -757.1878     102002.7      46.7237      46.7237      46.7237 
  194000    108.95943   -8153.6947   -7491.4533   -937.53678     102002.7      46.7237      46.7237      46.7237 
  195000    107.73382   -8173.4609   -7518.6685   -638.43214     102002.7      46.7237      46.7237      46.7237 
  196000    109.34936   -8157.4002   -7492.7889   -700.89579     102002.7      46.7237      46.7237      46.7237 
  197000    109.80041   -8161.5218    -7494.169   -728.20063     102002.7      46.7237      46.7237      46.7237 
  198000    110.90164   -8147.4191   -7473.3731   -681.34345     102002.7      46.7237      46.7237      46.7237 
  199000    112.77892   -8178.5506   -7493.0948   -664.06627     102002.7      46.7237      46.7237      46.7237 
  200000    106.96373    -8170.646   -7520.5342   -1126.7008     102002.7      46.7237      46.7237      46.7237 
  201000    110.00309   -8154.6908   -7486.1062    -843.3973     102002.7      46.7237      46.7237      46.7237 
  202000    109.18917    -8128.102   -7464.4643   -881.17463     102002.7      46.7237      46.7237      46.7237 
  203000     109.3381   -8167.0819   -7502.5389   -620.70882     102002.7      46.7237      46.7237      46.7237 
  204000    109.15218   -8137.5014   -7474.0884    -750.2336     102002.7      46.7237      46.7237      46.7237 
  205000    108.12244   -8142.0883    -7484.934   -950.77238     102002.7      46.7237      46.7237      46.7237 
  206000    110.69455   -8159.9016   -7487.1143   -864.79894     102002.7      46.7237      46.7237      46.7237 
  207000    107.56022   -8141.3989   -7487.6617    -777.7449     102002.7      46.7237      46.7237      46.7237 
  208000    110.85565   -8132.5841   -7458.8177   -869.85854     102002.7      46.7237      46.7237      46.7237 
  209000    107.41245   -8147.0051    -7494.166   -445.05815     102002.7      46.7237      46.7237      46.7237 
  210000    110.46913   -8160.8855   -7489.4683   -896.18806     102002.7      46.7237      46.7237      46.7237 
  211000    108.54284   -8150.6279   -7490.9185   -402.95909     102002.7      46.7237      46.7237      46.7237 
  212000    106.79755   -8154.3319     -7505.23    -663.6244     102002.7      46.7237      46.7237      46.7237 
  213000    111.13099   -8138.3956   -7462.9557   -520.88538     102002.7      46.7237      46.7237      46.7237 
  214000    111.35378   -8173.9544   -7497.1604   -599.50853     102002.7      46.7237      46.7237      46.7237 
  215000    111.05329   -8138.8981   -7463.9305     -963.324     102002.7      46.7237      46.7237      46.7237 
  216000    109.09546   -8140.7635   -7477.6953   -1037.2236     102002.7      46.7237      46.7237      46.7237 
  217000    109.14134    -8162.916   -7499.5689   -883.22897     102002.7      46.7237      46.7237      46.7237 
  218000    111.25855   -8151.5289   -7475.3138   -1012.1872     102002.7      46.7237      46.7237      46.7237 
  219000    113.78218   -8140.1071   -7448.5536   -1017.6304     102002.7      46.7237      46.7237      46.7237 
  220000    109.61965   -8143.6557   -7477.4016   -1044.9278     102002.7      46.7237      46.7237      46.7237 
  221000    112.02968   -8152.3231    -7471.421   -828.84408     102002.7      46.7237      46.7237      46.7237 
  222000    109.79248   -8144.2526    -7476.948   -700.78238     102002.7      46.7237      46.7237      46.7237 
  223000     110.8981   -8176.7596   -7502.7352   -1091.4034     102002.7      46.7237      46.7237      46.7237 
  224000    110.44518   -8130.7258   -7459.4542   -1037.7787     102002.7      46.7237      46.7237      46.7237 
  225000    111.86971   -8130.4593   -7450.5295   -932.09796     102002.7      46.7237      46.7237      46.7237 
  226000     109.1228   -8144.1972   -7480.9628   -1092.3921     102002.7      46.7237      46.7237      46.7237 
  227000    110.69972   -8130.2912   -7457.4725   -748.97861     102002.7      46.7237      46.7237      46.7237 
  228000    107.80707   -8143.5673   -7488.3298    -1122.721     102002.7      46.7237      46.7237      46.7237 
  229000    111.56263   -8141.9472   -7463.8839   -1150.2634     102002.7      46.7237      46.7237      46.7237 
  230000    111.85135   -8156.3585   -7476.5403   -960.32363     102002.7      46.7237      46.7237      46.7237 
  231000    111.31696   -8143.8417   -7467.2715   -816.99109     102002.7      46.7237      46.7237      46.7237 
  232000     112.6417    -8139.031   -7454.4093   -1168.8701     102002.7      46.7237      46.7237      46.7237 
  233000    110.30741   -8145.1359   -7474.7016   -795.40487     102002.7      46.7237      46.7237      46.7237 
  234000    109.55352    -8150.629   -7484.7768   -879.96797     102002.7      46.7237      46.7237      46.7237 
  235000    110.91887   -8140.3582   -7466.2075   -679.96849     102002.7      46.7237      46.7237      46.7237 
  236000    108.16502   -8178.0398   -7520.6267   -890.93916     102002.7      46.7237      46.7237      46.7237 
  237000    108.46804   -8133.3101   -7474.0552    -819.5089     102002.7      46.7237      46.7237      46.7237 
  238000    113.16278   -8129.5652   -7441.7763   -1053.8133     102002.7      46.7237      46.7237      46.7237 
  239000    109.75886   -8143.5372   -7476.4369   -810.69005     102002.7      46.7237      46.7237      46.7237 
  240000    109.42887   -8144.5074   -7479.4128   -1263.5132     102002.7      46.7237      46.7237      46.7237 
  241000    111.38718   -8148.9587   -7471.9618   -786.35927     102002.7      46.7237      46.7237      46.7237 
  242000    111.23412   -8158.2996   -7482.2328   -971.76546     102002.7      46.7237      46.7237      46.7237 
  243000    106.74887   -8127.7785   -7478.9726   -1000.1183     102002.7      46.7237      46.7237      46.7237 
  244000    113.72217   -8142.9687     -7451.78   -964.36157     102002.7      46.7237      46.7237      46.7237 
  245000    109.19839   -8158.1816   -7494.4878   -993.47803     102002.7      46.7237      46.7237      46.7237 
  246000    104.09727   -8151.7281   -7519.0382   -946.80739     102002.7      46.7237      46.7237      46.7237 
  247000    111.65471   -8139.0197   -7460.3967   -771.75099     102002.7      46.7237      46.7237      46.7237 
  248000    109.90707   -8173.3681    -7505.367   -954.14762     102002.7      46.7237      46.7237      46.7237 
  249000     108.8366   -8155.8208   -7494.3259   -704.94482     102002.7      46.7237      46.7237      46.7237 
  250000    109.02077   -8138.0575   -7475.4432   -721.33865     102002.7      46.7237      46.7237      46.7237 
  251000    113.62919   -8173.2863   -7482.6627   -791.60692     102002.7      46.7237      46.7237      46.7237 
  252000     112.8401     -8148.12   -7462.2923   -875.28874     102002.7      46.7237      46.7237      46.7237 
  253000    108.89233    -8161.809   -7499.9754   -804.01031     102002.7      46.7237      46.7237      46.7237 
  254000    109.07556   -8148.5856   -7485.6384   -971.59408     102002.7      46.7237      46.7237      46.7237 
  255000    111.99027   -8152.5689   -7471.9064   -865.81881     102002.7      46.7237      46.7237      46.7237 
  256000    107.01956   -8173.6034   -7523.1523    -836.0307     102002.7      46.7237      46.7237      46.7237 
  257000     113.1138   -8155.6275   -7468.1364   -866.10343     102002.7      46.7237      46.7237      46.7237 
  258000    111.85438    -8161.808   -7481.9714   -725.61917     102002.7      46.7237      46.7237      46.7237 
  259000    110.27821   -8169.6362   -7499.3794   -752.50782     102002.7      46.7237      46.7237      46.7237 
  260000    108.19115   -8158.1406   -7500.5687   -689.54385     102002.7      46.7237      46.7237      46.7237 
  261000    110.71399     -8129.55   -7456.6445   -1137.4345     102002.7      46.7237      46.7237      46.7237 
  262000     110.9124   -8147.7687   -7473.6574   -880.09558     102002.7      46.7237      46.7237      46.7237 
  263000     110.9948   -8156.5143   -7481.9022   -779.66907     102002.7      46.7237      46.7237      46.7237 
  264000    109.69322   -8173.2409   -7506.5396   -685.12533     102002.7      46.7237      46.7237      46.7237 
  265000    110.18543   -8173.9042   -7504.2113   -991.17449     102002.7      46.7237      46.7237      46.7237 
  266000    110.16224   -8141.4952   -7471.9432   -639.26494     102002.7      46.7237      46.7237      46.7237 
  267000    108.28313   -8133.4125   -7475.2815   -769.52999     102002.7      46.7237      46.7237      46.7237 
  268000    109.77418   -8162.0286   -7494.8352   -911.76237     102002.7      46.7237      46.7237      46.7237 
  269000    113.61077    -8159.824   -7469.3123   -890.60522     102002.7      46.7237      46.7237      46.7237 
  270000    109.48732   -8107.2324   -7441.7825    -806.7255     102002.7      46.7237      46.7237      46.7237 
  271000    109.29536   -8162.7608   -7498.4776   -576.18912     102002.7      46.7237      46.7237      46.7237 
  272000    109.51836   -8171.1875    -7505.549   -915.04992     102002.7      46.7237      46.7237      46.7237 
  273000    111.18899   -8137.7241   -7461.9317   -832.55492     102002.7      46.7237      46.7237      46.7237 
  274000    109.96251   -8140.7873   -7472.4493   -673.23265     102002.7      46.7237      46.7237      46.7237 
  275000    110.13586   -8170.7835   -7501.3919   -787.22089     102002.7      46.7237      46.7237      46.7237 
  276000    112.92452   -8158.3834   -7472.0427   -844.31127     102002.7      46.7237      46.7237      46.7237 
  277000    103.38474   -8152.2625   -7523.9033   -821.73762     102002.7      46.7237      46.7237      46.7237 
  278000    108.70431   -8123.0394   -7462.3486   -1009.8527     102002.7      46.7237      46.7237      46.7237 
  279000    110.43285   -8165.0873   -7493.8906   -1013.3142     102002.7      46.7237      46.7237      46.7237 
  280000    107.63047   -8129.9228   -7475.7587   -842.82814     102002.7      46.7237      46.7237      46.7237 
  281000    108.46659   -8153.9008   -7494.6548   -785.56931     102002.7      46.7237      46.7237      46.7237 
  282000    110.90625   -8143.5459    -7469.472   -891.56325     102002.7      46.7237      46.7237      46.7237 
  283000    108.99908   -8139.8033   -7477.3209   -974.96527     102002.7      46.7237      46.7237      46.7237 
  284000    109.00459    -8178.689   -7516.1731   -918.67658     102002.7      46.7237      46.7237      46.7237 
  285000    110.26343   -8133.0172   -7462.8503   -865.94023     102002.7      46.7237      46.7237      46.7237 
  286000    109.10163   -8169.2537    -7506.148   -749.17595     102002.7      46.7237      46.7237      46.7237 
  287000     106.7433   -8151.3896   -7502.6176   -466.44022     102002.7      46.7237      46.7237      46.7237 
  288000    111.39078   -8177.8761   -7500.8573   -909.17373     102002.7      46.7237      46.7237      46.7237 
  289000    108.57262   -8135.8238   -7475.9333   -651.19081     102002.7      46.7237      46.7237      46.7237 
  290000    111.58153   -8147.4455   -7469.2673   -610.23264     102002.7      46.7237      46.7237      46.7237 
  291000    110.78466   -8169.0046   -7495.6697   -415.72879     102002.7      46.7237      46.7237      46.7237 
  292000     108.7208   -8130.6198   -7469.8287   -826.86547     102002.7      46.7237      46.7237      46.7237 
  293000    110.20696   -8140.2853   -7470.4615   -639.01633     102002.7      46.7237      46.7237      46.7237 
  294000    111.14538   -8146.7551   -7471.2278   -552.70788     102002.7      46.7237      46.7237      46.7237 
  295000    111.60925   -8150.9575   -7472.6108   -823.55103     102002.7      46.7237      46.7237      46.7237 
  296000    112.78979   -8154.1851   -7468.6633   -759.41344     102002.7      46.7237      46.7237      46.7237 
  297000     111.5794   -8147.2907   -7469.1254     -1151.95     102002.7      46.7237      46.7237      46.7237 
  298000     110.3945   -8170.3577   -7499.3941   -751.50468     102002.7      46.7237      46.7237      46.7237 
  299000    109.99485   -8146.0033   -7477.4687   -722.87105     102002.7      46.7237      46.7237      46.7237 
  300000    110.39777   -8158.2628   -7487.2793   -1094.6698     102002.7      46.7237      46.7237      46.7237 
  301000    109.21381     -8126.88   -7463.0924   -860.30235     102002.7      46.7237      46.7237      46.7237 
  302000    108.67714   -8127.8997   -7467.3739   -1024.3503     102002.7      46.7237      46.7237      46.7237 
  303000    107.37096   -8152.1838   -7499.5968   -614.57328     102002.7      46.7237      46.7237      46.7237 
  304000    116.01011   -8172.8567   -7467.7621   -660.18361     102002.7      46.7237      46.7237      46.7237 
  305000    109.66799    -8137.843    -7471.295   -949.48488     102002.7      46.7237      46.7237      46.7237 
  306000    108.91928   -8130.5531   -7468.5556   -572.71219     102002.7      46.7237      46.7237      46.7237 
  307000    108.04619    -8144.282   -7487.5911   -769.45184     102002.7      46.7237      46.7237      46.7237 
  308000    112.72177   -8151.6926   -7466.5842   -680.95116     102002.7      46.7237      46.7237      46.7237 
  309000    113.29623   -8124.0778   -7435.4779   -780.79662     102002.7      46.7237      46.7237      46.7237 
  310000    109.01512   -8136.2667   -7473.6868   -728.70878     102002.7      46.7237      46.7237      46.7237 
  311000    109.22702   -8150.3434   -7486.4756   -669.37102     102002.7      46.7237      46.7237      46.7237 
  312000    108.36538   -8137.4815   -7478.8506   -579.73617     102002.7      46.7237      46.7237      46.7237 
  313000    112.27649   -8123.1157   -7440.7136   -667.29429     102002.7      46.7237      46.7237      46.7237 
  314000    110.36668   -8159.8188   -7489.0243   -774.61751     102002.7      46.7237      46.7237      46.7237 
  315000    109.72938   -8144.9129   -7477.9918   -818.26124     102002.7      46.7237      46.7237      46.7237 
  316000    110.21157    -8130.276   -7460.4241   -922.39164     102002.7      46.7237      46.7237      46.7237 
  317000    108.84609   -8154.6229   -7493.0704   -636.63073     102002.7      46.7237      46.7237      46.7237 
  318000    106.90709   -8126.3018   -7476.5342   -782.30879     102002.7      46.7237      46.7237      46.7237 
  319000    107.27047   -8161.3734   -7509.3973   -864.95648     102002.7      46.7237      46.7237      46.7237 
  320000    105.99174   -8125.9481   -7481.7439   -784.42153     102002.7      46.7237      46.7237      46.7237 
  321000    110.23481   -8141.8062   -7471.8131   -898.40924     102002.7      46.7237      46.7237      46.7237 
  322000    108.43054    -8154.681   -7495.6541   -555.44041     102002.7      46.7237      46.7237      46.7237 
  323000    107.16356   -8141.9325   -7490.6061   -847.35862     102002.7      46.7237      46.7237      46.7237 
  324000    107.86155   -8178.1665   -7522.5979   -867.72196     102002.7      46.7237      46.7237      46.7237 
  325000    109.12973   -8171.1028   -7507.8263    -796.3385     102002.7      46.7237      46.7237      46.7237 
  326000    108.34042   -8143.1444   -7484.6652   -1120.8351     102002.7      46.7237      46.7237      46.7237 
  327000    109.72633   -8160.6421   -7493.7396   -937.90895     102002.7      46.7237      46.7237      46.7237 
  328000    114.83655   -8160.5091   -7462.5473   -709.19157     102002.7      46.7237      46.7237      46.7237 
  329000    110.98999    -8158.425   -7483.8421   -707.32758     102002.7      46.7237      46.7237      46.7237 
  330000    112.03403   -8153.1139   -7472.1855   -517.73887     102002.7      46.7237      46.7237      46.7237 
  331000     110.9101   -8158.2846   -7484.1873   -735.84831     102002.7      46.7237      46.7237      46.7237 
  332000    109.04036   -8169.5942   -7506.8609   -847.86972     102002.7      46.7237      46.7237      46.7237 
  333000     107.8487    -8151.134   -7495.6434   -706.34436     102002.7      46.7237      46.7237      46.7237 
  334000    107.71358   -8180.7242   -7526.0549   -801.87883     102002.7      46.7237      46.7237      46.7237 
  335000    109.65746   -8149.8342   -7483.3502   -891.40747     102002.7      46.7237      46.7237      46.7237 
  336000    111.19401   -8143.5311   -7467.7082   -607.35317     102002.7      46.7237      46.7237      46.7237 
  337000    110.71091    -8169.956   -7497.0693   -610.33352     102002.7      46.7237      46.7237      46.7237 
  338000    110.44794    -8140.682   -7469.3935   -438.50707     102002.7      46.7237      46.7237      46.7237 
  339000    113.00689    -8146.913   -7460.0716   -764.44363     102002.7      46.7237      46.7237      46.7237 
  340000    110.70919   -8177.6446   -7504.7683   -645.11914     102002.7      46.7237      46.7237      46.7237 
  341000    112.85024   -8172.5473    -7486.658   -600.19415     102002.7      46.7237      46.7237      46.7237 
  342000    106.53718   -8175.8827   -7528.3634   -582.02833     102002.7      46.7237      46.7237      46.7237 
  343000    109.81077   -8130.1327   -7462.7169    -581.2873     102002.7      46.7237      46.7237      46.7237 
  344000    109.26822    -8157.037   -7492.9188    -809.7071     102002.7      46.7237      46.7237      46.7237 
  345000    108.25512   -8152.0966   -7494.1359   -709.01513     102002.7      46.7237      46.7237      46.7237 
  346000    112.94123   -8142.2938   -7455.8515   -1038.8864     102002.7      46.7237      46.7237      46.7237 
  347000    111.35587   -8147.7328   -7470.9261   -756.89668     102002.7      46.7237      46.7237      46.7237 
  348000    110.52191   -8163.0238   -7491.2858   -704.68305     102002.7      46.7237      46.7237      46.7237 
  349000    111.48023   -8133.6414   -7456.0788   -497.96134     102002.7      46.7237      46.7237      46.7237 
  350000    110.29594   -8147.8522   -7477.4876    -845.5865     102002.7      46.7237      46.7237      46.7237 
  351000    107.69476   -8167.5328   -7512.9779   -1119.0439     102002.7      46.7237      46.7237      46.7237 
  352000    110.94575   -8154.8101   -7480.4961   -934.57579     102002.7      46.7237      46.7237      46.7237 
  353000    108.00237   -8145.9336    -7489.509   -782.46645     102002.7      46.7237      46.7237      46.7237 
  354000     108.5652   -8139.6232   -7479.7778    -984.5543     102002.7      46.7237      46.7237      46.7237 
  355000    109.92696   -8134.5893   -7466.4674   -869.12786     102002.7      46.7237      46.7237      46.7237 
  356000     111.4512   -8124.7676   -7447.3814   -802.96038     102002.7      46.7237      46.7237      46.7237 
  357000    110.93556   -8154.7891    -7480.537   -647.88144     102002.7      46.7237      46.7237      46.7237 
  358000    109.49587   -8127.7697   -7462.2678   -999.04747     102002.7      46.7237      46.7237      46.7237 
  359000    108.46247   -8154.0258   -7494.8048   -713.26152     102002.7      46.7237      46.7237      46.7237 
  360000    112.11342   -8152.5604   -7471.1494   -977.42156     102002.7      46.7237      46.7237      46.7237 
  361000    107.20331   -8164.8941   -7513.3261   -433.23675     102002.7      46.7237      46.7237      46.7237 
  362000    109.05332   -8144.2803   -7481.4682   -571.94562     102002.7      46.7237      46.7237      46.7237 
  363000    110.58312   -8163.7335   -7491.6235   -648.81508     102002.7      46.7237      46.7237      46.7237 
  364000     106.2249   -8161.4134   -7515.7921   -609.67418     102002.7      46.7237      46.7237      46.7237 
  365000    109.48112   -8141.3297   -7475.9175   -750.57422     102002.7      46.7237      46.7237      46.7237 
  366000    111.85464   -8141.1394   -7461.3013   -1043.8939     102002.7      46.7237      46.7237      46.7237 
  367000     112.3988   -8166.9642   -7483.8187   -856.53409     102002.7      46.7237      46.7237      46.7237 
  368000    110.11313    -8160.032   -7490.7785   -588.42634     102002.7      46.7237      46.7237      46.7237 
  369000     110.4558   -8137.0056   -7465.6694   -902.25513     102002.7      46.7237      46.7237      46.7237 
  370000    112.64167   -8134.5419   -7449.9202   -895.06471     102002.7      46.7237      46.7237      46.7237 
  371000    111.49523   -8139.7955   -7462.1418   -836.86241     102002.7      46.7237      46.7237      46.7237 
  372000    105.98762   -8157.6864   -7513.5073    -604.2916     102002.7      46.7237      46.7237      46.7237 
  373000     112.7177   -8120.7781   -7435.6944   -563.04616     102002.7      46.7237      46.7237      46.7237 
  374000    110.16286   -8147.0408   -7477.4851    -824.8805     102002.7      46.7237      46.7237      46.7237 
  375000    105.85632   -8147.8393   -7504.4581   -538.22647     102002.7      46.7237      46.7237      46.7237 
  376000    107.33334   -8137.0473   -7484.6891   -688.19637     102002.7      46.7237      46.7237      46.7237 
  377000     108.7726   -8179.1874   -7518.0815   -532.47646     102002.7      46.7237      46.7237      46.7237 
  378000     109.6443   -8130.2863   -7463.8823   -552.36486     102002.7      46.7237      46.7237      46.7237 
  379000    108.66413   -8156.1399   -7495.6933   -601.95011     102002.7      46.7237      46.7237      46.7237 
  380000    111.10325   -8138.8487   -7463.5774   -1017.5334     102002.7      46.7237      46.7237      46.7237 
  381000    110.40855   -8145.0034   -7473.9543   -886.42163     102002.7      46.7237      46.7237      46.7237 
  382000    112.18637   -8163.7936   -7481.9393   -991.73186     102002.7      46.7237      46.7237      46.7237 
  383000    109.94064   -8155.5825   -7487.3774   -881.08432     102002.7      46.7237      46.7237      46.7237 
  384000    108.47677   -8143.0225   -7483.7146   -1107.2899     102002.7      46.7237      46.7237      46.7237 
  385000    110.66122   -8149.3438   -7476.7591    -930.2957     102002.7      46.7237      46.7237      46.7237 
  386000    108.83444   -8169.6533   -7508.1716    -998.6379     102002.7      46.7237      46.7237      46.7237 
  387000    108.93078   -8136.5469   -7474.4796   -911.10108     102002.7      46.7237      46.7237      46.7237 
  388000    107.77921   -8143.4573   -7488.3891   -887.00473     102002.7      46.7237      46.7237      46.7237 
  389000    111.49671   -8169.2534   -7491.5908   -1096.2103     102002.7      46.7237      46.7237      46.7237 
  390000    111.07675   -8147.6912   -7472.5809    -645.1009     102002.7      46.7237      46.7237      46.7237 
  391000    107.26868   -8139.1355   -7487.1702   -953.26357     102002.7      46.7237      46.7237      46.7237 
  392000    112.52925   -8149.2058   -7465.2675    -739.3544     102002.7      46.7237      46.7237      46.7237 
  393000    114.37663    -8146.738   -7451.5715   -786.77459     102002.7      46.7237      46.7237      46.7237 
  394000    110.84736   -8158.4826   -7484.7666   -833.85301     102002.7      46.7237      46.7237      46.7237 
  395000    106.71105   -8165.2904   -7516.7143   -577.86136     102002.7      46.7237      46.7237      46.7237 
  396000    111.71458    -8153.882   -7474.8951   -773.73346     102002.7      46.7237      46.7237      46.7237 
  397000    110.40262   -8134.0673   -7463.0544   -793.89016     102002.7      46.7237      46.7237      46.7237 
  398000    111.40008   -8140.7468   -7463.6714   -1121.9696     102002.7      46.7237      46.7237      46.7237 
  399000    110.92418   -8152.0129   -7477.8299   -751.06365     102002.7      46.7237      46.7237      46.7237 
  400000    109.95392   -8152.4805   -7484.1947   -704.42019     102002.7      46.7237      46.7237      46.7237 
  401000    109.16364   -8147.9413   -7484.4587   -853.88309     102002.7      46.7237      46.7237      46.7237 
  402000    111.50504   -8158.2336   -7480.5203   -777.66411     102002.7      46.7237      46.7237      46.7237 
  403000    112.36678   -8153.5797   -7470.6289   -807.66832     102002.7      46.7237      46.7237      46.7237 
  404000    109.41003   -8165.6699   -7500.6898   -417.97626     102002.7      46.7237      46.7237      46.7237 
  405000    110.90946   -8159.8208   -7485.7273   -539.73304     102002.7      46.7237      46.7237      46.7237 
  406000     109.5662   -8167.4748   -7501.5456   -812.56965     102002.7      46.7237      46.7237      46.7237 
  407000    109.33538   -8137.4902   -7472.9638   -831.96795     102002.7      46.7237      46.7237      46.7237 
  408000    109.18315   -8165.8353   -7502.2341    -955.1715     102002.7      46.7237      46.7237      46.7237 
  409000    110.43939   -8157.1112   -7485.8748   -788.56342     102002.7      46.7237      46.7237      46.7237 
  410000    108.71805   -8172.6383   -7511.8639   -785.32024     102002.7      46.7237      46.7237      46.7237 
  411000    110.50692   -8156.0288   -7484.3819   -1041.8272     102002.7      46.7237      46.7237      46.7237 
  412000    110.42209   -8158.4989   -7487.3676   -1084.0537     102002.7      46.7237      46.7237      46.7237 
  413000    112.22042   -8134.9821   -7452.9207   -1006.3551     102002.7      46.7237      46.7237      46.7237 
  414000    111.00835   -8161.6041   -7486.9096   -849.86025     102002.7      46.7237      46.7237      46.7237 
  415000    110.52636   -8144.1556   -7472.3905   -775.54233     102002.7      46.7237      46.7237      46.7237 
  416000    111.88281   -8163.6678   -7483.6584   -856.05734     102002.7      46.7237      46.7237      46.7237 
  417000    102.26917   -8147.1142   -7525.5353   -1123.7977     102002.7      46.7237      46.7237      46.7237 
  418000    108.55468   -8137.3633   -7477.5819   -976.41391     102002.7      46.7237      46.7237      46.7237 
  419000    113.34559   -8166.5874   -7477.6874   -796.67311     102002.7      46.7237      46.7237      46.7237 
  420000    111.41923   -8138.5765   -7461.3847   -428.55689     102002.7      46.7237      46.7237      46.7237 
  421000    113.75294   -8138.2237   -7446.8479   -543.25499     102002.7      46.7237      46.7237      46.7237 
  422000    107.23886   -8147.4597   -7495.6757   -856.01015     102002.7      46.7237      46.7237      46.7237 
  423000    103.87526   -8149.2924   -7517.9519   -657.19635     102002.7      46.7237      46.7237      46.7237 
  424000     111.8045   -8163.4909   -7483.9574   -614.29481     102002.7      46.7237      46.7237      46.7237 
  425000     107.1857   -8134.1097   -7482.6488   -673.76091     102002.7      46.7237      46.7237      46.7237 
  426000    110.77935   -8145.4457    -7472.143     -626.037     102002.7      46.7237      46.7237      46.7237 
  427000    110.86004   -8138.9144   -7465.1213   -849.41173     102002.7      46.7237      46.7237      46.7237 
  428000    109.32706    -8143.834   -7479.3581   -723.36628     102002.7      46.7237      46.7237      46.7237 
  429000    110.70866   -8153.8244   -7480.9514   -653.44289     102002.7      46.7237      46.7237      46.7237 
  430000    112.84571   -8144.2005   -7458.3388   -538.84055     102002.7      46.7237      46.7237      46.7237 
  431000    109.16641   -8137.0359   -7473.5364   -568.20345     102002.7      46.7237      46.7237      46.7237 
  432000    111.48999   -8147.6182   -7469.9963   -473.55026     102002.7      46.7237      46.7237      46.7237 
  433000    107.51001   -8142.8503   -7489.4183   -594.57203     102002.7      46.7237      46.7237      46.7237 
  434000    111.67995   -8151.3888   -7472.6124    -807.3421     102002.7      46.7237      46.7237      46.7237 
  435000    109.58941   -8140.2596   -7474.1892   -813.11955     102002.7      46.7237      46.7237      46.7237 
  436000     107.8762   -8147.7271   -7492.0694   -1302.7895     102002.7      46.7237      46.7237      46.7237 
  437000    113.31887   -8147.6065   -7458.8689   -1014.5626     102002.7      46.7237      46.7237      46.7237 
  438000    111.18015   -8138.3151   -7462.5764   -1087.0425     102002.7      46.7237      46.7237      46.7237 
  439000    108.22907   -8157.0064    -7499.204    -899.5335     102002.7      46.7237      46.7237      46.7237 
  440000    110.98576   -8141.5611   -7467.0039   -898.95842     102002.7      46.7237      46.7237      46.7237 
  441000    111.53959   -8137.4046   -7459.4813   -848.34904     102002.7      46.7237      46.7237      46.7237 
  442000    108.93801   -8164.5071   -7502.3959   -810.53027     102002.7      46.7237      46.7237      46.7237 
  443000    114.18625   -8115.3093   -7421.2999   -749.44901     102002.7      46.7237      46.7237      46.7237 
  444000    111.74142   -8137.1812   -7458.0312   -597.37849     102002.7      46.7237      46.7237      46.7237 
  445000    110.12077   -8156.4482   -7487.1483   -421.83644     102002.7      46.7237      46.7237      46.7237 
  446000    107.74351   -8138.4478   -7483.5966   -714.30402     102002.7      46.7237      46.7237      46.7237 
  447000    106.90109   -8155.7804   -7506.0493   -793.04586     102002.7      46.7237      46.7237      46.7237 
  448000    110.83692   -8173.7009   -7500.0484   -683.40676     102002.7      46.7237      46.7237      46.7237 
  449000    108.98767   -8132.4313   -7470.0182   -588.57438     102002.7      46.7237      46.7237      46.7237 
  450000    110.61074   -8146.8427   -7474.5649   -752.33406     102002.7      46.7237      46.7237      46.7237 
  451000    108.54337   -8162.3907   -7502.6781   -430.88994     102002.7      46.7237      46.7237      46.7237 
  452000    108.13654   -8150.5343   -7493.2943   -641.41251     102002.7      46.7237      46.7237      46.7237 
  453000    109.93716   -8145.6693   -7477.4854   -667.11045     102002.7      46.7237      46.7237      46.7237 
  454000    108.51568   -8147.9319   -7488.3875   -458.78272     102002.7      46.7237      46.7237      46.7237 
  455000    107.71258   -8137.3343   -7482.6711   -835.12664     102002.7      46.7237      46.7237      46.7237 
  456000    112.63129   -8135.9237   -7451.3652   -579.43785     102002.7      46.7237      46.7237      46.7237 
  457000    112.59149   -8160.7308   -7476.4142   -765.93402     102002.7      46.7237      46.7237      46.7237 
  458000    104.88832   -8176.3846   -7538.8868   -787.69669     102002.7      46.7237      46.7237      46.7237 
  459000    111.01933   -8143.7272   -7468.9659   -644.59579     102002.7      46.7237      46.7237      46.7237 
  460000    108.07927   -8134.4889    -7477.597   -680.15373     102002.7      46.7237      46.7237      46.7237 
  461000    106.25331   -8142.5224   -7496.7284    -895.7575     102002.7      46.7237      46.7237      46.7237 
  462000    108.00012   -8152.0297   -7495.6188   -728.49609     102002.7      46.7237      46.7237      46.7237 
  463000    109.72579   -8143.3781   -7476.4788   -676.49716     102002.7      46.7237      46.7237      46.7237 
  464000    108.29184   -8167.1447   -7508.9607   -598.97875     102002.7      46.7237      46.7237      46.7237 
  465000    110.11891   -8166.7723   -7497.4837   -662.87834     102002.7      46.7237      46.7237      46.7237 
  466000    108.89367   -8133.8225   -7471.9807   -726.44237     102002.7      46.7237      46.7237      46.7237 
  467000    111.41239   -8153.1771   -7476.0268   -781.10905     102002.7      46.7237      46.7237      46.7237 
  468000    109.85552   -8156.2684   -7488.5807   -646.39593     102002.7      46.7237      46.7237      46.7237 
  469000    114.08577   -8123.3487     -7429.95   -835.79672     102002.7      46.7237      46.7237      46.7237 
  470000    107.36024   -8146.9173   -7494.3956   -995.66237     102002.7      46.7237      46.7237      46.7237 
  471000    108.26235   -8166.4864   -7508.4818   -941.69951     102002.7      46.7237      46.7237      46.7237 
  472000    110.39849   -8154.2393   -7483.2515   -767.07066     102002.7      46.7237      46.7237      46.7237 
  473000    108.00009   -8155.2191   -7498.8084   -854.57691     102002.7      46.7237      46.7237      46.7237 
  474000    109.82223   -8134.4089   -7466.9234    -708.5057     102002.7      46.7237      46.7237      46.7237 
  475000    106.74927   -8139.4373    -7490.629   -891.74938     102002.7      46.7237      46.7237      46.7237 
  476000    111.80616   -8156.7245    -7477.181   -785.63653     102002.7      46.7237      46.7237      46.7237 
  477000    110.28838   -8122.5988   -7452.2802   -790.95833     102002.7      46.7237      46.7237      46.7237 
  478000    107.13527   -8154.1556   -7503.0011   -485.45168     102002.7      46.7237      46.7237      46.7237 
  479000    110.82376   -8136.9563   -7463.3837   -864.11256     102002.7      46.7237      46.7237      46.7237 
  480000    109.11004   -8135.8339   -7472.6771    -712.9916     102002.7      46.7237      46.7237      46.7237 
  481000    107.59317   -8139.9664   -7486.0289   -758.74373     102002.7      46.7237      46.7237      46.7237 
  482000    108.93143   -8171.2207   -7509.1495   -1021.6072     102002.7      46.7237      46.7237      46.7237 
  483000    110.05661   -8163.1519   -7494.2419    -893.0086     102002.7      46.7237      46.7237      46.7237 
  484000    107.14996   -8129.0935   -7477.8498   -976.71074     102002.7      46.7237      46.7237      46.7237 
  485000    105.31402   -8136.6056   -7496.5205   -861.21219     102002.7      46.7237      46.7237      46.7237 
  486000     110.1131   -8157.7923    -7488.539   -911.08755     102002.7      46.7237      46.7237      46.7237 
  487000    111.47162   -8145.3364   -7467.8263   -935.03374     102002.7      46.7237      46.7237      46.7237 
  488000    113.68256   -8155.7573   -7464.8093   -767.23055     102002.7      46.7237      46.7237      46.7237 
  489000    111.00768   -8149.9371   -7475.2467   -589.92994     102002.7      46.7237      46.7237      46.7237 
  490000    108.22624   -8182.3526   -7524.5673   -490.00223     102002.7      46.7237      46.7237      46.7237 
  491000    108.95862   -8138.7319   -7476.4954   -892.56919     102002.7      46.7237      46.7237      46.7237 
  492000    106.41448   -8150.2029   -7503.4293   -630.33554     102002.7      46.7237      46.7237      46.7237 
  493000    112.93563   -8153.6679   -7467.2597   -722.02762     102002.7      46.7237      46.7237      46.7237 
  494000    108.46612   -8165.8361   -7506.5929   -1092.1114     102002.7      46.7237      46.7237      46.7237 
  495000    110.11338   -8152.3595   -7483.1045   -641.13182     102002.7      46.7237      46.7237      46.7237 
  496000    109.10997   -8143.8256   -7480.6691   -698.68831     102002.7      46.7237      46.7237      46.7237 
  497000    107.97617   -8160.8139   -7504.5485   -915.16957     102002.7      46.7237      46.7237      46.7237 
  498000    107.10242   -8146.0211   -7495.0664   -822.03566     102002.7      46.7237      46.7237      46.7237 
  499000    110.24237   -8150.6434   -7480.6044   -606.08843     102002.7      46.7237      46.7237      46.7237 
  500000     109.0121   -8149.4223   -7486.8607    -785.8881     102002.7      46.7237      46.7237      46.7237 
  500501    105.92454   -8142.3296   -7498.5339   -828.85318     102002.7      46.7237      46.7237      46.7237 
Loop time of 606.293 on 24 procs for 500000 steps with 2040 atoms

Performance: 71.253 ns/day, 0.337 hours/ns, 824.684 timesteps/s
99.6% CPU use with 24 MPI tasks x no OpenMP threads

MPI task timing breakdown:
Section |  min time  |  avg time  |  max time  |%varavg| %total
---------------------------------------------------------------
Pair    | 222        | 306.29     | 395.63     | 274.1 | 50.52
Bond    | 61.371     | 78.691     | 99.104     | 127.3 | 12.98
Neigh   | 3.2285     | 3.2559     | 3.2783     |   1.0 |  0.54
Comm    | 119.5      | 210.08     | 298        | 345.8 | 34.65
Output  | 0.38034    | 0.38064    | 0.3845     |   0.1 |  0.06
Modify  | 3.8594     | 4.1389     | 4.5104     |   9.4 |  0.68
Other   |            | 3.46       |            |       |  0.57

Nlocal:    85 ave 111 max 62 min
Histogram: 4 1 0 5 3 3 3 2 0 3
Nghost:    2308 ave 2460 max 2217 min
Histogram: 7 8 1 0 0 0 0 1 2 5
Neighs:    7643.21 ave 12892 max 4985 min
Histogram: 2 9 3 3 0 2 3 0 1 1

Total # of neighbors = 183437
Ave neighs/atom = 89.9201
Ave special neighs/atom = 5.64706
Neighbor list builds = 4317
Dangerous builds = 0
Neighbor list info ...
  update every 1 steps, delay 10 steps, check yes
  max neighbors/atom: 2000, page size: 100000
  master list distance cutoff = 16
  ghost atom cutoff = 16
  binsize = 8, bins = 6 6 6
  3 neighbor lists, perpetual/occasional/extra = 3 0 0
  (1) pair buck6d/coul/gauss/dsf, perpetual, skip from (3)
      attributes: half, newton on
      pair build: skip
      stencil: none
      bin: none
  (2) pair lj/cut, perpetual, skip from (3)
      attributes: half, newton on
      pair build: skip
      stencil: none
      bin: none
  (3) neighbor class addition, perpetual
      attributes: half, newton on
      pair build: half/bin/newton
      stencil: half/bin/3d/newton
      bin: standard
Setting up Verlet run ...
  Unit style    : real
  Current step  : 500501
  Time step     : 1
WARNING: Inconsistent image flags (../domain.cpp:786)
Per MPI rank memory allocation (min/avg/max) = 24.13 | 24.48 | 24.6 Mbytes
Step Time TotEng KinEng PotEng E_mol E_pair Temp Pxx Pyy Pzz Pxy Pxz Pyz Cella Cellb Cellc CellAlpha CellBeta CellGamma Volume Press 
  500501       500000   -7498.5339    643.79574   -8142.3296    4321.5984   -12463.928    105.92454   -1000.5301   -431.42079   -1054.6086   -247.85644    108.70798    14.684628      46.7237      46.7237      46.7237           90           90           90     102002.7   -828.85318 
  501000       500499   -7486.5051    673.58694   -8160.0921    4287.7303   -12447.822    110.82612   -557.34524    -1108.528   -862.29433   -277.04642    51.660775   -105.74843      46.7237      46.7237      46.7237           90           90           90     102002.7   -842.72252 
  502000       501499     -7456.27    668.38979   -8124.6598    4318.0883   -12442.748    109.97103   -680.09887   -880.28565    -603.1302   -61.434883   -46.660086    64.388438      46.7237      46.7237      46.7237           90           90           90     102002.7   -721.17157 
  503000       502499   -7474.6834    670.53424   -8145.2176    4291.0701   -12436.288    110.32386    -641.2904   -977.87044    -737.5817    69.087443    139.48463    -345.6796      46.7237      46.7237      46.7237           90           90           90     102002.7   -785.58084 
  504000       503499   -7480.9589    666.89265   -8147.8515    4307.0047   -12454.856     109.7247   -983.90995   -703.99862   -397.84175    132.45058   -77.278028    157.72323      46.7237      46.7237      46.7237           90           90           90     102002.7   -695.25011 
  505000       504499   -7513.5889    658.31701   -8171.9059     4287.485   -12459.391    108.31374   -565.15251   -727.45475   -1048.0391    102.27837   -32.621395    4.6105032      46.7237      46.7237      46.7237           90           90           90     102002.7   -780.21545 
  506000       505499   -7489.9266    658.42847   -8148.3551    4314.9274   -12463.282    108.33208   -673.76272   -1058.9358   -915.99112   -199.40404   -105.07404   -152.53617      46.7237      46.7237      46.7237           90           90           90     102002.7   -882.89655 
  507000       506499   -7499.6688    662.96924   -8162.6381     4276.523   -12439.161    109.07918   -1133.4755   -748.20348   -651.11641   -55.352441    -299.2612   -64.188405      46.7237      46.7237      46.7237           90           90           90     102002.7   -844.26513 
  508000       507499   -7502.5487     646.7159   -8149.2646    4302.9877   -12452.252    106.40499   -979.89822   -502.87472   -741.99902    22.250223   -50.615084    73.303512      46.7237      46.7237      46.7237           90           90           90     102002.7   -741.59065 
  509000       508499   -7470.0487    678.89486   -8148.9436    4296.6446   -12445.588    111.69944   -975.73977   -658.56015   -1165.9427   -191.63738    40.008654    33.795735      46.7237      46.7237      46.7237           90           90           90     102002.7   -933.41421 
  510000       509499   -7440.7862    689.69741   -8130.4836    4325.2869    -12455.77     113.4768   -800.37687   -626.79749    -874.4665   -31.221242   -4.0367178   -111.71988      46.7237      46.7237      46.7237           90           90           90     102002.7   -767.21362 
  511000       510499   -7456.3902    690.34243   -8146.7327    4297.7988   -12444.531    113.58292   -1253.0885   -773.82123   -481.26215   -114.68286   -181.95347   -178.65918      46.7237      46.7237      46.7237           90           90           90     102002.7   -836.05728 
  512000       511499   -7478.8228    682.10626    -8160.929    4297.9632   -12458.892    112.22782   -1008.7552   -829.06448    -1032.158     120.4819    207.22304   -72.518199      46.7237      46.7237      46.7237           90           90           90     102002.7   -956.65922 
  513000       512499   -7476.5617    666.90083   -8143.4625    4300.0344   -12443.497    109.72605    -563.3272   -633.58505   -682.75789   -3.4701062    186.28677   -253.19114      46.7237      46.7237      46.7237           90           90           90     102002.7   -626.55671 
  514000       513499   -7482.4579    678.33047   -8160.7883    4296.1425   -12456.931    111.60658   -1200.3418   -706.04912   -973.35632   -135.08141   -9.7781516    118.84102      46.7237      46.7237      46.7237           90           90           90     102002.7   -959.91575 
  515000       514499   -7482.5721    673.97034   -8156.5425    4289.3205   -12445.863     110.8892   -536.68031   -988.23207   -931.39604   -88.759612     118.5562    31.859816      46.7237      46.7237      46.7237           90           90           90     102002.7   -818.76948 
  516000       515499   -7493.8139    650.47656   -8144.2905     4284.562   -12428.852    107.02374   -103.00493   -981.46745   -963.04011   -120.45374    66.838586    50.047688      46.7237      46.7237      46.7237           90           90           90     102002.7   -682.50417 
  517000       516499   -7452.3051      672.216   -8124.5211    4327.2556   -12451.777    110.60056   -814.34253   -304.64713   -770.55398    310.19471   -35.289889    116.20906      46.7237      46.7237      46.7237           90           90           90     102002.7   -629.84788 
  518000       517499   -7474.3621    670.45617   -8144.8183    4293.8051   -12438.623    110.31101    -896.2886   -410.21548   -442.80638   -44.497088    57.768484   -49.151734      46.7237      46.7237      46.7237           90           90           90     102002.7   -583.10349 
  519000       518499   -7477.5708     678.7837   -8156.3545    4257.1563   -12413.511    111.68115    -986.3639   -729.44418    -623.7697    3.0655944    -270.7966    157.40903      46.7237      46.7237      46.7237           90           90           90     102002.7   -779.85926 
  520000       519499   -7470.1188      684.012   -8154.1308    4277.3717   -12431.503    112.54137   -882.17226   -1162.2776    -768.9901   -117.39678   -66.241094   -192.24196      46.7237      46.7237      46.7237           90           90           90     102002.7   -937.81332 
  521000       520499   -7454.7029    682.44377   -8137.1467    4311.8155   -12448.962    112.28335   -789.26048   -525.59782   -627.27907    -181.6096   -143.13187   -3.5778498      46.7237      46.7237      46.7237           90           90           90     102002.7   -647.37912 
  522000       521499   -7484.2562    652.05861   -8136.3148     4305.861   -12442.176    107.28404   -953.52134   -983.50967   -1131.6889     -49.6459    -67.38707    5.3127078      46.7237      46.7237      46.7237           90           90           90     102002.7   -1022.9066 
  523000       522499   -7495.1322    664.62828   -8159.7605    4287.3704   -12447.131    109.35214   -709.88181   -768.10547   -686.17307    29.058463    109.70815   -104.66769      46.7237      46.7237      46.7237           90           90           90     102002.7   -721.38678 
  524000       523499   -7459.8252    677.52447   -8137.3497    4300.3246   -12437.674    111.47397   -502.27081    -624.8706   -798.31393    99.924543    152.15119    204.85305      46.7237      46.7237      46.7237           90           90           90     102002.7   -641.81845 
  525000       524499   -7500.6216    662.66918   -8163.2908    4286.2927   -12449.583    109.02981   -1042.0144   -830.99533   -536.70491    295.46467   -127.14312    161.45631      46.7237      46.7237      46.7237           90           90           90     102002.7   -803.23821 
  526000       525499   -7495.1996    667.72887   -8162.9285    4275.0402   -12437.969    109.86228   -773.03468   -905.92453   -577.95308   -177.81508    43.663577   -66.922539      46.7237      46.7237      46.7237           90           90           90     102002.7    -752.3041 
  527000       526499     -7517.03    660.41796    -8177.448    4287.8281   -12465.276    108.65941   -921.70859   -463.40542   -508.33996    13.540998    32.658805    207.70406      46.7237      46.7237      46.7237           90           90           90     102002.7   -631.15132 
  528000       527499   -7476.5847    674.04477   -8150.6295    4301.5839   -12452.213    110.90145   -782.54158   -1169.0768    -526.2056   -12.508232    107.44268   -145.73052      46.7237      46.7237      46.7237           90           90           90     102002.7   -825.94134 
  529000       528499   -7457.5024    684.34604   -8141.8485    4292.8813    -12434.73    112.59633   -700.53189     -838.771   -1039.3992    7.2357366    93.717126    16.015262      46.7237      46.7237      46.7237           90           90           90     102002.7   -859.56736 
  530000       529499   -7496.4209    676.95564   -8173.3765    4305.9803   -12479.357    111.38038    -853.0247   -706.39136   -1101.7247   -139.73619     124.0746    186.35627      46.7237      46.7237      46.7237           90           90           90     102002.7   -887.04691 
  531000       530499   -7492.2543    648.26989   -8140.5242      4290.52   -12431.044    106.66067    -1066.919   -701.60995   -704.12068    40.087229    15.152011   -27.040295      46.7237      46.7237      46.7237           90           90           90     102002.7   -824.21655 
  532000       531499   -7483.6859    663.12766   -8146.8135    4315.8526   -12462.666    109.10524   -1179.5184   -1309.1262   -719.73142   -224.41994   -186.00378     7.180295      46.7237      46.7237      46.7237           90           90           90     102002.7   -1069.4587 
  533000       532499   -7473.7632    677.90795   -8151.6711    4322.9852   -12474.656    111.53706   -840.06024   -1164.1813   -712.38402    248.70027    133.97476    230.64979      46.7237      46.7237      46.7237           90           90           90     102002.7   -905.54184 
  534000       533499   -7481.4138    667.42296   -8148.8368    4282.3254   -12431.162    109.81195   -466.43965   -358.43821   -1223.7512    130.27703    9.4829472    -122.3334      46.7237      46.7237      46.7237           90           90           90     102002.7   -682.87634 
  535000       534499   -7498.4203    662.86666    -8161.287    4281.2189   -12442.506     109.0623   -488.04229    153.55762   -751.82257    232.51607   -204.94616    181.42426      46.7237      46.7237      46.7237           90           90           90     102002.7   -362.10241 
  536000       535499   -7478.4178    660.84701   -8139.2648    4328.1666   -12467.431       108.73   -812.69105   -207.86928   -1161.7203    114.59179   -4.1166791    -37.69007      46.7237      46.7237      46.7237           90           90           90     102002.7   -727.42689 
  537000       536499   -7508.2277    665.49352   -8173.7213    4281.2158   -12454.937     109.4945   -1113.3204    -653.8248    -521.5068   -167.79382    106.48057   -244.28615      46.7237      46.7237      46.7237           90           90           90     102002.7   -762.88399 
  538000       537499   -7452.7219    678.05961   -8130.7815    4319.9529   -12450.734    111.56201     -1008.88   -820.41963   -702.15648   -84.718962   -142.72848   -68.375741      46.7237      46.7237      46.7237           90           90           90     102002.7    -843.8187 
  539000       538499   -7453.3345    675.72135   -8129.0558    4323.2914   -12452.347     111.1773   -804.09935   -850.59199   -529.38058   -285.47742    37.105141     109.0693      46.7237      46.7237      46.7237           90           90           90     102002.7   -728.02398 
  540000       539499   -7474.1168     663.0319   -8137.1487    4307.2659   -12444.415    109.08949   -839.37116   -579.74359   -1003.6365   -111.86148    19.036989    120.97868      46.7237      46.7237      46.7237           90           90           90     102002.7   -807.58374 
  541000       540499   -7459.0455    669.89164   -8128.9371    4306.2958   -12435.233    110.21813   -758.51127   -1140.9208   -1046.5326   -56.210334    114.88115   -323.45628      46.7237      46.7237      46.7237           90           90           90     102002.7   -981.98822 
  542000       541499   -7470.2551    669.31295    -8139.568    4310.6656   -12450.234    110.12292    -499.8534   -592.53529   -700.95385    53.520787   -41.005784   -146.16136      46.7237      46.7237      46.7237           90           90           90     102002.7   -597.78085 
  543000       542499   -7495.5722    650.10978    -8145.682    4296.3517   -12442.034    106.96339   -530.82102   -700.03102    -1087.661   -288.66563     97.03507    65.108391      46.7237      46.7237      46.7237           90           90           90     102002.7   -772.83769 
  544000       543499    -7499.091    667.36513   -8166.4561    4302.3487   -12468.805    109.80244     -1029.14   -933.32666   -1097.8176     223.8559   -436.12962    122.45162      46.7237      46.7237      46.7237           90           90           90     102002.7   -1020.0947 
  545000       544499   -7479.1614    669.27201   -8148.4334    4273.7514   -12422.185    110.11618   -732.75932   -841.81119   -879.53058    302.31274   -79.085349    137.07547      46.7237      46.7237      46.7237           90           90           90     102002.7    -818.0337 
  546000       545499    -7491.096    677.62359   -8168.7195     4297.248   -12465.968    111.49027   -966.63088   -803.51177   -860.18604    9.8702909    192.62531    98.843372      46.7237      46.7237      46.7237           90           90           90     102002.7   -876.77623 
  547000       546499   -7467.5894    695.50559    -8163.095    4269.0113   -12432.106    114.43242   -863.82287   -1016.8233   -443.72866    31.376374    165.65856   -124.90431      46.7237      46.7237      46.7237           90           90           90     102002.7   -774.79162 
  548000       547499   -7517.4819     645.8567   -8163.3386    4287.9169   -12451.256    106.26363   -703.86297    -851.1213   -701.44848    140.46745   -67.556627   -140.63513      46.7237      46.7237      46.7237           90           90           90     102002.7   -752.14425 
  549000       548499   -7469.4576    689.42014   -8158.8778    4304.5018    -12463.38    113.43118   -1444.6325    -1007.089   -923.28516    87.306442    100.00923    160.13933      46.7237      46.7237      46.7237           90           90           90     102002.7   -1125.0022 
  550000       549499   -7499.0811    668.28784    -8167.369    4276.6717   -12444.041    109.95425   -662.53907   -846.72862   -124.34808   -104.48026   -17.464738     152.6229      46.7237      46.7237      46.7237           90           90           90     102002.7   -544.53859 
  551000       550499   -7504.1136    665.71515   -8169.8287    4284.6159   -12454.445    109.53096   -880.42484   -843.67872   -731.14861    5.4247295   -107.48604    41.368734      46.7237      46.7237      46.7237           90           90           90     102002.7   -818.41739 
  552000       551499   -7480.2407    672.70399   -8152.9447    4310.0827   -12463.027    110.68085   -1033.2028    -535.9175   -1071.6984    27.863361   -9.5294916    94.149713      46.7237      46.7237      46.7237           90           90           90     102002.7    -880.2729 
  553000       552499   -7461.5841    675.05038   -8136.6345    4309.4735   -12446.108     111.0669   -1231.6067   -896.45034   -871.42173   -127.56563    72.410587   -17.644721      46.7237      46.7237      46.7237           90           90           90     102002.7   -999.82626 
  554000       553499   -7500.0605    644.76816   -8144.8287     4310.304   -12455.133    106.08453   -1156.5481   -525.69412   -775.23094    299.67677    121.84994    181.83621      46.7237      46.7237      46.7237           90           90           90     102002.7   -819.15774 
  555000       554499    -7501.108    666.79943   -8167.9074    4291.7549   -12459.662    109.70936   -419.36961   -761.91185   -155.28432    23.057681   -2.9448248   -349.52951      46.7237      46.7237      46.7237           90           90           90     102002.7   -445.52193 
[...]
  936000       935499   -7467.2504    681.14192   -8148.3924    4325.5198   -12473.912    112.06915   -707.30827   -894.11917   -978.91978    105.46412    103.02431    9.7312272      46.7237      46.7237      46.7237           90           90           90     102002.7   -860.11574 
  937000       936499   -7492.4006    675.08118   -8167.4818    4266.5805   -12434.062    111.07197    -999.0405   -823.63716   -687.16394   -107.08456    39.243828   -31.040362      46.7237      46.7237      46.7237           90           90           90     102002.7   -836.61387 
  938000       937499   -7493.6361    686.10271   -8179.7388    4267.3461   -12447.085    112.88536   -688.99228   -561.00274   -351.93197   -15.255439   -168.87853    207.57291      46.7237      46.7237      46.7237           90           90           90     102002.7   -533.97566 
  939000       938499   -7501.0872    656.75087   -8157.8381    4278.1819    -12436.02    108.05606   -393.16545   -975.08358   -780.24903    194.27185    142.19713   -21.009924      46.7237      46.7237      46.7237           90           90           90     102002.7   -716.16602 
  940000       939499   -7479.5687      682.598   -8162.1667      4313.85   -12476.017    112.30872   -741.60888   -778.37176   -286.45685    127.19592    -18.02885   -105.53673      46.7237      46.7237      46.7237           90           90           90     102002.7   -602.14583 
  941000       940499   -7484.8366    683.60536    -8168.442    4281.9195   -12450.361    112.47446   -826.82382   -723.27746   -453.62844    3.1953833   -116.50231    80.329202      46.7237      46.7237      46.7237           90           90           90     102002.7    -667.9099 
  942000       941499   -7474.9352    667.38146   -8142.3167     4292.835   -12435.152    109.80513   -804.15885   -899.00948   -364.58017   -258.07544   -77.700951    142.06114      46.7237      46.7237      46.7237           90           90           90     102002.7    -689.2495 
  943000       942499    -7465.264    690.95087   -8156.2148    4310.3472   -12466.562    113.68303   -952.56321   -1099.4623     -902.609   -82.730825   -199.02194   -34.770952      46.7237      46.7237      46.7237           90           90           90     102002.7   -984.87818 
  944000       943499   -7507.4183    664.48384   -8171.9021    4294.4588   -12466.361    109.32837   -817.34861   -635.20539    -1216.395    170.03442   -173.82791    -33.52324      46.7237      46.7237      46.7237           90           90           90     102002.7   -889.64967 
  945000       944499   -7481.2943    679.31129   -8160.6056    4319.0756   -12479.681    111.76796   -1084.8183    -836.4542   -1038.1437    79.349768   -38.508876    2.4383676      46.7237      46.7237      46.7237           90           90           90     102002.7   -986.47205 
  946000       945499   -7455.7542     683.8105   -8139.5647    4322.1949    -12461.76    112.50822   -807.90169   -1086.7397   -286.64064    157.56024   -91.718281   -122.94387      46.7237      46.7237      46.7237           90           90           90     102002.7   -727.09401 
  947000       946499   -7506.8076    669.89452   -8176.7021    4275.1274    -12451.83     110.2186   -677.94876   -1013.6254   -728.05745    262.13738   -73.884434   -55.794357      46.7237      46.7237      46.7237           90           90           90     102002.7   -806.54388 
  948000       947499    -7483.924     672.6382   -8156.5622    4309.3953   -12465.957    110.67002   -751.13654   -523.28963    -529.9045    104.54837    21.086783    144.44407      46.7237      46.7237      46.7237           90           90           90     102002.7   -601.44355 
  949000       948499   -7459.1088      688.372   -8147.4808    4279.5431   -12427.024    113.25873    -685.2842    -867.9696    -740.8856    197.01019    206.62468   -183.46404      46.7237      46.7237      46.7237           90           90           90     102002.7   -764.71313 
  950000       949499   -7491.4918     663.2358   -8154.7276    4296.5688   -12451.296    109.12303   -717.96955   -294.60525   -692.63334    58.814298   -65.470925   -114.94643      46.7237      46.7237      46.7237           90           90           90     102002.7   -568.40271 
  951000       950499     -7499.65    654.35575   -8154.0058    4294.4893   -12448.495    107.66199   -571.85248   -290.11726   -709.97366   -59.087282    83.586228   -255.35783      46.7237      46.7237      46.7237           90           90           90     102002.7   -523.98113 
  952000       951499   -7475.6768    665.69772   -8141.3745    4312.2148   -12453.589     109.5281   -573.43473   -683.75021   -846.77044     103.0546    283.90481    -113.1341      46.7237      46.7237      46.7237           90           90           90     102002.7   -701.31846 
  953000       952499   -7492.8988    669.21384   -8162.1126    4288.8299   -12450.942    110.10661   -697.05531   -640.08442   -393.90365    14.802911    119.90173    124.90957      46.7237      46.7237      46.7237           90           90           90     102002.7   -577.01446 
  954000       953499   -7510.4378    678.43617   -8188.8739    4262.3211   -12451.195    111.62397   -1132.7477   -499.91503    -681.0089   -212.32797   -85.243182   -381.13059      46.7237      46.7237      46.7237           90           90           90     102002.7   -771.22387 
  955000       954499    -7515.089    667.10231   -8182.1913    4274.9935   -12457.185     109.7592   -613.12933   -722.38397   -699.87034    170.17781   -82.996316   -201.43871      46.7237      46.7237      46.7237           90           90           90     102002.7   -678.46121 
  956000       955499   -7472.4346    648.05479   -8120.4894    4337.9399   -12458.429    106.62528   -757.47625   -581.56329   -661.25948   -147.83362    6.2324892    7.6537042      46.7237      46.7237      46.7237           90           90           90     102002.7   -666.76634 
  957000       956499   -7496.2245    680.19636   -8176.4208     4272.225   -12448.646    111.91358   -468.74269   -528.05165   -565.10207   -93.305511   -151.75938    -182.0561      46.7237      46.7237      46.7237           90           90           90     102002.7   -520.63214 
  958000       957499   -7434.3544    690.95225   -8125.3066    4337.4249   -12462.732    113.68326   -908.46026   -468.72974   -888.27954   -88.101995   -219.15854    257.40806      46.7237      46.7237      46.7237           90           90           90     102002.7   -755.15651 
  959000       958499   -7484.8397    670.51308   -8155.3528    4297.0227   -12452.375    110.32037   -813.06367   -727.22823    -222.9767   -199.09954    14.266617   -110.20057      46.7237      46.7237      46.7237           90           90           90     102002.7    -587.7562 
  960000       959499   -7474.6603    685.79852   -8160.4588    4308.3458   -12468.805    112.83531   -697.66278   -708.74388   -844.79523    -72.87087    132.06586   -11.002492      46.7237      46.7237      46.7237           90           90           90     102002.7   -750.40063 
  961000       960499   -7501.5685    652.90214   -8154.4707     4311.422   -12465.893    107.42282    -410.2902   -968.72491   -635.69938    -249.7805    4.2765128    113.43336      46.7237      46.7237      46.7237           90           90           90     102002.7   -671.57149 
  962000       961499    -7498.497    663.93924   -8162.4363     4294.134    -12456.57    109.23877   -754.36096   -864.20196   -852.50034  -0.96286004    82.173269     107.7048      46.7237      46.7237      46.7237           90           90           90     102002.7   -823.68776 
  963000       962499   -7486.0873    677.72741   -8163.8147    4279.2908   -12443.106    111.50736   -856.27699   -468.65516   -972.23944    250.54454   -176.26873    20.073428      46.7237      46.7237      46.7237           90           90           90     102002.7   -765.72386 
  964000       963499   -7499.1159    652.78866   -8151.9046    4309.6983   -12461.603    107.40415   -855.89997    -951.9595    -785.1367   -260.88064   -123.20996    -25.27165      46.7237      46.7237      46.7237           90           90           90     102002.7   -864.33206 
  965000       964499   -7487.9233    666.56469    -8154.488    4292.7752   -12447.263    109.67074   -971.94771    -791.4916   -539.27991   -207.32741   -56.621209   -79.067627      46.7237      46.7237      46.7237           90           90           90     102002.7   -767.57307 
  966000       965499   -7481.4149    677.29756   -8158.7124    4297.1468   -12455.859    111.43663   -999.47958   -842.05361   -984.58544     -261.979    7.6102065    -23.14147      46.7237      46.7237      46.7237           90           90           90     102002.7   -942.03954 
  967000       966499   -7502.4582    658.17839   -8160.6365    4308.0522   -12468.689    108.29093   -676.49997   -996.31518   -527.16099    -98.76307   -275.02567    128.78903      46.7237      46.7237      46.7237           90           90           90     102002.7   -733.32538 
  968000       967499   -7498.4681    660.08846   -8158.5565    4281.0622   -12439.619     108.6052   -742.01854   -1126.9863    -678.1254   -115.21808   -299.43382    19.734337      46.7237      46.7237      46.7237           90           90           90     102002.7   -849.04341 
  969000       968499   -7544.8936    633.26532    -8178.159    4263.9331   -12442.092    104.19195   -521.92517   -685.12493   -860.49435    211.68147   -28.393688   -157.56735      46.7237      46.7237      46.7237           90           90           90     102002.7   -689.18148 
  970000       969499   -7476.9476     682.3054    -8159.253    4285.9004   -12445.153    112.26058   -490.49952   -465.42874   -566.91844    70.006215   -213.38933   -199.46592      46.7237      46.7237      46.7237           90           90           90     102002.7   -507.61557 
  971000       970499   -7505.3388    651.17958   -8156.5183    4298.2919    -12454.81    107.13941   -685.25333   -919.13895   -1027.6145     36.65239   -72.582871   -249.69796      46.7237      46.7237      46.7237           90           90           90     102002.7   -877.33559 
  972000       971499   -7471.9674    675.14533   -8147.1127    4296.1765   -12443.289    111.08252   -734.68839   -685.24034   -765.67853   -130.28552   -274.20023    5.6313491      46.7237      46.7237      46.7237           90           90           90     102002.7   -728.53575 
  973000       972499   -7463.4766      698.095   -8161.5716    4284.5961   -12446.168    114.85846    -850.3058   -1097.5168   -1115.3702    143.85159    107.27115   -39.561706      46.7237      46.7237      46.7237           90           90           90     102002.7   -1021.0643 
  974000       973499   -7490.9624    670.05169   -8161.0141    4296.1881   -12457.202    110.24446   -723.84273    -1141.654    -832.2798    74.369228     178.4197   -171.78997      46.7237      46.7237      46.7237           90           90           90     102002.7   -899.25884 
  975000       974499   -7490.0587    671.12828    -8161.187    4297.6175   -12458.805    110.42159   -718.48144   -1081.3745   -544.98282   -45.762968    57.229352    116.80926      46.7237      46.7237      46.7237           90           90           90     102002.7   -781.61293 
  976000       975499   -7492.5994    665.46839   -8158.0677    4280.5171   -12438.585    109.49037   -410.54302   -821.68719   -633.31979   -34.198671   -5.5248067   -30.406897      46.7237      46.7237      46.7237           90           90           90     102002.7      -621.85 
  977000       976499   -7507.1709    675.55703    -8182.728    4288.6207   -12471.349    111.15026    -548.7167    -456.6305   -686.00265   -61.938429    27.368861   -40.204954      46.7237      46.7237      46.7237           90           90           90     102002.7   -563.78328 
  978000       977499   -7478.1689    677.07133   -8155.2402     4284.701   -12439.941    111.39941   -751.40932   -1041.4036   -572.92482   -148.69474    21.888135    10.357885      46.7237      46.7237      46.7237           90           90           90     102002.7   -788.57925 
  979000       978499    -7485.633    668.99577   -8154.6288    4303.0561   -12457.685    110.07073    -654.9306   -551.60448   -808.19082    346.13982     59.67244   -63.958644      46.7237      46.7237      46.7237           90           90           90     102002.7    -671.5753 
  980000       979499   -7514.8643    652.55097   -8167.4152    4274.8827   -12442.298    107.36504   -845.81752   -520.20709   -830.92285   -139.60502   -28.188454   -79.955174      46.7237      46.7237      46.7237           90           90           90     102002.7   -732.31582 
  981000       980499   -7470.3864    675.40077   -8145.7871    4292.7007   -12438.488    111.12455   -1231.4908   -773.30457   -741.52571   -169.16467   -75.816565   -81.641977      46.7237      46.7237      46.7237           90           90           90     102002.7   -915.44038 
  982000       981499   -7510.0919    650.17388   -8160.2658    4311.7587   -12472.024    106.97394   -529.11478   -1046.3837   -713.94836    30.364894    141.41148     45.43452      46.7237      46.7237      46.7237           90           90           90     102002.7   -763.14894 
  983000       982499   -7500.8151    665.31491     -8166.13     4285.588   -12451.718    109.46511   -746.74187   -955.08036   -430.34634   -117.27248    204.13953   -171.64043      46.7237      46.7237      46.7237           90           90           90     102002.7   -710.72286 
  984000       983499   -7493.5235     657.9073   -8151.4308    4310.1858   -12461.617    108.24633   -651.41624   -818.02026   -650.61313    15.931465   -22.380351     49.78397      46.7237      46.7237      46.7237           90           90           90     102002.7   -706.68321 
  985000       984499   -7475.8698    678.49367   -8154.3635    4308.7175   -12463.081    111.63343    -428.5534   -339.38375   -149.43925   -121.51357    15.179108     -30.0681      46.7237      46.7237      46.7237           90           90           90     102002.7   -305.79214 
  986000       985499   -7481.1938    669.33661   -8150.5305     4281.648   -12432.178    110.12681   -64.222027   -679.59972   -576.32584    123.11324    156.00627    194.70596      46.7237      46.7237      46.7237           90           90           90     102002.7   -440.04919 
  987000       986499   -7464.0604    684.68631   -8148.7467    4295.3553   -12444.102    112.65231   -702.60415   -361.71256   -559.62881    138.91544    424.02545   -39.831749      46.7237      46.7237      46.7237           90           90           90     102002.7   -541.31518 
  988000       987499   -7478.0993    671.35222   -8149.4515    4309.9384    -12459.39    110.45844   -940.34443   -681.92435   -716.53218   -75.015526    -122.9564   -189.01592      46.7237      46.7237      46.7237           90           90           90     102002.7   -779.60032 
  989000       988499   -7488.0512    662.06582    -8150.117    4299.6939   -12449.811    108.93054   -757.24541   -366.69265   -1169.4643    71.957808    8.1820676   -156.63391      46.7237      46.7237      46.7237           90           90           90     102002.7   -764.46745 
  990000       989499   -7507.0902    659.25798   -8166.3482    4298.1467   -12464.495    108.46856   -628.48991   -610.44412   -428.08601   -44.823858   -83.569229    254.45236      46.7237      46.7237      46.7237           90           90           90     102002.7   -555.67335 
  991000       990499   -7473.2339    668.27634   -8141.5102    4309.7284   -12451.239    109.95236   -1408.8569   -1448.6612   -737.97697   -15.884145   -83.010599    15.921926      46.7237      46.7237      46.7237           90           90           90     102002.7   -1198.4984 
  992000       991499   -7489.6249    678.83432   -8168.4592    4274.3841   -12442.843    111.68948   -681.48237   -1059.1172   -545.24117    66.599128   -103.63808    238.68437      46.7237      46.7237      46.7237           90           90           90     102002.7    -761.9469 
  993000       992499   -7493.4635    663.44776   -8156.9113    4310.8283    -12467.74    109.15791   -620.62176   -484.68301    -893.7455    253.33924    180.24353    219.91347      46.7237      46.7237      46.7237           90           90           90     102002.7   -666.35009 
  994000       993499   -7511.8957    659.55908   -8171.4547    4281.0857    -12452.54     108.5181    -1071.002   -1393.9947   -1179.6903    -242.1984     6.724442   -334.84252      46.7237      46.7237      46.7237           90           90           90     102002.7   -1214.8956 
  995000       994499   -7475.9034    669.27031   -8145.1737    4315.5315   -12460.705     110.1159   -432.02505   -1180.9925   -942.75758   -152.92659    122.61392   -290.51633      46.7237      46.7237      46.7237           90           90           90     102002.7   -851.92504 
  996000       995499   -7472.8556    667.35034    -8140.206    4313.1543    -12453.36    109.80001   -694.51022   -593.53191    -1088.967    89.243156   -171.60123    47.269616      46.7237      46.7237      46.7237           90           90           90     102002.7   -792.33639 
  997000       996499   -7462.5141     676.3554   -8138.8695    4303.1106    -12441.98    111.28162   -903.11802   -771.71809   -706.70275   -94.855032    26.994877   -48.031569      46.7237      46.7237      46.7237           90           90           90     102002.7   -793.84628 
  998000       997499   -7487.3172    676.35074   -8163.6679    4286.6297   -12450.298    111.28085   -475.93679   -933.88107    -775.2613   -259.82125    56.966555    60.788094      46.7237      46.7237      46.7237           90           90           90     102002.7   -728.35972 
  999000       998499    -7474.319    677.48922   -8151.8082    4293.3755   -12445.184    111.46817   -1093.8834    -610.9222   -849.55715    53.259352    -144.9246   -98.612348      46.7237      46.7237      46.7237           90           90           90     102002.7   -851.45425 
 1000000       999499   -7505.1956    653.09601   -8158.2916    4290.6983    -12448.99    107.45472   -706.04942   -569.19072   -881.36288   -193.55098    84.009763   -90.842805      46.7237      46.7237      46.7237           90           90           90     102002.7   -718.86767 
 1000501      1000000   -7495.1953    652.10591   -8147.3012    4318.1342   -12465.435    107.29182   -876.06589   -1066.6303   -1078.1212    213.36882    71.319747    28.480299      46.7237      46.7237      46.7237           90           90           90     102002.7   -1006.9391 
Loop time of 696.662 on 24 procs for 500000 steps with 2040 atoms

Performance: 62.010 ns/day, 0.387 hours/ns, 717.708 timesteps/s
99.6% CPU use with 24 MPI tasks x no OpenMP threads

MPI task timing breakdown:
Section |  min time  |  avg time  |  max time  |%varavg| %total
---------------------------------------------------------------
Pair    | 232.63     | 348.13     | 474.59     | 349.1 | 49.97
Bond    | 54.854     | 82.813     | 114.48     | 204.5 | 11.89
Neigh   | 3.3409     | 3.3662     | 3.3877     |   0.9 |  0.48
Comm    | 108.12     | 245.76     | 371.88     | 483.4 | 35.28
Output  | 0.49739    | 0.53195    | 0.5336     |   1.0 |  0.08
Modify  | 12.018     | 12.415     | 12.821     |   6.9 |  1.78
Other   |            | 3.649      |            |       |  0.52

Nlocal:    85 ave 115 max 53 min
Histogram: 2 1 3 0 3 6 4 1 2 2
Nghost:    2305.12 ave 2477 max 2205 min
Histogram: 5 9 2 0 0 0 0 2 4 2
Neighs:    7651.62 ave 11729 max 5310 min
Histogram: 5 5 2 2 2 2 1 4 0 1

Total # of neighbors = 183639
Ave neighs/atom = 90.0191
Ave special neighs/atom = 5.64706
Neighbor list builds = 4345
Dangerous builds = 0
Total wall time: 0:21:44
