LAMMPS (30 Mar 2018)
Reading data file ...
  orthogonal box = (0 0 0) to (46.7237 46.7237 46.7237)
  2 by 2 by 4 MPI processor grid
  reading atoms ...
  3089 atoms
  scanning bonds ...
  5 = max bonds/atom
  scanning angles ...
  10 = max angles/atom
  scanning dihedrals ...
  32 = max dihedrals/atom
  scanning impropers ...
  3 = max impropers/atom
  reading bonds ...
  2064 bonds
  reading angles ...
  3696 angles
  reading dihedrals ...
  6240 dihedrals
  reading impropers ...
  1008 impropers
Finding 1-2 1-3 1-4 neighbors ...
  special bond factors lj:   0          0          0         
  special bond factors coul: 0          0          0         
  5 = max # of 1-2 neighbors
  8 = max # of 1-3 neighbors
  20 = max # of 1-4 neighbors
  19 = max # of special neighbors
Finding 1-2 1-3 1-4 neighbors ...
  special bond factors lj:   0          0          1         
  special bond factors coul: 1          1          1         
  5 = max # of 1-2 neighbors
  8 = max # of 1-3 neighbors
  19 = max # of special neighbors
WARNING: Using 'neigh_modify every 1 delay 0 check yes' setting during minimization (../min.cpp:168)
Neighbor list info ...
  update every 1 steps, delay 0 steps, check yes
  max neighbors/atom: 2000, page size: 100000
  master list distance cutoff = 16
  ghost atom cutoff = 16
  binsize = 8, bins = 6 6 6
  3 neighbor lists, perpetual/occasional/extra = 3 0 0
  (1) pair buck6d/coul/gauss/dsf, perpetual, skip from (3)
      attributes: half, newton on
      pair build: skip
      stencil: none
      bin: none
  (2) pair lj/cut, perpetual, skip from (3)
      attributes: half, newton on
      pair build: skip
      stencil: none
      bin: none
  (3) neighbor class addition, perpetual
      attributes: half, newton on
      pair build: half/bin/newton
      stencil: half/bin/3d/newton
      bin: standard
Setting up cg style minimization ...
  Unit style    : real
  Current step  : 0
WARNING: Inconsistent image flags (../domain.cpp:786)
Per MPI rank memory allocation (min/avg/max) = 23.01 | 23.46 | 23.91 Mbytes
Step Temp E_pair E_mol TotEng Press 
       0            0   -15005.838    6482.8914   -8522.9466    5989.9711 
     500            0   -15456.505     3731.194   -11725.311   -2070.8151 
Loop time of 4.46615 on 16 procs for 500 steps with 3089 atoms

99.9% CPU use with 16 MPI tasks x no OpenMP threads

Minimization stats:
  Stopping criterion = max force evaluations
  Energy initial, next-to-last, final = 
        -8522.94662205     -11725.1546565     -11725.3114706
  Force two-norm initial, final = 2575.46 18.1417
  Force max component initial, final = 152.042 3.3199
  Final line search alpha, max atom move = 0.00453349 0.0150507
  Iterations, force evaluations = 500 1000

MPI task timing breakdown:
Section |  min time  |  avg time  |  max time  |%varavg| %total
---------------------------------------------------------------
Pair    | 2.1929     | 2.8326     | 3.5998     |  21.1 | 63.42
Bond    | 0.30439    | 0.36164    | 0.43953    |   7.4 |  8.10
Neigh   | 0.036613   | 0.036743   | 0.036871   |   0.1 |  0.82
Comm    | 0.37133    | 1.1895     | 1.8861     |  34.4 | 26.63
Output  | 0          | 0          | 0          |   0.0 |  0.00
Modify  | 0          | 0          | 0          |   0.0 |  0.00
Other   |            | 0.04569    |            |       |  1.02

Nlocal:    193.062 ave 234 max 165 min
Histogram: 2 2 2 2 1 5 1 0 0 1
Nghost:    3856.81 ave 3885 max 3811 min
Histogram: 1 0 0 3 0 4 1 2 3 2
Neighs:    11472 ave 16429 max 6864 min
Histogram: 2 0 1 4 2 2 0 2 2 1

Total # of neighbors = 183552
Ave neighs/atom = 59.4212
Ave special neighs/atom = 3.72936
Neighbor list builds = 11
Dangerous builds = 0
Neighbor list info ...
  update every 1 steps, delay 10 steps, check yes
  max neighbors/atom: 2000, page size: 100000
  master list distance cutoff = 16
  ghost atom cutoff = 16
  binsize = 8, bins = 6 6 6
  3 neighbor lists, perpetual/occasional/extra = 3 0 0
  (1) pair buck6d/coul/gauss/dsf, perpetual, skip from (3)
      attributes: half, newton on
      pair build: skip
      stencil: none
      bin: none
  (2) pair lj/cut, perpetual, skip from (3)
      attributes: half, newton on
      pair build: skip
      stencil: none
      bin: none
  (3) neighbor class addition, perpetual
      attributes: half, newton on
      pair build: half/bin/newton
      stencil: half/bin/3d/newton
      bin: standard
Setting up Verlet run ...
  Unit style    : real
  Current step  : 500
  Time step     : 1
WARNING: Inconsistent image flags (../domain.cpp:786)
Per MPI rank memory allocation (min/avg/max) = 22.65 | 22.72 | 22.78 Mbytes
Step Temp PotEng TotEng Press Volume Lx Ly Lz 
     500          130   -11725.311   -10528.695   -1534.5543     102002.7      46.7237      46.7237      46.7237 
    1000    114.00979    -10773.02   -9723.5893   -326.21144     102002.7      46.7237      46.7237      46.7237 
    2000    132.63473   -10573.507    -9352.639   -142.88507     102002.7      46.7237      46.7237      46.7237 
    3000    130.82593   -10597.208   -9392.9889   -222.39483     102002.7      46.7237      46.7237      46.7237 
    4000    130.20035   -10580.538   -9382.0779    31.620449     102002.7      46.7237      46.7237      46.7237 
    5000     132.1754   -10604.825   -9388.1846   -567.27655     102002.7      46.7237      46.7237      46.7237 
    6000    131.97414   -10589.204   -9374.4157   -38.263281     102002.7      46.7237      46.7237      46.7237 
    7000     133.6876   -10594.568   -9364.0078   -507.61966     102002.7      46.7237      46.7237      46.7237 
    8000    131.47189   -10620.362   -9410.1975   -445.03315     102002.7      46.7237      46.7237      46.7237 
    9000    128.97134   -10565.114   -9377.9666    -169.9042     102002.7      46.7237      46.7237      46.7237 
   10000    129.62797   -10585.974   -9392.7817   -345.58434     102002.7      46.7237      46.7237      46.7237 
   11000    132.03294   -10612.194   -9396.8648   -333.65148     102002.7      46.7237      46.7237      46.7237 
   12000    129.78003   -10622.514   -9427.9228   -186.03664     102002.7      46.7237      46.7237      46.7237 
   13000    131.01827   -10582.018   -9376.0287   -685.34777     102002.7      46.7237      46.7237      46.7237 
   14000    131.68982   -10610.216   -9398.0448   -377.50807     102002.7      46.7237      46.7237      46.7237 
   15000    128.73964   -10612.343   -9427.3283   -448.33405     102002.7      46.7237      46.7237      46.7237 
   16000    128.75599   -10596.972   -9411.8069   -337.83792     102002.7      46.7237      46.7237      46.7237 
   17000    127.93376   -10587.394   -9409.7971    101.27605     102002.7      46.7237      46.7237      46.7237 
   18000    132.44936   -10596.446   -9377.2844    -438.8453     102002.7      46.7237      46.7237      46.7237 
   19000       129.45    -10590.54   -9398.9864   -339.88318     102002.7      46.7237      46.7237      46.7237 
   20000    126.69859   -10598.338   -9432.1106    -255.7693     102002.7      46.7237      46.7237      46.7237 
   21000     131.7311     -10597.5   -9384.9497   -314.18925     102002.7      46.7237      46.7237      46.7237 
   22000    126.85233   -10574.873   -9407.2301   -175.16635     102002.7      46.7237      46.7237      46.7237 
   23000     129.9275   -10583.682   -9387.7328   -686.94595     102002.7      46.7237      46.7237      46.7237 
   24000    132.06015    -10608.94   -9393.3605   -394.16833     102002.7      46.7237      46.7237      46.7237 
   25000    130.97592   -10552.467   -9346.8674   -221.24028     102002.7      46.7237      46.7237      46.7237 
   26000    131.13228   -10584.836   -9377.7975   -737.03378     102002.7      46.7237      46.7237      46.7237 
   27000    128.81242   -10588.713   -9403.0281   -422.93506     102002.7      46.7237      46.7237      46.7237 
   28000    131.65281   -10610.661   -9398.8304   -322.28863     102002.7      46.7237      46.7237      46.7237 
   29000    128.39968   -10583.804   -9401.9184   -522.63123     102002.7      46.7237      46.7237      46.7237 
   30000    125.46828   -10597.497   -9442.5942   -459.21802     102002.7      46.7237      46.7237      46.7237 
   31000    130.40444   -10597.663   -9397.3238   -440.16965     102002.7      46.7237      46.7237      46.7237 
   32000    132.37951   -10582.129   -9363.6095   -280.26618     102002.7      46.7237      46.7237      46.7237 
   33000    127.89275   -10589.023   -9411.8031    -437.4567     102002.7      46.7237      46.7237      46.7237 
   34000    132.26248   -10590.223   -9372.7813   -626.77265     102002.7      46.7237      46.7237      46.7237 
   35000    127.72474   -10617.548   -9441.8753   -360.33719     102002.7      46.7237      46.7237      46.7237 
   36000    126.82195   -10583.337   -9415.9735   -217.34067     102002.7      46.7237      46.7237      46.7237 
   37000    133.31632   -10585.964   -9358.8222   -254.98403     102002.7      46.7237      46.7237      46.7237 
   38000    130.58291   -10598.544   -9396.5617   -343.25118     102002.7      46.7237      46.7237      46.7237 
   39000     131.5512   -10614.895   -9403.9997   -511.46019     102002.7      46.7237      46.7237      46.7237 
   40000    128.31487   -10595.159   -9414.0541   -426.96273     102002.7      46.7237      46.7237      46.7237 
   41000    132.01209   -10600.243   -9385.1058   -271.70806     102002.7      46.7237      46.7237      46.7237 
   42000    133.75389   -10608.838   -9377.6677   -527.55974     102002.7      46.7237      46.7237      46.7237 
   43000    133.40975   -10588.177   -9360.1752   -704.50593     102002.7      46.7237      46.7237      46.7237 
   44000    132.35802   -10591.988   -9373.6662   -475.12999     102002.7      46.7237      46.7237      46.7237 
   45000    132.26229   -10610.416   -9392.9762    -187.5404     102002.7      46.7237      46.7237      46.7237 
   46000    130.13927   -10586.088     -9388.19   -380.68898     102002.7      46.7237      46.7237      46.7237 
   47000    130.61683   -10596.191   -9393.8967    -345.9537     102002.7      46.7237      46.7237      46.7237 
   48000    129.05394   -10604.647   -9416.7388   -659.51209     102002.7      46.7237      46.7237      46.7237 
   49000     130.9411   -10583.224    -9377.945    -651.8451     102002.7      46.7237      46.7237      46.7237 
   50000    128.62763   -10597.624   -9413.6402   -352.91222     102002.7      46.7237      46.7237      46.7237 
   51000    129.50167   -10592.935   -9400.9059   -281.64968     102002.7      46.7237      46.7237      46.7237 
   52000    127.51297   -10589.274   -9415.5504   -116.56753     102002.7      46.7237      46.7237      46.7237 
   53000     132.3343   -10599.881   -9381.7781   -138.38351     102002.7      46.7237      46.7237      46.7237 
   54000    130.18492   -10597.902   -9399.5835   -552.25083     102002.7      46.7237      46.7237      46.7237 
   55000    133.01189   -10588.596   -9364.2563   -570.76911     102002.7      46.7237      46.7237      46.7237 
   56000    128.82384   -10612.414   -9426.6243    -368.2702     102002.7      46.7237      46.7237      46.7237 
   57000    131.65272   -10606.982    -9395.153   -607.51748     102002.7      46.7237      46.7237      46.7237 
   58000    131.89232   -10557.672   -9343.6378   -528.34481     102002.7      46.7237      46.7237      46.7237 
   59000    128.69752   -10597.906    -9413.279   -650.01156     102002.7      46.7237      46.7237      46.7237 
   60000    130.84778    -10586.82   -9382.4002   -413.45145     102002.7      46.7237      46.7237      46.7237 
   61000    131.24924   -10583.367   -9375.2518   -687.97892     102002.7      46.7237      46.7237      46.7237 
   62000    129.33365   -10599.261   -9408.7781   -351.60861     102002.7      46.7237      46.7237      46.7237 
   63000    127.24128   -10579.536   -9408.3134   -449.06426     102002.7      46.7237      46.7237      46.7237 
   64000    131.91416   -10580.736   -9366.5006   -440.94893     102002.7      46.7237      46.7237      46.7237 
   65000    131.34728    -10598.12   -9389.1023   -380.82022     102002.7      46.7237      46.7237      46.7237 
   66000    130.91106   -10581.907    -9376.905   -514.29735     102002.7      46.7237      46.7237      46.7237 
   67000    128.28104   -10611.466   -9430.6725    -468.3074     102002.7      46.7237      46.7237      46.7237 
   68000    127.25877   -10620.375   -9448.9907   -694.86257     102002.7      46.7237      46.7237      46.7237 
   69000    126.61646   -10584.822   -9419.3501   -738.22812     102002.7      46.7237      46.7237      46.7237 
   70000    130.55346   -10605.828   -9404.1168   -120.01135     102002.7      46.7237      46.7237      46.7237 
   71000     129.2112   -10572.411   -9383.0549   -260.89228     102002.7      46.7237      46.7237      46.7237 
   72000    132.30876   -10581.806   -9363.9382   -716.04477     102002.7      46.7237      46.7237      46.7237 
   73000    129.03382   -10605.449   -9417.7264   -432.47384     102002.7      46.7237      46.7237      46.7237 
   74000    129.68283   -10590.864   -9397.1667   -430.61772     102002.7      46.7237      46.7237      46.7237 
   75000    125.61754   -10609.461   -9453.1842   -364.17486     102002.7      46.7237      46.7237      46.7237 
   76000    134.62342   -10599.133   -9359.9589      -183.89     102002.7      46.7237      46.7237      46.7237 
   77000    125.54316   -10602.888   -9447.2959   -765.12211     102002.7      46.7237      46.7237      46.7237 
   78000     132.5502    -10596.95   -9376.8596    -339.5574     102002.7      46.7237      46.7237      46.7237 
   79000    127.89348   -10582.867   -9405.6405   -243.71878     102002.7      46.7237      46.7237      46.7237 
   80000    128.12108   -10578.059   -9398.7373   -497.76373     102002.7      46.7237      46.7237      46.7237 
   81000    127.67866   -10601.397   -9426.1483   -464.20037     102002.7      46.7237      46.7237      46.7237 
   82000     126.9645   -10581.932   -9413.2564   -481.50267     102002.7      46.7237      46.7237      46.7237 
   83000    126.70885   -10587.897    -9421.575   -367.16246     102002.7      46.7237      46.7237      46.7237 
   84000    130.19538   -10579.529   -9381.1138     22.74003     102002.7      46.7237      46.7237      46.7237 
   85000    128.97107   -10606.908   -9419.7623   -105.47413     102002.7      46.7237      46.7237      46.7237 
   86000    127.15808   -10610.029   -9439.5717   -581.26364     102002.7      46.7237      46.7237      46.7237 
   87000    128.32003   -10597.154   -9416.0011     -520.884     102002.7      46.7237      46.7237      46.7237 
   88000    128.76915   -10578.625   -9393.3387   -211.72619     102002.7      46.7237      46.7237      46.7237 
   89000    129.05983     -10622.6   -9434.6376   -446.10733     102002.7      46.7237      46.7237      46.7237 
   90000    131.44583   -10586.677   -9376.7524    -399.0189     102002.7      46.7237      46.7237      46.7237 
   91000    130.24226   -10583.285   -9384.4392   -154.01441     102002.7      46.7237      46.7237      46.7237 
   92000    128.42262   -10586.726   -9404.6288    -514.8557     102002.7      46.7237      46.7237      46.7237 
   93000    126.40858   -10580.988   -9417.4294   -124.79031     102002.7      46.7237      46.7237      46.7237 
   94000    131.03558   -10605.222   -9399.0732   -320.38403     102002.7      46.7237      46.7237      46.7237 
   95000    129.87041   -10634.372   -9438.9489   -543.90156     102002.7      46.7237      46.7237      46.7237 
   96000    128.56573   -10600.502   -9417.0877   -560.35597     102002.7      46.7237      46.7237      46.7237 
   97000    128.64217   -10578.109   -9393.9908   -263.58917     102002.7      46.7237      46.7237      46.7237 
   98000    131.42037   -10595.413   -9385.7228   -335.88507     102002.7      46.7237      46.7237      46.7237 
   99000    131.84695    -10604.02    -9390.403   -109.01471     102002.7      46.7237      46.7237      46.7237 
  100000    129.01991   -10573.772   -9386.1768   -539.77449     102002.7      46.7237      46.7237      46.7237 
  101000    131.06394   -10579.805   -9373.3957   -339.50182     102002.7      46.7237      46.7237      46.7237 
  102000    127.20666   -10617.942   -9447.0374   -350.70609     102002.7      46.7237      46.7237      46.7237 
  103000    129.98396   -10597.611   -9401.1419   -502.85412     102002.7      46.7237      46.7237      46.7237 
  104000    130.70594   -10605.519   -9402.4048   -547.53387     102002.7      46.7237      46.7237      46.7237 
  105000    125.94613   -10604.262   -9444.9607   -370.47984     102002.7      46.7237      46.7237      46.7237 
  106000    131.26977   -10584.286   -9375.9817   -701.95125     102002.7      46.7237      46.7237      46.7237 
  107000    131.24234   -10576.648   -9368.5958   -767.46115     102002.7      46.7237      46.7237      46.7237 
  108000    128.97368   -10613.718    -9426.549   -428.71349     102002.7      46.7237      46.7237      46.7237 
  109000    128.91805   -10613.913   -9427.2554   -501.09356     102002.7      46.7237      46.7237      46.7237 
  110000    130.51232   -10573.204    -9371.872   -382.78556     102002.7      46.7237      46.7237      46.7237 
  111000    130.22814     -10612.6    -9413.884   -460.30834     102002.7      46.7237      46.7237      46.7237 
  112000    130.11254   -10607.427   -9409.7748   -328.89469     102002.7      46.7237      46.7237      46.7237 
  113000    128.51369   -10586.558   -9403.6228   -603.10319     102002.7      46.7237      46.7237      46.7237 
  114000    131.13011   -10570.925   -9363.9059   -155.31692     102002.7      46.7237      46.7237      46.7237 
  115000    131.12715   -10596.515   -9389.5231    22.955043     102002.7      46.7237      46.7237      46.7237 
  116000    132.31805   -10578.791   -9360.8375   -202.03331     102002.7      46.7237      46.7237      46.7237 
  117000    127.62563    -10577.52   -9402.7591   -494.15926     102002.7      46.7237      46.7237      46.7237 
  118000    131.30461   -10597.593   -9388.9677   -707.62852     102002.7      46.7237      46.7237      46.7237 
  119000    130.08104   -10616.231   -9418.8689   -293.01671     102002.7      46.7237      46.7237      46.7237 
  120000    129.93932   -10576.722   -9380.6641   -163.70188     102002.7      46.7237      46.7237      46.7237 
  121000    128.76247   -10588.724   -9403.4988   -536.47023     102002.7      46.7237      46.7237      46.7237 
  122000     129.2454   -10595.313   -9405.6427   -176.84084     102002.7      46.7237      46.7237      46.7237 
  123000    128.09484   -10589.864   -9410.7837   -440.87619     102002.7      46.7237      46.7237      46.7237 
  124000    129.61114   -10610.347   -9417.3104   -340.84384     102002.7      46.7237      46.7237      46.7237 
  125000    129.80335   -10633.661   -9438.8546   -283.17747     102002.7      46.7237      46.7237      46.7237 
  126000    130.01407   -10607.863   -9411.1174   -304.93976     102002.7      46.7237      46.7237      46.7237 
  127000      130.434   -10600.528   -9399.9164   -269.37754     102002.7      46.7237      46.7237      46.7237 
  128000     132.5037   -10582.584   -9362.9214   -477.72969     102002.7      46.7237      46.7237      46.7237 
  129000    131.57464   -10583.638   -9372.5275   -214.07368     102002.7      46.7237      46.7237      46.7237 
  130000    127.85334   -10581.748   -9404.8913   -569.65465     102002.7      46.7237      46.7237      46.7237 
  131000    130.72498   -10580.594   -9377.3043   -546.43908     102002.7      46.7237      46.7237      46.7237 
  132000    131.03989   -10593.933   -9387.7446   -528.28449     102002.7      46.7237      46.7237      46.7237 
  133000    127.68772     -10585.6   -9410.2674   -469.88602     102002.7      46.7237      46.7237      46.7237 
  134000    129.55949   -10592.763   -9400.2015   -632.26392     102002.7      46.7237      46.7237      46.7237 
  135000    128.67821    -10571.51   -9387.0605   -665.01568     102002.7      46.7237      46.7237      46.7237 
  136000    131.52151   -10567.548   -9356.9267   -207.35498     102002.7      46.7237      46.7237      46.7237 
  137000    130.13602   -10576.482    -9378.614   -458.66146     102002.7      46.7237      46.7237      46.7237 
  138000     128.1814   -10589.586   -9409.7095   -418.70487     102002.7      46.7237      46.7237      46.7237 
  139000    131.10624   -10608.185    -9401.386   -479.69868     102002.7      46.7237      46.7237      46.7237 
  140000    126.88041    -10563.12   -9395.2189   -217.71445     102002.7      46.7237      46.7237      46.7237 
  141000    129.15702   -10572.529   -9383.6719   -148.80106     102002.7      46.7237      46.7237      46.7237 
  142000    129.89055   -10592.149   -9396.5406   -298.30543     102002.7      46.7237      46.7237      46.7237 
  143000    129.77249   -10552.306   -9357.7834   -497.31847     102002.7      46.7237      46.7237      46.7237 
  144000    130.22958   -10608.465   -9409.7357   -693.85688     102002.7      46.7237      46.7237      46.7237 
  145000    132.43087   -10600.663   -9381.6714   -520.80558     102002.7      46.7237      46.7237      46.7237 
  146000    130.16707   -10589.669   -9391.5152   -311.44159     102002.7      46.7237      46.7237      46.7237 
  147000    131.54869   -10584.419   -9373.5475   -589.96828     102002.7      46.7237      46.7237      46.7237 
  148000    128.91287   -10583.922   -9397.3125   -633.57946     102002.7      46.7237      46.7237      46.7237 
  149000    131.65296    -10630.88   -9419.0484   -706.71178     102002.7      46.7237      46.7237      46.7237 
  150000    130.10568   -10593.926   -9396.3365   -551.18287     102002.7      46.7237      46.7237      46.7237 
  151000    124.61039   -10593.966   -9446.9592   -382.66145     102002.7      46.7237      46.7237      46.7237 
  152000    129.29503    -10590.65   -9400.5229   -154.26514     102002.7      46.7237      46.7237      46.7237 
  153000    128.45909   -10607.985   -9425.5519   -387.75291     102002.7      46.7237      46.7237      46.7237 
  154000    130.98869   -10581.873   -9376.1557   -337.13465     102002.7      46.7237      46.7237      46.7237 
  155000    131.95159   -10595.869   -9381.2886   -394.16386     102002.7      46.7237      46.7237      46.7237 
  156000    125.37083   -10611.687   -9457.6811   -877.43399     102002.7      46.7237      46.7237      46.7237 
  157000    129.95141   -10594.312   -9398.1433   -319.57364     102002.7      46.7237      46.7237      46.7237 
  158000    129.69134   -10601.897   -9408.1219   -376.33934     102002.7      46.7237      46.7237      46.7237 
  159000    130.63947   -10586.971   -9384.4686   -391.71353     102002.7      46.7237      46.7237      46.7237 
  160000    129.49519   -10610.002   -9418.0321   -159.21522     102002.7      46.7237      46.7237      46.7237 
  161000    131.61719   -10629.154   -9417.6517   -443.58367     102002.7      46.7237      46.7237      46.7237 
  162000    125.33397   -10592.673   -9439.0064   -637.60032     102002.7      46.7237      46.7237      46.7237 
  163000    127.22973   -10593.397   -9422.2804   -385.07328     102002.7      46.7237      46.7237      46.7237 
  164000    128.64139   -10566.903   -9382.7919   -494.35755     102002.7      46.7237      46.7237      46.7237 
  165000    131.68991   -10614.639   -9402.4676   -580.91235     102002.7      46.7237      46.7237      46.7237 
  166000    132.27382   -10597.098   -9379.5517   -855.17343     102002.7      46.7237      46.7237      46.7237 
  167000    128.98436   -10594.634   -9407.3666   -633.56701     102002.7      46.7237      46.7237      46.7237 
  168000     132.1899   -10583.878   -9367.1043   -335.63121     102002.7      46.7237      46.7237      46.7237 
  169000      131.654   -10587.671   -9375.8302   -401.35499     102002.7      46.7237      46.7237      46.7237 
  170000    132.37288   -10588.406    -9369.948   -505.00377     102002.7      46.7237      46.7237      46.7237 
  171000     129.3849   -10607.075   -9416.1201   -419.97516     102002.7      46.7237      46.7237      46.7237 
  172000    129.16705    -10597.01   -9408.0611    -500.2668     102002.7      46.7237      46.7237      46.7237 
  173000    129.67134   -10599.737   -9406.1456   -675.00097     102002.7      46.7237      46.7237      46.7237 
  174000    126.83055   -10642.266   -9474.8235   -411.00803     102002.7      46.7237      46.7237      46.7237 
  175000    131.03864   -10598.091   -9391.9142   -163.85431     102002.7      46.7237      46.7237      46.7237 
  176000    131.04587   -10583.225   -9376.9819   -414.42629     102002.7      46.7237      46.7237      46.7237 
  177000    128.62507   -10579.596   -9395.6357   -271.57043     102002.7      46.7237      46.7237      46.7237 
  178000    127.77838    -10612.16    -9435.993   -484.60849     102002.7      46.7237      46.7237      46.7237 
  179000    131.86862   -10575.268   -9361.4515   -206.85827     102002.7      46.7237      46.7237      46.7237 
  180000    130.55929   -10625.647   -9423.8825   -375.86656     102002.7      46.7237      46.7237      46.7237 
  181000    123.67338   -10597.891   -9459.5091   -257.40058     102002.7      46.7237      46.7237      46.7237 
  182000    131.25101    -10566.73   -9358.5983   -233.78808     102002.7      46.7237      46.7237      46.7237 
  183000    129.12646   -10601.398   -9412.8222   -366.55978     102002.7      46.7237      46.7237      46.7237 
  184000     131.7701   -10603.828   -9390.9185    -359.4376     102002.7      46.7237      46.7237      46.7237 
  185000     133.6151   -10600.502   -9370.6098   -488.53209     102002.7      46.7237      46.7237      46.7237 
  186000    128.58153   -10591.078   -9407.5184    -510.8746     102002.7      46.7237      46.7237      46.7237 
  187000    132.67873   -10588.123   -9366.8499   -690.73447     102002.7      46.7237      46.7237      46.7237 
  188000     128.9634    -10578.58   -9391.5058   -489.98611     102002.7      46.7237      46.7237      46.7237 
  189000    130.05636   -10612.556   -9415.4211    -710.0139     102002.7      46.7237      46.7237      46.7237 
  190000    129.47326   -10626.898   -9435.1302    -583.5668     102002.7      46.7237      46.7237      46.7237 
  191000    133.30791   -10607.141   -9380.0758   -176.72542     102002.7      46.7237      46.7237      46.7237 
  192000    129.67647   -10584.947   -9391.3087   -311.30484     102002.7      46.7237      46.7237      46.7237 
  193000    130.35095   -10593.687   -9393.8404   -434.62819     102002.7      46.7237      46.7237      46.7237 
  194000    132.07977   -10586.947   -9371.1865   -257.20314     102002.7      46.7237      46.7237      46.7237 
  195000    129.05891   -10604.794   -9416.8397   -418.58455     102002.7      46.7237      46.7237      46.7237 
  196000     130.0066   -10587.564   -9390.8868   -286.98485     102002.7      46.7237      46.7237      46.7237 
  197000    130.52818   -10588.861   -9387.3824   -520.72677     102002.7      46.7237      46.7237      46.7237 
  198000    130.50798    -10603.33   -9402.0373    -438.3774     102002.7      46.7237      46.7237      46.7237 
  199000    126.78105   -10591.547   -9424.5602   -157.32229     102002.7      46.7237      46.7237      46.7237 
  200000    128.74211   -10593.962   -9408.9243    21.061341     102002.7      46.7237      46.7237      46.7237 
  201000    128.95827    -10578.26   -9391.2328   -347.74739     102002.7      46.7237      46.7237      46.7237 
  202000    132.57542   -10604.573   -9384.2503   -658.00003     102002.7      46.7237      46.7237      46.7237 
  203000    132.37649   -10607.488   -9388.9964   -338.28969     102002.7      46.7237      46.7237      46.7237 
  204000    130.67839   -10597.372   -9394.5114   -155.82233     102002.7      46.7237      46.7237      46.7237 
  205000    129.74447   -10581.866   -9387.6021   -291.76538     102002.7      46.7237      46.7237      46.7237 
  206000    129.07576    -10599.93   -9411.8213   -408.40268     102002.7      46.7237      46.7237      46.7237 
  207000    131.71706   -10605.549   -9393.1271   -677.19024     102002.7      46.7237      46.7237      46.7237 
  208000    128.27086   -10593.321    -9412.621    -836.5622     102002.7      46.7237      46.7237      46.7237 
  209000    128.52177   -10602.789   -9419.7792   -644.31851     102002.7      46.7237      46.7237      46.7237 
  210000    129.87417   -10592.486   -9397.0281   -1058.6009     102002.7      46.7237      46.7237      46.7237 
  211000    130.76604   -10596.034   -9392.3667   -405.97474     102002.7      46.7237      46.7237      46.7237 
  212000    130.06307   -10579.941   -9382.7437    -374.4791     102002.7      46.7237      46.7237      46.7237 
  213000     126.3932   -10592.744   -9429.3271   -612.42907     102002.7      46.7237      46.7237      46.7237 
  214000    124.98764   -10602.258    -9451.779   -450.81219     102002.7      46.7237      46.7237      46.7237 
  215000    132.81939   -10606.277   -9383.7084    -317.8751     102002.7      46.7237      46.7237      46.7237 
  216000    129.91023   -10592.887   -9397.0966   -308.29165     102002.7      46.7237      46.7237      46.7237 
  217000    127.91947   -10572.065   -9394.5996   -228.15058     102002.7      46.7237      46.7237      46.7237 
  218000    131.76433   -10628.995   -9416.1385   -512.74054     102002.7      46.7237      46.7237      46.7237 
  219000    131.09003   -10615.946   -9409.2958    95.282829     102002.7      46.7237      46.7237      46.7237 
  220000    131.17127   -10584.299   -9376.9013   -440.20254     102002.7      46.7237      46.7237      46.7237 
  221000    127.88822   -10611.234    -9434.056   -665.41664     102002.7      46.7237      46.7237      46.7237 
  222000     131.1845    -10602.36   -9394.8402   -217.75338     102002.7      46.7237      46.7237      46.7237 
  223000    130.79697   -10586.711   -9382.7588   -425.73776     102002.7      46.7237      46.7237      46.7237 
  224000    131.56771    -10625.13   -9414.0837   -384.73508     102002.7      46.7237      46.7237      46.7237 
  225000    132.95246   -10595.667   -9371.8743   -425.81824     102002.7      46.7237      46.7237      46.7237 
  226000    132.45855   -10567.196   -9347.9496   -659.45626     102002.7      46.7237      46.7237      46.7237 
  227000    128.25878   -10621.443   -9440.8537   -525.03203     102002.7      46.7237      46.7237      46.7237 
  228000    127.36904   -10597.605   -9425.2062   -324.92548     102002.7      46.7237      46.7237      46.7237 
  229000    131.08214   -10600.006   -9393.4283   -482.60251     102002.7      46.7237      46.7237      46.7237 
  230000    128.26634   -10585.362   -9404.7032   -243.48231     102002.7      46.7237      46.7237      46.7237 
  231000    132.41884   -10597.397   -9378.5163    -600.8031     102002.7      46.7237      46.7237      46.7237 
  232000    129.88488   -10614.294   -9418.7377   -817.46323     102002.7      46.7237      46.7237      46.7237 
  233000    129.68914   -10577.082   -9383.3269   -319.25847     102002.7      46.7237      46.7237      46.7237 
  234000    127.85698   -10600.561   -9423.6704   -374.29233     102002.7      46.7237      46.7237      46.7237 
  235000    128.18059   -10564.479     -9384.61   -771.77184     102002.7      46.7237      46.7237      46.7237 
  236000    128.72603   -10598.608   -9413.7177   -382.87947     102002.7      46.7237      46.7237      46.7237 
  237000    132.69444   -10576.828   -9355.4097   -477.37251     102002.7      46.7237      46.7237      46.7237 
  238000    129.11906   -10591.325   -9402.8179   -286.65449     102002.7      46.7237      46.7237      46.7237 
  239000    130.49687   -10583.831   -9382.6413    -253.6161     102002.7      46.7237      46.7237      46.7237 
  240000    131.89095   -10583.389    -9369.367   -678.03488     102002.7      46.7237      46.7237      46.7237 
  241000    134.05607   -10584.868   -9350.9167   -320.45241     102002.7      46.7237      46.7237      46.7237 
  242000    126.28795    -10561.44   -9398.9925   -591.12069     102002.7      46.7237      46.7237      46.7237 
  243000    130.00135   -10595.269   -9398.6405   -379.69083     102002.7      46.7237      46.7237      46.7237 
  244000    131.63371   -10599.808   -9388.1535    -552.5284     102002.7      46.7237      46.7237      46.7237 
  245000    133.77522   -10551.565   -9320.1987   -440.78246     102002.7      46.7237      46.7237      46.7237 
  246000    129.49554   -10582.722    -9390.749   -927.65912     102002.7      46.7237      46.7237      46.7237 
  247000    132.30229   -10585.757   -9367.9491   -917.89284     102002.7      46.7237      46.7237      46.7237 
  248000    129.54374   -10601.367     -9408.95   -559.76495     102002.7      46.7237      46.7237      46.7237 
  249000    128.74373   -10590.557   -9405.5046   -413.43866     102002.7      46.7237      46.7237      46.7237 
  250000    129.66786   -10607.988   -9414.4284   -452.56578     102002.7      46.7237      46.7237      46.7237 
  251000    132.89691    -10560.68   -9337.3988   -445.41991     102002.7      46.7237      46.7237      46.7237 
  252000    128.79773   -10594.372   -9408.8225   -634.02088     102002.7      46.7237      46.7237      46.7237 
  253000     127.5039    -10600.49     -9426.85   -435.69448     102002.7      46.7237      46.7237      46.7237 
  254000    131.77149   -10601.834   -9388.9119   -349.75586     102002.7      46.7237      46.7237      46.7237 
  255000    127.92037   -10612.467   -9434.9926   -389.65271     102002.7      46.7237      46.7237      46.7237 
  256000    130.26266   -10583.546   -9384.5118   -473.52836     102002.7      46.7237      46.7237      46.7237 
  257000    132.54684   -10559.566   -9339.5067   -839.07276     102002.7      46.7237      46.7237      46.7237 
  258000      129.828   -10580.338   -9385.3048   -396.54488     102002.7      46.7237      46.7237      46.7237 
  259000    131.16075    -10601.38   -9394.0791   -556.44782     102002.7      46.7237      46.7237      46.7237 
  260000    128.04595   -10622.398   -9443.7684   -661.99896     102002.7      46.7237      46.7237      46.7237 
  261000    132.74876   -10592.267   -9370.3492   -324.58133     102002.7      46.7237      46.7237      46.7237 
  262000    127.18263   -10574.623   -9403.9397   -307.97405     102002.7      46.7237      46.7237      46.7237 
  263000    125.63359   -10601.026   -9444.6015   -10.792844     102002.7      46.7237      46.7237      46.7237 
  264000    130.17062    -10576.92   -9378.7332   -677.28079     102002.7      46.7237      46.7237      46.7237 
  265000    127.15337   -10573.414        -9403    -671.8326     102002.7      46.7237      46.7237      46.7237 
  266000    133.26824    -10624.72   -9398.0207   -522.78135     102002.7      46.7237      46.7237      46.7237 
  267000    127.94174   -10612.716   -9435.0456    -469.0072     102002.7      46.7237      46.7237      46.7237 
  268000     128.9567   -10579.213   -9392.1995   -351.85649     102002.7      46.7237      46.7237      46.7237 
  269000    132.17952   -10594.118     -9377.44   -514.49127     102002.7      46.7237      46.7237      46.7237 
  270000    126.30431   -10610.037   -9447.4384   -491.08472     102002.7      46.7237      46.7237      46.7237 
  271000    130.23163   -10621.949   -9423.2007   -120.00539     102002.7      46.7237      46.7237      46.7237 
  272000    128.58353   -10585.399   -9401.8208   -386.78598     102002.7      46.7237      46.7237      46.7237 
  273000    131.43514   -10592.232    -9382.406   -337.83465     102002.7      46.7237      46.7237      46.7237 
  274000    131.62075   -10590.708    -9379.173   -446.38253     102002.7      46.7237      46.7237      46.7237 
  275000     130.8244   -10591.735   -9387.5307   -535.05565     102002.7      46.7237      46.7237      46.7237 
  276000    130.84531   -10591.714   -9387.3171   -262.09097     102002.7      46.7237      46.7237      46.7237 
  277000     132.0055   -10579.488   -9364.4116   -385.89428     102002.7      46.7237      46.7237      46.7237 
  278000    130.71217   -10613.305   -9410.1333   -185.72937     102002.7      46.7237      46.7237      46.7237 
  279000    132.42458   -10582.608   -9363.6741   -286.76999     102002.7      46.7237      46.7237      46.7237 
  280000    127.18416    -10575.59   -9404.8925   -755.70061     102002.7      46.7237      46.7237      46.7237 
  281000     132.8593   -10586.042   -9363.1069   -381.79367     102002.7      46.7237      46.7237      46.7237 
  282000     126.2757   -10607.306   -9444.9706   -543.41023     102002.7      46.7237      46.7237      46.7237 
  283000    129.93793   -10606.874   -9410.8287   -283.49569     102002.7      46.7237      46.7237      46.7237 
  284000     129.7867   -10580.454   -9385.8013   -484.70429     102002.7      46.7237      46.7237      46.7237 
  285000      126.087   -10579.006   -9418.4076   -377.11578     102002.7      46.7237      46.7237      46.7237 
  286000     132.8693   -10587.472    -9364.444   -345.04426     102002.7      46.7237      46.7237      46.7237 
  287000    135.16379   -10603.547   -9359.3992   -474.93991     102002.7      46.7237      46.7237      46.7237 
  288000    129.15002   -10608.609   -9419.8164   -224.00142     102002.7      46.7237      46.7237      46.7237 
  289000    127.94652   -10610.822   -9433.1073   -280.50142     102002.7      46.7237      46.7237      46.7237 
  290000    130.95676   -10594.414   -9388.9912   -368.38838     102002.7      46.7237      46.7237      46.7237 
  291000    125.76601   -10583.419   -9425.7757   -401.57732     102002.7      46.7237      46.7237      46.7237 
  292000    127.01708   -10587.246   -9418.0871   -558.01399     102002.7      46.7237      46.7237      46.7237 
  293000    130.90758   -10610.675   -9405.7042   -468.83227     102002.7      46.7237      46.7237      46.7237 
  294000    129.16019   -10611.269   -9422.3833   -402.94458     102002.7      46.7237      46.7237      46.7237 
  295000    130.45675   -10593.195   -9392.3747   -465.39207     102002.7      46.7237      46.7237      46.7237 
  296000    132.00359   -10591.518   -9376.4588   -358.79482     102002.7      46.7237      46.7237      46.7237 
  297000    129.71763   -10579.436   -9385.4192   -171.40358     102002.7      46.7237      46.7237      46.7237 
  298000    128.10309   -10595.577   -9416.4212   -632.62485     102002.7      46.7237      46.7237      46.7237 
  299000    129.10621   -10605.597   -9417.2078   -320.72884     102002.7      46.7237      46.7237      46.7237 
  300000    131.41186    -10588.08   -9378.4681    -71.01158     102002.7      46.7237      46.7237      46.7237 
  301000     127.8114   -10615.487   -9439.0164   -477.64743     102002.7      46.7237      46.7237      46.7237 
  302000    128.52509   -10594.199   -9411.1585   -773.50554     102002.7      46.7237      46.7237      46.7237 
  303000    131.24659   -10608.013    -9399.922   -435.66292     102002.7      46.7237      46.7237      46.7237 
  304000    130.74887   -10600.634   -9397.1242   -342.93631     102002.7      46.7237      46.7237      46.7237 
  305000    132.97509   -10571.916    -9347.915   -411.92983     102002.7      46.7237      46.7237      46.7237 
  306000    130.20929    -10602.12   -9403.5766   -383.17467     102002.7      46.7237      46.7237      46.7237 
  307000    133.39943   -10601.558    -9373.651    46.265927     102002.7      46.7237      46.7237      46.7237 
  308000    130.01816   -10580.352   -9383.5682   -173.00413     102002.7      46.7237      46.7237      46.7237 
  309000    132.84794   -10618.316   -9395.4852   -219.39987     102002.7      46.7237      46.7237      46.7237 
  310000    128.28373   -10580.077   -9399.2585    11.275545     102002.7      46.7237      46.7237      46.7237 
  311000    129.31235   -10586.074   -9395.7877   -205.59087     102002.7      46.7237      46.7237      46.7237 
  312000    128.66753   -10590.749   -9406.3972   -205.97509     102002.7      46.7237      46.7237      46.7237 
  313000     130.3953   -10593.625   -9393.3698    -462.0782     102002.7      46.7237      46.7237      46.7237 
  314000    128.88995   -10587.745   -9401.3463   -645.47954     102002.7      46.7237      46.7237      46.7237 
  315000    130.01051   -10576.907   -9380.1938   -816.28171     102002.7      46.7237      46.7237      46.7237 
  316000    129.41272   -10579.258   -9388.0479   -356.68192     102002.7      46.7237      46.7237      46.7237 
  317000    131.78717    -10597.47   -9384.4033   -533.17541     102002.7      46.7237      46.7237      46.7237 
  318000    131.53602   -10590.292   -9379.5367   -390.97303     102002.7      46.7237      46.7237      46.7237 
  319000     127.6418   -10581.289   -9406.3791   -485.56759     102002.7      46.7237      46.7237      46.7237 
  320000    131.28197   -10602.519   -9394.1028    -327.2229     102002.7      46.7237      46.7237      46.7237 
  321000    128.50119   -10599.182   -9416.3614   -406.60938     102002.7      46.7237      46.7237      46.7237 
  322000    132.73481   -10563.877   -9342.0869   -278.04936     102002.7      46.7237      46.7237      46.7237 
  323000    129.54821   -10584.903   -9392.4455   -490.39335     102002.7      46.7237      46.7237      46.7237 
  324000    129.51576   -10562.866   -9370.7073   -444.49189     102002.7      46.7237      46.7237      46.7237 
  325000    127.30762   -10572.263   -9400.4291   -320.78729     102002.7      46.7237      46.7237      46.7237 
  326000     128.3227   -10609.111   -9427.9336    -478.7732     102002.7      46.7237      46.7237      46.7237 
  327000    133.41665   -10596.753   -9368.6877   -825.39451     102002.7      46.7237      46.7237      46.7237 
  328000    130.74952   -10592.703   -9389.1874   -693.56259     102002.7      46.7237      46.7237      46.7237 
  329000    127.04089   -10608.202   -9438.8233   -437.38832     102002.7      46.7237      46.7237      46.7237 
  330000    130.96668   -10615.255   -9409.7407   -542.54954     102002.7      46.7237      46.7237      46.7237 
  331000    131.09196   -10570.257   -9363.5899   -234.15398     102002.7      46.7237      46.7237      46.7237 
  332000    128.97654   -10593.185   -9405.9891   -429.25446     102002.7      46.7237      46.7237      46.7237 
  333000    127.14547   -10581.002   -9410.6611   -537.92048     102002.7      46.7237      46.7237      46.7237 
  334000     129.4085   -10601.351   -9410.1792   -552.88954     102002.7      46.7237      46.7237      46.7237 
  335000    131.54738   -10632.716   -9421.8566     -640.562     102002.7      46.7237      46.7237      46.7237 
  336000    129.75656   -10609.679    -9415.303    -455.7079     102002.7      46.7237      46.7237      46.7237 
  337000    130.38362    -10571.44   -9371.2928   -435.93849     102002.7      46.7237      46.7237      46.7237 
  338000    128.22747   -10586.069   -9405.7682   -842.06345     102002.7      46.7237      46.7237      46.7237 
  339000    129.99176   -10581.812   -9385.2719   -596.56655     102002.7      46.7237      46.7237      46.7237 
  340000      131.524   -10563.185   -9352.5409   -357.96261     102002.7      46.7237      46.7237      46.7237 
  341000    127.59503   -10579.569   -9405.0902   -615.19482     102002.7      46.7237      46.7237      46.7237 
  342000    128.19233   -10602.083   -9422.1052   -440.61723     102002.7      46.7237      46.7237      46.7237 
  343000     129.9236   -10578.146   -9382.2326   -260.15732     102002.7      46.7237      46.7237      46.7237 
  344000    134.04303   -10615.174   -9381.3424   -301.87488     102002.7      46.7237      46.7237      46.7237 
  345000    128.08476   -10608.472   -9429.4851   -544.49899     102002.7      46.7237      46.7237      46.7237 
  346000    129.18659   -10588.058   -9398.9288   -535.85107     102002.7      46.7237      46.7237      46.7237 
  347000    129.22896   -10604.126   -9414.6065   -311.37531     102002.7      46.7237      46.7237      46.7237 
  348000     128.8314   -10593.056   -9407.1962   -132.67603     102002.7      46.7237      46.7237      46.7237 
  349000    129.61003   -10571.227   -9378.2001   -202.96348     102002.7      46.7237      46.7237      46.7237 
  350000    131.21015   -10594.497    -9386.742   -301.92664     102002.7      46.7237      46.7237      46.7237 
  351000    130.29351   -10577.785   -9378.4673   -255.94825     102002.7      46.7237      46.7237      46.7237 
  352000     130.4801   -10578.602   -9377.5662    -244.2777     102002.7      46.7237      46.7237      46.7237 
  353000    129.63662   -10603.959   -9410.6879   -227.60073     102002.7      46.7237      46.7237      46.7237 
  354000    131.73902   -10580.941   -9368.3175   -294.05487     102002.7      46.7237      46.7237      46.7237 
  355000    130.67734   -10608.931   -9406.0797    -66.55414     102002.7      46.7237      46.7237      46.7237 
  356000    132.15325   -10611.603   -9395.1668   -253.10964     102002.7      46.7237      46.7237      46.7237 
  357000    131.16006   -10631.635   -9424.3403   -373.89934     102002.7      46.7237      46.7237      46.7237 
  358000    132.43798   -10600.842    -9381.785   -237.17836     102002.7      46.7237      46.7237      46.7237 
  359000    131.99452   -10589.464   -9374.4885   -148.03523     102002.7      46.7237      46.7237      46.7237 
  360000    130.88384    -10609.14   -9404.3883   -563.81474     102002.7      46.7237      46.7237      46.7237 
  361000    131.92098   -10585.233   -9370.9342   -358.08442     102002.7      46.7237      46.7237      46.7237 
  362000    133.60976   -10594.124   -9364.2805   -327.97516     102002.7      46.7237      46.7237      46.7237 
  363000     132.3082   -10602.949   -9385.0862   -829.82935     102002.7      46.7237      46.7237      46.7237 
  364000    128.28562   -10623.015   -9442.1793   -334.69831     102002.7      46.7237      46.7237      46.7237 
  365000    128.02348   -10620.378   -9441.9545   -403.33852     102002.7      46.7237      46.7237      46.7237 
  366000    130.82518   -10600.447    -9396.235   -306.39732     102002.7      46.7237      46.7237      46.7237 
  367000     127.8875   -10570.945   -9393.7739   -296.23473     102002.7      46.7237      46.7237      46.7237 
  368000    128.03951   -10596.855   -9418.2844   -608.15777     102002.7      46.7237      46.7237      46.7237 
  369000    129.32319    -10614.78   -9424.3936   -441.16327     102002.7      46.7237      46.7237      46.7237 
  370000    132.74208   -10609.193    -9387.336   -506.54947     102002.7      46.7237      46.7237      46.7237 
  371000    128.61543    -10612.35   -9428.4777   -286.72947     102002.7      46.7237      46.7237      46.7237 
  372000    129.52288   -10606.742   -9414.5176   -102.37059     102002.7      46.7237      46.7237      46.7237 
  373000    132.62507   -10579.674   -9358.8944   -518.89483     102002.7      46.7237      46.7237      46.7237 
  374000    128.05311   -10581.206   -9402.5107   -515.83989     102002.7      46.7237      46.7237      46.7237 
  375000    131.03833   -10571.761   -9365.5872   -475.75329     102002.7      46.7237      46.7237      46.7237 
  376000    131.41703   -10598.956   -9389.2958   -352.14987     102002.7      46.7237      46.7237      46.7237 
  377000    130.73576   -10614.418   -9411.0289   -212.42088     102002.7      46.7237      46.7237      46.7237 
  378000    128.20601    -10601.85   -9421.7471   -487.16969     102002.7      46.7237      46.7237      46.7237 
  379000    129.95761   -10615.432   -9419.2058   -706.12135     102002.7      46.7237      46.7237      46.7237 
  380000    128.83566   -10605.189   -9419.2902   -606.41178     102002.7      46.7237      46.7237      46.7237 
  381000    128.06635   -10570.883   -9392.0657   -414.96785     102002.7      46.7237      46.7237      46.7237 
  382000    129.58606   -10597.679   -9404.8723   -389.15176     102002.7      46.7237      46.7237      46.7237 
  383000    129.86821   -10616.268   -9420.8644   -646.87084     102002.7      46.7237      46.7237      46.7237 
  384000     129.9439   -10609.376   -9413.2765   -504.14338     102002.7      46.7237      46.7237      46.7237 
  385000    129.16841   -10639.107    -9450.145   -497.17432     102002.7      46.7237      46.7237      46.7237 
  386000    129.77935   -10571.232    -9376.647   -317.25668     102002.7      46.7237      46.7237      46.7237 
  387000    129.88859    -10621.69   -9426.0987   -397.29107     102002.7      46.7237      46.7237      46.7237 
  388000    131.31707   -10625.147   -9416.4077   -669.46153     102002.7      46.7237      46.7237      46.7237 
  389000    130.16101    -10595.31   -9397.2113   -363.65253     102002.7      46.7237      46.7237      46.7237 
  390000    128.73067   -10591.449   -9406.5164     -616.324     102002.7      46.7237      46.7237      46.7237 
  391000     133.7568   -10608.065   -9376.8679   -415.22642     102002.7      46.7237      46.7237      46.7237 
  392000    129.65098   -10600.957   -9407.5532   -287.20401     102002.7      46.7237      46.7237      46.7237 
  393000    128.43053   -10609.034   -9426.8645    -364.6025     102002.7      46.7237      46.7237      46.7237 
  394000    128.52031   -10599.517   -9416.5213   -427.66522     102002.7      46.7237      46.7237      46.7237 
  395000    130.64817   -10588.251    -9385.668   -321.62932     102002.7      46.7237      46.7237      46.7237 
  396000     129.7388   -10622.702   -9428.4901   -230.09414     102002.7      46.7237      46.7237      46.7237 
  397000    128.33128    -10613.08   -9431.8239   -371.83949     102002.7      46.7237      46.7237      46.7237 
  398000    132.38789   -10577.013   -9358.4167   -368.23558     102002.7      46.7237      46.7237      46.7237 
  399000     130.9287   -10587.895   -9382.7305   -569.05336     102002.7      46.7237      46.7237      46.7237 
  400000    131.78744    -10615.55   -9402.4804   -401.97817     102002.7      46.7237      46.7237      46.7237 
  401000    126.79775   -10597.807   -9430.6667   -433.65507     102002.7      46.7237      46.7237      46.7237 
  402000    131.98478   -10602.494   -9387.6085   -902.94505     102002.7      46.7237      46.7237      46.7237 
  403000     132.1646   -10584.781   -9368.2403   -650.89347     102002.7      46.7237      46.7237      46.7237 
  404000    132.13256    -10584.89   -9368.6444   -439.51081     102002.7      46.7237      46.7237      46.7237 
  405000    129.22263   -10611.507   -9422.0463   -562.72038     102002.7      46.7237      46.7237      46.7237 
  406000     132.6564   -10593.087   -9372.0189   -329.51377     102002.7      46.7237      46.7237      46.7237 
  407000    133.89377   -10610.619   -9378.1618   -417.41262     102002.7      46.7237      46.7237      46.7237 
  408000    127.98065   -10604.046   -9426.0172   -464.46232     102002.7      46.7237      46.7237      46.7237 
  409000    132.79562   -10571.037   -9348.6875   -556.00615     102002.7      46.7237      46.7237      46.7237 
  410000    125.49862   -10567.292   -9412.1092   -645.92618     102002.7      46.7237      46.7237      46.7237 
  411000    130.16061   -10591.392   -9393.2969   -554.93869     102002.7      46.7237      46.7237      46.7237 
  412000    132.25483   -10582.089   -9364.7175   -368.14436     102002.7      46.7237      46.7237      46.7237 
  413000    131.53753   -10599.865   -9389.0965   -721.84233     102002.7      46.7237      46.7237      46.7237 
  414000    126.62581   -10580.382   -9414.8244   -384.75997     102002.7      46.7237      46.7237      46.7237 
  415000    127.40781   -10585.784   -9413.0281   -621.09236     102002.7      46.7237      46.7237      46.7237 
  416000    130.50406   -10588.347   -9387.0909   -629.93098     102002.7      46.7237      46.7237      46.7237 
  417000    130.68907   -10617.429   -9414.4701   -324.61569     102002.7      46.7237      46.7237      46.7237 
  418000    128.63454   -10606.728   -9422.6802   -516.27646     102002.7      46.7237      46.7237      46.7237 
  419000    129.28482   -10610.172   -9420.1382   -322.36824     102002.7      46.7237      46.7237      46.7237 
  420000    130.97241    -10604.26   -9398.6924   -363.63486     102002.7      46.7237      46.7237      46.7237 
  421000    130.33546   -10609.041   -9409.3364   -124.32798     102002.7      46.7237      46.7237      46.7237 
  422000    129.88065   -10629.439   -9433.9215   -372.58006     102002.7      46.7237      46.7237      46.7237 
  423000    131.28373   -10575.789   -9367.3562   -462.54858     102002.7      46.7237      46.7237      46.7237 
  424000    129.23612   -10591.357   -9401.7722   -251.10681     102002.7      46.7237      46.7237      46.7237 
  425000    130.38789   -10551.537   -9351.3503    -583.0741     102002.7      46.7237      46.7237      46.7237 
  426000    129.77934   -10601.771   -9407.1855   -304.97302     102002.7      46.7237      46.7237      46.7237 
  427000    130.98259   -10596.559   -9390.8979   -746.71149     102002.7      46.7237      46.7237      46.7237 
  428000    132.60598    -10602.72   -9382.1158   -890.96376     102002.7      46.7237      46.7237      46.7237 
  429000    131.20526   -10584.876   -9377.1655   -491.55897     102002.7      46.7237      46.7237      46.7237 
  430000    129.42252   -10603.477   -9412.1762   -475.00873     102002.7      46.7237      46.7237      46.7237 
  431000     131.2071   -10578.998   -9371.2708     -414.609     102002.7      46.7237      46.7237      46.7237 
  432000     129.3395   -10592.499   -9401.9621   -365.28854     102002.7      46.7237      46.7237      46.7237 
  433000    127.00466   -10610.301   -9441.2559   -129.63151     102002.7      46.7237      46.7237      46.7237 
  434000    128.25294   -10577.488   -9396.9527   -330.85867     102002.7      46.7237      46.7237      46.7237 
  435000    130.67907   -10595.619   -9392.7516   -540.92016     102002.7      46.7237      46.7237      46.7237 
  436000    130.29653   -10590.411   -9391.0653   -406.31434     102002.7      46.7237      46.7237      46.7237 
  437000    130.48306   -10584.126    -9383.063   -495.07007     102002.7      46.7237      46.7237      46.7237 
  438000    129.12687   -10582.702   -9394.1228   -519.59471     102002.7      46.7237      46.7237      46.7237 
  439000    130.35621   -10601.616   -9401.7208   -173.33533     102002.7      46.7237      46.7237      46.7237 
  440000    129.08604   -10589.098   -9400.8949   -610.00961     102002.7      46.7237      46.7237      46.7237 
  441000     130.1126   -10611.464   -9413.8107   -582.02599     102002.7      46.7237      46.7237      46.7237 
  442000    130.22994   -10582.551   -9383.8183   -533.51049     102002.7      46.7237      46.7237      46.7237 
  443000     132.6424   -10576.558   -9355.6185   -500.84809     102002.7      46.7237      46.7237      46.7237 
  444000     128.2961   -10574.099   -9393.1668   -599.76208     102002.7      46.7237      46.7237      46.7237 
  445000    131.17172   -10570.354   -9362.9525   -342.43641     102002.7      46.7237      46.7237      46.7237 
  446000    131.37081   -10588.834   -9379.6001   -441.94246     102002.7      46.7237      46.7237      46.7237 
  447000    131.03757   -10606.067   -9399.9002   -712.22577     102002.7      46.7237      46.7237      46.7237 
  448000    128.17682   -10607.301    -9427.467   -540.75262     102002.7      46.7237      46.7237      46.7237 
  449000    130.07554   -10596.861   -9399.5489    -834.5218     102002.7      46.7237      46.7237      46.7237 
  450000    131.73516   -10618.465   -9405.8771   -445.04025     102002.7      46.7237      46.7237      46.7237 
  451000    127.44177   -10558.847   -9385.7781   -624.35843     102002.7      46.7237      46.7237      46.7237 
  452000    128.36658   -10598.536    -9416.955   -548.70909     102002.7      46.7237      46.7237      46.7237 
  453000    130.58464    -10577.26   -9375.2626   -442.45839     102002.7      46.7237      46.7237      46.7237 
  454000    135.55408   -10603.124   -9355.3835   -814.75357     102002.7      46.7237      46.7237      46.7237 
  455000    128.41554   -10599.502   -9417.4699   -627.21964     102002.7      46.7237      46.7237      46.7237 
  456000    129.70394   -10591.839   -9397.9482   -526.34058     102002.7      46.7237      46.7237      46.7237 
  457000     128.1045   -10610.605   -9431.4358    -382.0272     102002.7      46.7237      46.7237      46.7237 
  458000    130.62024   -10578.833    -9376.507   -57.218297     102002.7      46.7237      46.7237      46.7237 
  459000    130.54768   -10589.354   -9387.6964   -325.84863     102002.7      46.7237      46.7237      46.7237 
  460000    134.30327   -10590.861   -9354.6344   -490.43115     102002.7      46.7237      46.7237      46.7237 
  461000    129.32673   -10582.855   -9392.4357    -432.6641     102002.7      46.7237      46.7237      46.7237 
  462000    131.94428   -10610.085   -9395.5721   -478.09756     102002.7      46.7237      46.7237      46.7237 
  463000    128.13373   -10613.466   -9434.0278   -446.27583     102002.7      46.7237      46.7237      46.7237 
  464000    127.55177   -10577.434   -9403.3527   -251.77745     102002.7      46.7237      46.7237      46.7237 
  465000    129.95247   -10610.677    -9414.498   -643.38916     102002.7      46.7237      46.7237      46.7237 
  466000    128.32854   -10575.625   -9394.3944   -223.42609     102002.7      46.7237      46.7237      46.7237 
  467000    131.14187   -10592.669   -9385.5419   -231.65811     102002.7      46.7237      46.7237      46.7237 
  468000    128.09251   -10595.253    -9416.195   -395.20193     102002.7      46.7237      46.7237      46.7237 
  469000    131.10212   -10600.858   -9394.0974   -465.51161     102002.7      46.7237      46.7237      46.7237 
  470000    133.66746   -10594.445   -9364.0706   -440.77188     102002.7      46.7237      46.7237      46.7237 
  471000    126.17738    -10566.53   -9405.0994    -349.5619     102002.7      46.7237      46.7237      46.7237 
  472000    131.34166   -10570.072   -9361.1057    -445.4697     102002.7      46.7237      46.7237      46.7237 
  473000    132.45451   -10601.918   -9382.7084   -525.65103     102002.7      46.7237      46.7237      46.7237 
  474000    130.67566   -10598.713    -9395.877   -340.25554     102002.7      46.7237      46.7237      46.7237 
  475000    130.18433   -10619.202   -9420.8886   -409.57874     102002.7      46.7237      46.7237      46.7237 
  476000    131.47881   -10600.616   -9390.3875   -512.39489     102002.7      46.7237      46.7237      46.7237 
  477000    128.46382   -10578.049   -9395.5726   -577.00295     102002.7      46.7237      46.7237      46.7237 
  478000    132.87932   -10587.442   -9364.3223   -30.986391     102002.7      46.7237      46.7237      46.7237 
  479000    129.73563   -10589.074   -9394.8915   -170.65256     102002.7      46.7237      46.7237      46.7237 
  480000    131.00801   -10610.762   -9404.8673   -638.60725     102002.7      46.7237      46.7237      46.7237 
  481000    127.24516   -10598.517   -9427.2578    -295.3295     102002.7      46.7237      46.7237      46.7237 
  482000    128.51687   -10597.467   -9414.5027   -352.90605     102002.7      46.7237      46.7237      46.7237 
  483000      124.778   -10577.871    -9429.322   -227.78993     102002.7      46.7237      46.7237      46.7237 
  484000    128.20071   -10592.547   -9412.4931   -371.82211     102002.7      46.7237      46.7237      46.7237 
  485000    128.98374   -10622.706   -9435.4438   -208.16671     102002.7      46.7237      46.7237      46.7237 
  486000    129.36409   -10587.361   -9396.5982   -304.37445     102002.7      46.7237      46.7237      46.7237 
  487000    130.59829   -10564.824   -9362.7003   -171.65838     102002.7      46.7237      46.7237      46.7237 
  488000    130.88428   -10591.784   -9387.0279   -495.46822     102002.7      46.7237      46.7237      46.7237 
  489000    133.06612   -10578.676    -9353.837   -457.12215     102002.7      46.7237      46.7237      46.7237 
  490000      130.244   -10615.409   -9416.5464   -58.976911     102002.7      46.7237      46.7237      46.7237 
  491000    131.42867   -10565.439   -9355.6719   -366.97971     102002.7      46.7237      46.7237      46.7237 
  492000     126.3314   -10612.606   -9449.7579    -594.4216     102002.7      46.7237      46.7237      46.7237 
  493000    128.80982   -10585.993   -9400.3319   -889.88688     102002.7      46.7237      46.7237      46.7237 
  494000    133.33157   -10592.437   -9365.1543   -514.32795     102002.7      46.7237      46.7237      46.7237 
  495000    129.99086   -10590.841   -9394.3087   -476.47507     102002.7      46.7237      46.7237      46.7237 
  496000    131.71729   -10605.957   -9393.5331    -234.2583     102002.7      46.7237      46.7237      46.7237 
  497000     129.7467   -10593.189   -9398.9043   -392.09923     102002.7      46.7237      46.7237      46.7237 
  498000    132.78956   -10578.114   -9355.8204   -445.97467     102002.7      46.7237      46.7237      46.7237 
  499000    125.04901   -10584.366   -9433.3217   -436.16691     102002.7      46.7237      46.7237      46.7237 
  500000    129.40132   -10609.626   -9418.5206   -379.76326     102002.7      46.7237      46.7237      46.7237 
  500500    127.86777   -10607.607   -9430.6176   -310.35996     102002.7      46.7237      46.7237      46.7237 
Loop time of 1743.71 on 16 procs for 500000 steps with 3089 atoms

Performance: 24.775 ns/day, 0.969 hours/ns, 286.745 timesteps/s
99.8% CPU use with 16 MPI tasks x no OpenMP threads

MPI task timing breakdown:
Section |  min time  |  avg time  |  max time  |%varavg| %total
---------------------------------------------------------------
Pair    | 937.28     | 1115.4     | 1264.9     | 252.0 | 63.96
Bond    | 125.69     | 174.57     | 219.51     | 323.1 | 10.01
Neigh   | 17.131     | 17.203     | 17.266     |   1.3 |  0.99
Comm    | 232.68     | 418.61     | 643.44     | 562.1 | 24.01
Output  | 0.021839   | 0.022747   | 0.027131   |   0.8 |  0.00
Modify  | 9.0151     | 11.055     | 13.151     |  48.1 |  0.63
Other   |            | 6.885      |            |       |  0.39

Nlocal:    193.062 ave 249 max 162 min
Histogram: 4 3 0 2 3 1 0 2 0 1
Nghost:    3922.12 ave 3942 max 3872 min
Histogram: 1 0 1 0 2 0 2 1 5 4
Neighs:    11461.7 ave 15302 max 8885 min
Histogram: 2 0 5 3 1 1 2 1 0 1

Total # of neighbors = 183387
Ave neighs/atom = 59.3678
Ave special neighs/atom = 3.72936
Neighbor list builds = 5168
Dangerous builds = 0
Neighbor list info ...
  update every 1 steps, delay 10 steps, check yes
  max neighbors/atom: 2000, page size: 100000
  master list distance cutoff = 16
  ghost atom cutoff = 16
  binsize = 8, bins = 6 6 6
  3 neighbor lists, perpetual/occasional/extra = 3 0 0
  (1) pair buck6d/coul/gauss/dsf, perpetual, skip from (3)
      attributes: half, newton on
      pair build: skip
      stencil: none
      bin: none
  (2) pair lj/cut, perpetual, skip from (3)
      attributes: half, newton on
      pair build: skip
      stencil: none
      bin: none
  (3) neighbor class addition, perpetual
      attributes: half, newton on
      pair build: half/bin/newton
      stencil: half/bin/3d/newton
      bin: standard
Setting up Verlet run ...
  Unit style    : real
  Current step  : 500500
  Time step     : 1
WARNING: Inconsistent image flags (../domain.cpp:786)
Per MPI rank memory allocation (min/avg/max) = 22.78 | 23.27 | 23.43 Mbytes
Step Time TotEng KinEng PotEng E_mol E_pair Temp Pxx Pyy Pzz Pxy Pxz Pyz Cella Cellb Cellc CellAlpha CellBeta CellGamma Volume Press 
  500500       500000   -9430.6176    1176.9898   -10607.607    4353.7337   -14961.341    127.86777    65.680528   -610.00046   -386.75994    72.947176   -117.53656    53.168549      46.7237      46.7237      46.7237           90           90           90     102002.7   -310.35996 
  501000       500500   -9364.2019    1186.6823   -10550.884    4405.1831   -14956.067    128.92077    109.27442   -132.45357   -425.76175    112.62595   -150.04071    212.10667      46.7237      46.7237      46.7237           90           90           90     102002.7   -149.64697 
  502000       501500   -9406.0797     1213.821   -10619.901    4368.0194    -14987.92     131.8691    -666.6247   -726.95717   -559.39329    16.611884     -202.376    162.26891      46.7237      46.7237      46.7237           90           90           90     102002.7   -650.99172 
  503000       502500   -9459.3292    1144.2477   -10603.577    4360.8455   -14964.422    124.31068    105.23977   -118.32808   -491.30014   -65.956889    160.75234    138.45334      46.7237      46.7237      46.7237           90           90           90     102002.7   -168.12948 
  504000       503500    -9342.171    1230.0644   -10572.235    4388.9474   -14961.183    133.63378    368.04202   -118.03832   -467.75506    81.502725   -244.90501    180.75845      46.7237      46.7237      46.7237           90           90           90     102002.7   -72.583788 
  505000       504500   -9402.4836    1190.1278   -10592.611    4364.0637   -14956.675    129.29508   -378.01074      -364.81   -186.81641   -84.790454   -171.90532   -93.967345      46.7237      46.7237      46.7237           90           90           90     102002.7   -309.87905 
  506000       505500   -9394.7664     1177.343   -10572.109    4371.6567   -14943.766    127.90615     9.646229   -18.797093   -338.61616    34.225124    44.884825     49.95582      46.7237      46.7237      46.7237           90           90           90     102002.7   -115.92234 
  507000       506500   -9423.2926    1182.4252   -10605.718     4350.068   -14955.786    128.45828    -962.6362   -724.63564   -219.13015    59.848355    203.15509   -306.89633      46.7237      46.7237      46.7237           90           90           90     102002.7   -635.46733 
  508000       507500   -9382.6871    1218.3424    -10601.03    4379.2437   -14980.273    132.36031   -619.13604   -275.51722     -28.3836    71.897502    261.64988   -30.890656      46.7237      46.7237      46.7237           90           90           90     102002.7   -307.67896 
  509000       508500   -9384.5666    1216.4034    -10600.97     4340.322   -14941.292    132.14965    -239.3418   -525.30005   -347.95607   -56.969551    57.548668   -144.88173      46.7237      46.7237      46.7237           90           90           90     102002.7   -370.86597 
  510000       509500   -9398.0392    1194.4123   -10592.452    4379.1157   -14971.567    129.76055   -376.08323   -98.684693    -814.5033   -95.482144   -90.068935   -18.188763      46.7237      46.7237      46.7237           90           90           90     102002.7   -429.75707 
  511000       510500   -9374.8482    1197.6017    -10572.45     4361.124   -14933.574    130.10705   -304.45031   -749.26709   -334.81796   -30.642722    144.95518   -26.518483      46.7237      46.7237      46.7237           90           90           90     102002.7   -462.84512 
  512000       511500   -9362.1962    1238.6313   -10600.828    4354.2095   -14955.037    134.56449   -751.74179   -50.775532   -725.82908    265.32752    161.30815    139.61265      46.7237      46.7237      46.7237           90           90           90     102002.7    -509.4488 
  513000       512500   -9414.8138    1177.3177   -10592.131    4353.2375   -14945.369    127.90339    -774.3581   -217.73206   -479.38298    45.054728    75.891823    94.359089      46.7237      46.7237      46.7237           90           90           90     102002.7   -490.49105 
  514000       513500   -9441.9124    1144.5188   -10586.431    4365.0707   -14951.502    124.34014   -468.38974   -13.329898   -359.65235    137.60324   -179.39836    188.74493      46.7237      46.7237      46.7237           90           90           90     102002.7   -280.45733 
  515000       514500   -9422.6722    1182.3558   -10605.028    4346.2424    -14951.27    128.45073   -357.73069   -32.541491   -867.69772   -103.65117   -21.723901    10.553174      46.7237      46.7237      46.7237           90           90           90     102002.7    -419.3233 
  516000       515500   -9372.7075    1215.0715   -10587.779    4345.4612    -14933.24    132.00496   -712.11684    81.976285    24.327173   -0.6096304    171.93482   -62.502402      46.7237      46.7237      46.7237           90           90           90     102002.7   -201.93779 
  517000       516500   -9401.3263    1186.8481   -10588.174    4357.1865   -14945.361    128.93878   -438.45698    9.2813182   -405.45506    48.616954    123.50753   -169.67898      46.7237      46.7237      46.7237           90           90           90     102002.7   -278.21024 
  518000       517500   -9428.5213    1185.3479   -10613.869    4359.3097   -14973.179     128.7758   -539.40426   -482.14912   -497.75925   -299.14623   -147.90546   -205.76829      46.7237      46.7237      46.7237           90           90           90     102002.7   -506.43754 
  519000       518500   -9405.9452    1191.2049    -10597.15     4384.417   -14981.567     129.4121   -412.11463   -147.44419   -642.29551   -147.81524    166.93713    66.111969      46.7237      46.7237      46.7237           90           90           90     102002.7   -400.61811 
  520000       519500   -9363.8409    1216.8768   -10580.718    4391.2802   -14971.998    132.20108   -707.13386   -163.72284   -654.35897    140.43373    274.46831    83.121684      46.7237      46.7237      46.7237           90           90           90     102002.7   -508.40522 
  521000       520500   -9414.8631    1190.5328   -10605.396     4399.422   -15004.818    129.33908   -147.18053   -660.15584    -652.5505    49.367443    157.92655    142.62991      46.7237      46.7237      46.7237           90           90           90     102002.7   -486.62896 
  522000       521500   -9386.9614    1201.1029   -10588.064    4385.1145   -14973.179    130.48741   -528.42564   -386.13595   -684.57999     120.1933    77.154059    -154.3414      46.7237      46.7237      46.7237           90           90           90     102002.7   -533.04719 
  523000       522500   -9430.1103    1176.3948   -10606.505    4362.2458   -14968.751    127.80313    80.309753   -412.32515   -537.84572     75.98532   -177.20667    140.47677      46.7237      46.7237      46.7237           90           90           90     102002.7    -289.9537 
  524000       523500    -9398.952    1218.1797   -10617.132    4348.6586    -14965.79    132.34264   -407.54232    14.134939   -408.61441    284.95888      66.7445    26.478414      46.7237      46.7237      46.7237           90           90           90     102002.7    -267.3406 
  525000       524500   -9372.4431    1242.9118   -10615.355    4337.0102   -14952.365    135.02952   -625.56132    -177.0327   -211.90539    214.33585    315.65426    91.976577      46.7237      46.7237      46.7237           90           90           90     102002.7   -338.16647 
  526000       525500   -9410.4812    1197.2369   -10607.718    4368.1002   -14975.818    130.06742   -654.30908   -153.18211   -886.01628   -139.52062    -84.19014   -52.838605      46.7237      46.7237      46.7237           90           90           90     102002.7   -564.50249 
  527000       526500   -9333.9272    1233.7191   -10567.646    4370.0419   -14937.688    134.03083   -644.40534   -395.21815   -721.17795   -288.53582    175.77302   -198.69224      46.7237      46.7237      46.7237           90           90           90     102002.7   -586.93381 
  528000       527500   -9404.3571    1180.4127    -10584.77    4369.5664   -14954.336    128.23964   -822.19339   -123.99508   -462.30005    437.93557    233.66629    305.86173      46.7237      46.7237      46.7237           90           90           90     102002.7   -469.49618 
  529000       528500   -9360.1725    1208.0638   -10568.236    4339.0805   -14907.317    131.24364    -449.9854   -100.89067   -134.10844    42.439677    78.413045   -218.57776      46.7237      46.7237      46.7237           90           90           90     102002.7   -228.32817 
  530000       529500   -9405.7587    1204.4119   -10610.171    4367.4553   -14977.626     130.8469   -310.15988   -265.90446   -218.19261   -57.470411   -75.483784   -165.84576      46.7237      46.7237      46.7237           90           90           90     102002.7   -264.75231 
  531000       530500   -9395.6356    1207.9848    -10603.62    4377.8216   -14981.442    131.23506   -1072.8783   -530.64897   -465.79216    242.28071    342.65934   -283.30027      46.7237      46.7237      46.7237           90           90           90     102002.7   -689.77315 
  532000       531500   -9405.0365    1192.7582   -10597.795    4358.4929   -14956.288    129.58085    -85.12901   -228.05146   -379.39635    213.42413   -37.673377   -29.477148      46.7237      46.7237      46.7237           90           90           90     102002.7   -230.85894 
  533000       532500   -9415.7729    1183.6914   -10599.464    4382.7318   -14982.196    128.59583   -893.53694   -109.20176   -55.646263    242.29116    1.9042416   -112.56607      46.7237      46.7237      46.7237           90           90           90     102002.7   -352.79498 
  534000       533500   -9365.5981    1210.0657   -10575.664    4390.3977   -14966.061    131.46113   -439.07534   -384.62644    -951.6204   -135.03877   -188.35276    58.334208      46.7237      46.7237      46.7237           90           90           90     102002.7   -591.77406 
  535000       534500   -9399.2046    1191.9536   -10591.158    4376.3783   -14967.536    129.49343   -512.17725   -70.103099   -610.73742    82.225254     54.77559   -55.876612      46.7237      46.7237      46.7237           90           90           90     102002.7   -397.67259 
  536000       535500   -9385.9013    1219.7972   -10605.699    4359.8086   -14965.507    132.51836   -970.01593   -47.990239   -535.17497   -78.185364    21.501421    301.37877      46.7237      46.7237      46.7237           90           90           90     102002.7   -517.72705 
  537000       536500   -9445.2815    1144.2774   -10589.559    4377.2589   -14966.818    124.31392   -458.81544   -91.759788   -456.64743    134.17841    104.67406   -165.45303      46.7237      46.7237      46.7237           90           90           90     102002.7   -335.74088 
  538000       537500   -9388.5445     1229.262   -10617.807    4372.8198   -14990.626    133.54661   -231.79593   -229.85918   -267.00811    194.93347    86.732541   -259.20425      46.7237      46.7237      46.7237           90           90           90     102002.7   -242.88774 
  539000       538500   -9403.9854    1204.7817   -10608.767    4378.5756   -14987.343    130.88708    -702.9483   -311.40034   -439.81015    -24.21065    2.1237399   -189.50374      46.7237      46.7237      46.7237           90           90           90     102002.7    -484.7196 
  540000       539500   -9381.0949    1221.0889   -10602.184    4376.0706   -14978.254    132.65869   -90.499886   -580.65485   -132.14335   -229.05055   -139.49887   -94.550836      46.7237      46.7237      46.7237           90           90           90     102002.7   -267.76603 
  541000       540500   -9436.9967    1165.0619   -10602.059    4385.3466   -14987.405    126.57193   -337.14021   -347.31229   -40.160315    291.23798    91.632581    -140.2088      46.7237      46.7237      46.7237           90           90           90     102002.7    -241.5376 
  542000       541500   -9388.1599    1191.4191   -10579.579    4396.0769   -14975.656    129.43537   -274.46667   -628.96782   -523.10032   -348.40287    23.780213    72.419345      46.7237      46.7237      46.7237           90           90           90     102002.7    -475.5116 
  543000       542500   -9410.8762    1203.7467   -10614.623    4354.1637   -14968.787    130.77464   -555.87644   -203.37506    74.524295    75.703544   -188.33646    45.901354      46.7237      46.7237      46.7237           90           90           90     102002.7    -228.2424 
  544000       543500   -9433.6743    1189.2241   -10622.898    4344.7947   -14967.693    129.19691   -270.87907   -210.51663   -340.82418    132.90036    -48.12516   -141.67121      46.7237      46.7237      46.7237           90           90           90     102002.7   -274.07329 
  545000       544500    -9425.752    1172.5166   -10598.269    4364.3287   -14962.597    127.38181   -342.28217   -233.28041   -513.54913   -105.31844   -31.085009   -166.42929      46.7237      46.7237      46.7237           90           90           90     102002.7   -363.03724 
  546000       545500   -9388.5464    1225.5356   -10614.082    4356.9127   -14970.995    133.14178   -449.11575   -466.01797   -433.94442   -204.56026    202.83477   -88.388479      46.7237      46.7237      46.7237           90           90           90     102002.7   -449.69271 
  547000       546500   -9418.9143    1180.2397   -10599.154    4371.5337   -14970.688    128.22084   -282.65717   -69.992242   -86.437895   -37.371368    56.979431   -207.70226      46.7237      46.7237      46.7237           90           90           90     102002.7   -146.36243 
  548000       547500   -9320.1273    1250.5393   -10570.667    4390.4742   -14961.141    135.85817   -75.182841   -81.930506   -35.236934   -53.067772   -261.90877   -300.90121      46.7237      46.7237      46.7237           90           90           90     102002.7    -64.11676 
  549000       548500   -9398.7952    1165.0467   -10563.842     4389.257   -14953.099    126.57028   -144.73819   -462.19738   -212.72237    180.91492    55.261576   -191.81499      46.7237      46.7237      46.7237           90           90           90     102002.7   -273.21931 
  550000       549500   -9420.2824    1184.8218   -10605.104    4353.0799   -14958.184    128.71864   -631.57234   -461.13928    100.27572   -230.47045   -110.62342    22.755067      46.7237      46.7237      46.7237           90           90           90     102002.7   -330.81197 
  551000       550500   -9393.0169    1203.5962   -10596.613    4368.5713   -14965.184    130.75829   -104.52412   -277.22823    96.675198    38.003015    155.80384   -106.25628      46.7237      46.7237      46.7237           90           90           90     102002.7    -95.02572 
  552000       551500   -9379.9889    1204.0181   -10584.007    4377.9753   -14961.982    130.80412   -145.89743   -208.95198    143.17066   -209.87637    232.69577     114.0807      46.7237      46.7237      46.7237           90           90           90     102002.7   -70.559584 
  553000       552500   -9412.2159    1197.3476   -10609.564    4352.5976   -14962.161    130.07944   -523.55866    361.72209   -515.00931     55.98456   -164.41649   -39.674031      46.7237      46.7237      46.7237           90           90           90     102002.7   -225.61529 
  554000       553500   -9438.4967    1185.2565   -10623.753    4334.9079   -14958.661    128.76586   -174.91858    -203.4152    -406.3573   -361.88335    173.30185    144.85939      46.7237      46.7237      46.7237           90           90           90     102002.7    -261.5637 
  555000       554500   -9405.9792    1200.8337   -10606.813    4362.2238   -14969.037    130.45817   -815.29204    -692.3933   -735.45375   -322.51665   -260.01541   -16.760216      46.7237      46.7237      46.7237           90           90           90     102002.7   -747.71303 
[...]
  936000       935500   -9425.9204    1202.6966   -10628.617    4327.3177   -14955.935    130.66055   -14.185502   -741.29336     -455.145     -13.6638   -152.29346   -141.33142      46.7237      46.7237      46.7237           90           90           90     102002.7   -403.54129 
  937000       936500   -9421.4279    1170.2716   -10591.699    4381.9056   -14973.605    127.13791   -790.40158   -397.43086   -401.85996    63.437311   -91.097525    77.508539      46.7237      46.7237      46.7237           90           90           90     102002.7   -529.89747 
  938000       937500   -9454.1711     1167.954   -10622.125    4358.4262   -14980.551    126.88613   -599.85278   -354.83471   -402.99461    141.69773    142.03038   -75.188268      46.7237      46.7237      46.7237           90           90           90     102002.7    -452.5607 
  939000       938500   -9374.3477    1211.8067   -10586.154    4374.4876   -14960.642    131.65027   -615.40968   -525.87947   -762.65263    -30.95656    31.577071   -107.63145      46.7237      46.7237      46.7237           90           90           90     102002.7   -634.64726 
  940000       939500   -9393.8942    1204.1374   -10598.032    4374.0045   -14972.036    130.81709   -682.17691   -802.37338   -187.26135   -224.50276   -118.53154    28.229762      46.7237      46.7237      46.7237           90           90           90     102002.7   -557.27055 
  941000       940500    -9362.547    1215.2389   -10577.786    4396.5612   -14974.347    132.02315   -1119.5721   -386.84006   -629.05554   -187.14464    4.8818845    28.317845      46.7237      46.7237      46.7237           90           90           90     102002.7   -711.82256 
  942000       941500   -9409.2447    1202.1422   -10611.387    4357.8698   -14969.257    130.60033   -242.61671    -441.2532   -200.44451    11.311583    85.637226    137.89714      46.7237      46.7237      46.7237           90           90           90     102002.7   -294.77148 
  943000       942500   -9375.7279    1207.3175   -10583.045    4381.2496   -14964.295    131.16256    -458.1371   -125.50805   -107.26751    135.59122    82.104871    79.992514      46.7237      46.7237      46.7237           90           90           90     102002.7   -230.30422 
  944000       943500     -9407.54    1210.3063   -10617.846     4371.693   -14989.539    131.48727   -318.54433   -350.26892   -410.34484    165.37068    234.82523   -24.734325      46.7237      46.7237      46.7237           90           90           90     102002.7   -359.71936 
  945000       944500   -9441.2381    1195.2549   -10636.493    4346.9208   -14983.414    129.85208   -630.01697   -191.41959   -360.47766    96.259648    -28.08521   -231.19255      46.7237      46.7237      46.7237           90           90           90     102002.7   -393.97141 
  946000       945500   -9383.1015    1209.7135   -10592.815    4370.7815   -14963.597    131.42287   -383.80499   -329.94198   -39.555037   -79.904941    333.66445     291.9815      46.7237      46.7237      46.7237           90           90           90     102002.7   -251.10067 
  947000       946500   -9417.2245    1202.7064   -10619.931     4357.674   -14977.605    130.66161   -805.69877    -497.1099   -554.92974    63.556888   -129.71377    3.3828561      46.7237      46.7237      46.7237           90           90           90     102002.7   -619.24614 
  948000       947500   -9363.2228    1201.7823   -10565.005    4400.7715   -14965.777    130.56123   -615.70804    83.629134   -161.88658   -90.857643   -38.233042    -33.81519      46.7237      46.7237      46.7237           90           90           90     102002.7   -231.32183 
  949000       948500   -9401.9399    1191.1969   -10593.137    4379.5492   -14972.686    129.41123   -1065.0887   -580.32288   -738.71686   -211.91084    179.65513     153.7684      46.7237      46.7237      46.7237           90           90           90     102002.7   -794.70947 
  950000       949500    -9400.848    1213.7955   -10614.643    4354.6405   -14969.284    131.86633    -624.2532   -582.78557     -143.882    172.37771   -165.19978    38.045334      46.7237      46.7237      46.7237           90           90           90     102002.7   -450.30692 
  951000       950500   -9361.3199    1239.4105    -10600.73    4383.6938   -14984.424    134.64914   -366.29835   -125.19177   -325.55753    370.57608   -229.81254     101.1213      46.7237      46.7237      46.7237           90           90           90     102002.7   -272.34922 
  952000       951500   -9441.4913    1209.9616   -10651.453     4357.105   -15008.558    131.44982   -629.67094   -387.40211   -640.77525   -37.491116    3.3833802   -234.61071      46.7237      46.7237      46.7237           90           90           90     102002.7    -552.6161 
  953000       952500   -9404.9175    1205.1348   -10610.052    4368.7039   -14978.756    130.92543   -331.39291   -249.23392   -33.667853   -195.41948     244.9054   -43.356317      46.7237      46.7237      46.7237           90           90           90     102002.7   -204.76489 
  954000       953500    -9374.732    1199.8399   -10574.572    4384.7847   -14959.356     130.3502   -1022.0744   -173.56363   -205.98531   -113.28151    172.37306   -7.6395768      46.7237      46.7237      46.7237           90           90           90     102002.7   -467.20777 
  955000       954500   -9407.2457    1176.0507   -10583.296    4388.2422   -14971.539    127.76575   -422.90904   -583.20097   -360.08371    19.389318    122.89555   -182.42951      46.7237      46.7237      46.7237           90           90           90     102002.7   -455.39791 
  956000       955500   -9380.1532    1230.8341   -10610.987    4371.6082   -14982.595     133.7174   -335.50939   -861.93083   -605.48106   -200.96795     142.6638    290.78779      46.7237      46.7237      46.7237           90           90           90     102002.7   -600.97376 
  957000       956500   -9376.3862    1209.8866   -10586.273    4387.9939   -14974.267    131.44168   -1238.2568   -615.50323   -688.42476   -201.13817   -97.725183   -115.24407      46.7237      46.7237      46.7237           90           90           90     102002.7   -847.39493 
  958000       957500    -9413.032    1190.6019   -10603.634    4364.1983   -14967.832    129.34659   -392.05761    -428.2947   -209.31615    188.79199     3.807013    4.5612707      46.7237      46.7237      46.7237           90           90           90     102002.7   -343.22282 
  959000       958500   -9397.8297    1213.8058   -10611.636    4363.7774   -14975.413    131.86745   -544.82282   -467.12964   -331.50029      121.112    239.63107   -37.194826      46.7237      46.7237      46.7237           90           90           90     102002.7   -447.81758 
  960000       959500   -9422.2335    1196.4335   -10618.667    4354.0597   -14972.727    129.98014   -637.87617   -116.37733   -985.82493    47.752696    247.81279   -103.66437      46.7237      46.7237      46.7237           90           90           90     102002.7   -580.02615 
  961000       960500   -9388.7783    1196.3575   -10585.136    4381.5814   -14966.717    129.97188   -245.25959   -492.48561   -335.84397    5.8586277   -55.835608    -121.1016      46.7237      46.7237      46.7237           90           90           90     102002.7   -357.86306 
  962000       961500   -9380.5674    1196.6996   -10577.267    4397.0578   -14974.325    130.00904   -404.96202   -11.466406   -485.59761    -151.2866   -172.61681    250.53069      46.7237      46.7237      46.7237           90           90           90     102002.7   -300.67534 
  963000       962500     -9396.92    1184.1447   -10581.065    4382.9774   -14964.042    128.64508   -379.92651    45.687191    -721.3157   -122.27133    129.69633   -205.18476      46.7237      46.7237      46.7237           90           90           90     102002.7   -351.85167 
  964000       963500   -9346.9654    1217.8403   -10564.806    4399.9395   -14964.745    132.30576   -963.25432   -518.91314    -299.4203    140.81342   -129.17481    72.911698      46.7237      46.7237      46.7237           90           90           90     102002.7   -593.86259 
  965000       964500   -9401.5344    1186.4899   -10588.024    4386.5309   -14974.555    128.89986   -803.29666   -488.88906   -559.85313   -169.29431   -166.82367   -133.71847      46.7237      46.7237      46.7237           90           90           90     102002.7   -617.34628 
  966000       965500   -9409.5002    1174.7283   -10584.228    4384.5782   -14968.807    127.62209   -521.87612   -340.40111   -297.30692    44.131275   -41.549878   -186.25111      46.7237      46.7237      46.7237           90           90           90     102002.7   -386.52805 
  967000       966500   -9365.0189    1202.9734   -10567.992     4385.535   -14953.527    130.69063   -299.11637   -177.88383   -457.13027   -4.9537152   -130.09159   -69.116752      46.7237      46.7237      46.7237           90           90           90     102002.7   -311.37682 
  968000       967500   -9392.2219    1212.5986    -10604.82    4357.4542   -14962.275     131.7363   -1092.7955   -382.59186   -824.74969    106.48124    137.79157    190.56415      46.7237      46.7237      46.7237           90           90           90     102002.7   -766.71234 
  969000       968500   -9380.9678    1201.7946   -10582.762    4407.9351   -14990.697    130.56256   -1035.2424    13.613843   -249.86561    9.9404894   -156.15401    97.324115      46.7237      46.7237      46.7237           90           90           90     102002.7   -423.83137 
  970000       969500    -9398.621    1210.1221   -10608.743    4353.8791   -14962.622    131.46726   -366.69372   -9.1993911   -641.31103   -39.114658    183.88692    10.911083      46.7237      46.7237      46.7237           90           90           90     102002.7   -339.06805 
  971000       970500   -9389.8375    1204.5496   -10594.387    4398.8372   -14993.224    130.86186   -417.48468   -149.63742   -653.23214   -2.5508195    82.271615   -171.21132      46.7237      46.7237      46.7237           90           90           90     102002.7   -406.78475 
  972000       971500   -9402.4427     1208.721   -10611.164    4378.7442   -14989.908    131.31504   -236.01826     37.63344    -949.6007   -246.74083   -103.53283   -102.57949      46.7237      46.7237      46.7237           90           90           90     102002.7   -382.66184 
  973000       972500    -9365.695    1220.2322   -10585.927    4397.5252   -14983.452    132.56561   -624.75543   -701.13923   -498.74561    103.85357    64.600775    52.246981      46.7237      46.7237      46.7237           90           90           90     102002.7   -608.21342 
  974000       973500   -9443.9058    1176.7297   -10620.636     4366.405   -14987.041    127.83952   -1094.7823   -320.02711   -361.27745    309.87394    9.9841632    50.839987      46.7237      46.7237      46.7237           90           90           90     102002.7   -592.02897 
  975000       974500   -9376.4091    1195.7848   -10572.194    4392.1946   -14964.388    129.90966   -595.46683   -215.44689   -227.60713    -205.3467    222.83516    82.086945      46.7237      46.7237      46.7237           90           90           90     102002.7   -346.17362 
  976000       975500   -9404.9798     1213.869   -10618.849    4342.8506   -14961.699    131.87432   -479.73558     145.6569    -251.1012   -161.18471   -76.509866   -59.790666      46.7237      46.7237      46.7237           90           90           90     102002.7   -195.05996 
  977000       976500   -9367.1129    1204.2531   -10571.366    4392.8863   -14964.252    130.82965   -687.52064   -148.73538    27.929819    192.08817   -44.036617    152.02214      46.7237      46.7237      46.7237           90           90           90     102002.7   -269.44207 
  978000       977500   -9384.8654    1196.8837   -10581.749    4389.2755   -14971.025    130.02904   -507.72551   -373.62356   -702.16511    40.773606    56.156127   -17.653849      46.7237      46.7237      46.7237           90           90           90     102002.7   -527.83806 
  979000       978500   -9373.9984    1193.2726   -10567.271    4384.2998   -14951.571    129.63673   -835.30139     92.91768   -793.86859     214.7916    -16.98137   -229.33252      46.7237      46.7237      46.7237           90           90           90     102002.7    -512.0841 
  980000       979500   -9404.4302    1188.5983   -10593.029    4382.5069   -14975.535    129.12892   -790.33754   -460.20994    374.34415    119.99364   -31.593248    32.565076      46.7237      46.7237      46.7237           90           90           90     102002.7   -292.06778 
  981000       980500   -9364.4453    1215.3328   -10579.778    4357.5022    -14937.28    132.03335   -362.93872   -254.52356   -370.37978   -386.88966    28.114505    246.62662      46.7237      46.7237      46.7237           90           90           90     102002.7   -329.28068 
  982000       981500   -9370.3698    1210.3488   -10580.719    4412.9678   -14993.686    131.49189   -848.93156   -639.86243   -422.15273   -32.038042   -1.6089109   -122.12602      46.7237      46.7237      46.7237           90           90           90     102002.7   -636.98224 
  983000       982500   -9411.1257    1183.4259   -10594.552    4355.9388    -14950.49    128.56699   -510.77182   -520.23505   -138.82736    114.49213    11.604918   -74.707139      46.7237      46.7237      46.7237           90           90           90     102002.7   -389.94474 
  984000       983500   -9384.1143    1208.4275   -10592.542    4372.9315   -14965.473    131.28315   -402.64304   -598.77955   -548.28871   -109.88022   -347.97257   -121.27845      46.7237      46.7237      46.7237           90           90           90     102002.7   -516.57044 
  985000       984500   -9433.9386    1172.9387   -10606.877    4369.0671   -14975.944    127.42767   -748.34541   -562.91121   -415.45315   -27.438231   -46.923553   -109.50948      46.7237      46.7237      46.7237           90           90           90     102002.7   -575.56993 
  986000       985500   -9394.9871     1203.012   -10597.999    4361.5056   -14959.505    130.69482     290.3912   -244.09997   -179.71527    88.257024    9.7804814    -232.4564      46.7237      46.7237      46.7237           90           90           90     102002.7   -44.474681 
  987000       986500   -9417.8794    1187.3492   -10605.229    4372.8451   -14978.074    128.99322   -465.32463   -757.02229   -77.832094    13.400346    151.90223   -113.13351      46.7237      46.7237      46.7237           90           90           90     102002.7     -433.393 
  988000       987500   -9409.8488    1185.5655   -10595.414    4367.2733   -14962.688    128.79944   -690.57728   -561.73168   -371.06535   -155.26705    47.684418   -306.77748      46.7237      46.7237      46.7237           90           90           90     102002.7   -541.12477 
  989000       988500    -9376.138    1213.1549   -10589.293    4382.8063   -14972.099    131.79674   -416.51902   -392.92904   -298.55448   -93.107464   -275.47024   -375.08227      46.7237      46.7237      46.7237           90           90           90     102002.7   -369.33418 
  990000       989500   -9371.9549    1232.7422   -10604.697     4371.416   -14976.113     133.9247   -670.99699   -284.93211   -570.31214     82.40914   -260.14314    549.63208      46.7237      46.7237      46.7237           90           90           90     102002.7   -508.74708 
  991000       990500   -9406.0454    1197.9899   -10604.035    4365.3077   -14969.343    130.14922    9.1082099    97.733626   -236.27583   -23.020819     72.46466   -94.197727      46.7237      46.7237      46.7237           90           90           90     102002.7   -43.144664 
  992000       991500    -9416.756     1187.708   -10604.464    4365.4083   -14969.872     129.0322    113.67509    -194.8543   -424.83514   -82.550444   -129.10923    194.29018      46.7237      46.7237      46.7237           90           90           90     102002.7   -168.67145 
  993000       992500   -9369.5396    1235.1075   -10604.647     4359.391   -14964.038    134.18167   -720.93999   -158.58521   -196.95906   -123.30372   -58.641971   -343.51002      46.7237      46.7237      46.7237           90           90           90     102002.7   -358.82809 
  994000       993500   -9429.6185    1197.0188   -10626.637    4347.3176   -14973.955    130.04372   -362.15478   -603.75192   -296.79561     340.0653   -10.611101    -201.1225      46.7237      46.7237      46.7237           90           90           90     102002.7   -420.90077 
  995000       994500   -9383.5112    1204.9948   -10588.506    4385.0481   -14973.554    130.91023   -806.38027   -770.14044   -208.21728    6.1314338    271.03189    268.09769      46.7237      46.7237      46.7237           90           90           90     102002.7   -594.91266 
  996000       995500   -9387.7048     1197.692   -10585.397    4376.2281   -14961.625    130.11686   -504.12313   -306.77915    -738.3648    76.125696   -173.33469   -36.436771      46.7237      46.7237      46.7237           90           90           90     102002.7   -516.42236 
  997000       996500   -9409.5172    1196.0558   -10605.573    4361.9883   -14967.561    129.93909   -294.29646   -844.15632   -531.00954   -95.877308    426.87917    317.46875      46.7237      46.7237      46.7237           90           90           90     102002.7   -556.48744 
  998000       997500   -9411.7262    1178.1516   -10589.878    4387.2123    -14977.09      127.994   -184.36558   -540.51418   -395.70436    49.197145     204.4208    24.291843      46.7237      46.7237      46.7237           90           90           90     102002.7   -373.52804 
  999000       998500   -9344.7971    1206.0704   -10550.867     4427.732     -14978.6    131.02708   -903.10993    -764.8288    -533.7201   -217.33864       66.217   -266.94541      46.7237      46.7237      46.7237           90           90           90     102002.7   -733.88628 
 1000000       999500     -9395.68     1217.383   -10613.063    4376.6971    -14989.76    132.25608   -731.39912   -494.89439   -394.29244    150.76613   -178.23399    14.397948      46.7237      46.7237      46.7237           90           90           90     102002.7   -540.19532 
 1000500      1000000   -9375.2487    1201.1991   -10576.448    4374.9445   -14951.392    130.49786   -420.36749   -479.42174   -936.42127   -48.108043   -127.21408     170.2634      46.7237      46.7237      46.7237           90           90           90     102002.7   -612.07017 
Loop time of 2100.43 on 16 procs for 500000 steps with 3089 atoms

Performance: 20.567 ns/day, 1.167 hours/ns, 238.046 timesteps/s
99.8% CPU use with 16 MPI tasks x no OpenMP threads

MPI task timing breakdown:
Section |  min time  |  avg time  |  max time  |%varavg| %total
---------------------------------------------------------------
Pair    | 1164.4     | 1390.3     | 1539.5     | 255.4 | 66.19
Bond    | 149.97     | 183.52     | 214.17     | 172.9 |  8.74
Neigh   | 16.61      | 16.697     | 16.778     |   1.8 |  0.79
Comm    | 307.85     | 477.67     | 694.71     | 420.8 | 22.74
Output  | 0.13049    | 0.13756    | 0.13833    |   0.5 |  0.01
Modify  | 23.762     | 25.296     | 26.978     |  23.5 |  1.20
Other   |            | 6.815      |            |       |  0.32

Nlocal:    193.062 ave 223 max 157 min
Histogram: 1 1 1 2 3 1 2 1 1 3
Nghost:    3937.31 ave 3972 max 3906 min
Histogram: 2 1 1 3 1 2 3 2 0 1
Neighs:    11461.8 ave 13255 max 9112 min
Histogram: 2 0 1 1 3 0 3 3 1 2

Total # of neighbors = 183389
Ave neighs/atom = 59.3684
Ave special neighs/atom = 3.72936
Neighbor list builds = 5168
Dangerous builds = 0
Total wall time: 1:04:09
