LAMMPS (30 Mar 2018)
Reading data file ...
  orthogonal box = (0 0 0) to (46.7237 46.7237 46.7237)
  2 by 2 by 4 MPI processor grid
  reading atoms ...
  1796 atoms
  scanning bonds ...
  5 = max bonds/atom
  scanning angles ...
  10 = max angles/atom
  scanning dihedrals ...
  32 = max dihedrals/atom
  scanning impropers ...
  3 = max impropers/atom
  reading bonds ...
  2064 bonds
  reading angles ...
  3696 angles
  reading dihedrals ...
  6240 dihedrals
  reading impropers ...
  1008 impropers
Finding 1-2 1-3 1-4 neighbors ...
  special bond factors lj:   0          0          0         
  special bond factors coul: 0          0          0         
  5 = max # of 1-2 neighbors
  8 = max # of 1-3 neighbors
  20 = max # of 1-4 neighbors
  19 = max # of special neighbors
Finding 1-2 1-3 1-4 neighbors ...
  special bond factors lj:   0          0          1         
  special bond factors coul: 1          1          1         
  5 = max # of 1-2 neighbors
  8 = max # of 1-3 neighbors
  19 = max # of special neighbors
WARNING: Using 'neigh_modify every 1 delay 0 check yes' setting during minimization (../min.cpp:168)
Neighbor list info ...
  update every 1 steps, delay 0 steps, check yes
  max neighbors/atom: 2000, page size: 100000
  master list distance cutoff = 16
  ghost atom cutoff = 16
  binsize = 8, bins = 6 6 6
  3 neighbor lists, perpetual/occasional/extra = 3 0 0
  (1) pair buck6d/coul/gauss/dsf, perpetual, skip from (3)
      attributes: half, newton on
      pair build: skip
      stencil: none
      bin: none
  (2) pair lj/cut, perpetual, skip from (3)
      attributes: half, newton on
      pair build: skip
      stencil: none
      bin: none
  (3) neighbor class addition, perpetual
      attributes: half, newton on
      pair build: half/bin/newton
      stencil: half/bin/3d/newton
      bin: standard
Setting up cg style minimization ...
  Unit style    : real
  Current step  : 0
WARNING: Inconsistent image flags (../domain.cpp:786)
Per MPI rank memory allocation (min/avg/max) = 22.89 | 23.35 | 23.79 Mbytes
Step Temp E_pair E_mol TotEng Press 
       0            0   -11720.086    6482.8914    -5237.195    6180.6828 
     506            0   -11752.486    3731.7217    -8020.764   -536.92583 
Loop time of 2.7492 on 16 procs for 506 steps with 1796 atoms

99.8% CPU use with 16 MPI tasks x no OpenMP threads

Minimization stats:
  Stopping criterion = max force evaluations
  Energy initial, next-to-last, final = 
        -5237.19498572     -8020.75709339     -8020.76397717
  Force two-norm initial, final = 2576.54 3.98787
  Force max component initial, final = 151.981 0.669464
  Final line search alpha, max atom move = 0.0298389 0.0199761
  Iterations, force evaluations = 506 1001

MPI task timing breakdown:
Section |  min time  |  avg time  |  max time  |%varavg| %total
---------------------------------------------------------------
Pair    | 1.2388     | 1.6197     | 1.9164     |  17.3 | 58.91
Bond    | 0.2716     | 0.35964    | 0.42068    |   7.1 | 13.08
Neigh   | 0.011385   | 0.011517   | 0.011757   |   0.1 |  0.42
Comm    | 0.43466    | 0.71923    | 1.1034     |  25.8 | 26.16
Output  | 0          | 0          | 0          |   0.0 |  0.00
Modify  | 0          | 0          | 0          |   0.0 |  0.00
Other   |            | 0.03914    |            |       |  1.42

Nlocal:    112.25 ave 130 max 97 min
Histogram: 2 1 1 2 3 1 3 2 0 1
Nghost:    2248.25 ave 2268 max 2228 min
Histogram: 1 0 2 3 1 4 3 0 0 2
Neighs:    11443.4 ave 15496 max 7704 min
Histogram: 1 2 2 3 1 1 2 1 2 1

Total # of neighbors = 183094
Ave neighs/atom = 101.945
Ave special neighs/atom = 6.41425
Neighbor list builds = 9
Dangerous builds = 0
Neighbor list info ...
  update every 1 steps, delay 10 steps, check yes
  max neighbors/atom: 2000, page size: 100000
  master list distance cutoff = 16
  ghost atom cutoff = 16
  binsize = 8, bins = 6 6 6
  3 neighbor lists, perpetual/occasional/extra = 3 0 0
  (1) pair buck6d/coul/gauss/dsf, perpetual, skip from (3)
      attributes: half, newton on
      pair build: skip
      stencil: none
      bin: none
  (2) pair lj/cut, perpetual, skip from (3)
      attributes: half, newton on
      pair build: skip
      stencil: none
      bin: none
  (3) neighbor class addition, perpetual
      attributes: half, newton on
      pair build: half/bin/newton
      stencil: half/bin/3d/newton
      bin: standard
Setting up Verlet run ...
  Unit style    : real
  Current step  : 506
  Time step     : 1
WARNING: Inconsistent image flags (../domain.cpp:786)
Per MPI rank memory allocation (min/avg/max) = 22.54 | 22.62 | 22.86 Mbytes
Step Temp PotEng TotEng Press Volume Lx Ly Lz 
     506           91    -8020.764   -7533.8636   -318.72253     102002.7      46.7237      46.7237      46.7237 
    1000    78.070383   -7580.3951   -7162.6753    -685.3978     102002.7      46.7237      46.7237      46.7237 
    2000    88.900372   -7494.7314   -7019.0652   -579.58085     102002.7      46.7237      46.7237      46.7237 
    3000    88.693359   -7518.7356    -7044.177   -997.64091     102002.7      46.7237      46.7237      46.7237 
    4000    91.262487   -7525.8177   -7037.5128   -355.50548     102002.7      46.7237      46.7237      46.7237 
    5000    90.905097   -7503.5956   -7017.2029   -875.41024     102002.7      46.7237      46.7237      46.7237 
    6000    92.506599   -7510.7533   -7015.7917   -709.46484     102002.7      46.7237      46.7237      46.7237 
    7000    88.452523   -7507.4085   -7034.1385    -411.8618     102002.7      46.7237      46.7237      46.7237 
    8000    89.917936    -7521.492   -7040.3812   -753.33467     102002.7      46.7237      46.7237      46.7237 
    9000     88.78517   -7520.2253   -7045.1755   -572.55343     102002.7      46.7237      46.7237      46.7237 
   10000    90.460064   -7530.7071   -7046.6956   -683.08733     102002.7      46.7237      46.7237      46.7237 
   11000    87.630725   -7508.9443   -7040.0714   -923.17188     102002.7      46.7237      46.7237      46.7237 
   12000    86.766115   -7510.9197   -7046.6729   -677.44512     102002.7      46.7237      46.7237      46.7237 
   13000    94.428373   -7510.5395   -7005.2954   -648.27425     102002.7      46.7237      46.7237      46.7237 
   14000    93.046908    -7520.541   -7022.6885    -926.8679     102002.7      46.7237      46.7237      46.7237 
   15000    90.647018   -7519.5191   -7034.5074   -436.33032     102002.7      46.7237      46.7237      46.7237 
   16000    91.047341    -7506.123   -7018.9693   -605.39891     102002.7      46.7237      46.7237      46.7237 
   17000    89.782499   -7517.3724   -7036.9863   -837.82133     102002.7      46.7237      46.7237      46.7237 
   18000    90.432554   -7515.0458   -7031.1816   -743.39472     102002.7      46.7237      46.7237      46.7237 
   19000    87.784284   -7521.4655   -7051.7709   -852.40436     102002.7      46.7237      46.7237      46.7237 
   20000    93.321617    -7528.415   -7029.0926   -538.96457     102002.7      46.7237      46.7237      46.7237 
   21000     89.77329   -7542.8877   -7062.5508    -724.6228     102002.7      46.7237      46.7237      46.7237 
   22000    90.051621   -7523.9935   -7042.1674   -907.54742     102002.7      46.7237      46.7237      46.7237 
   23000     90.10661    -7511.629   -7029.5087   -758.15937     102002.7      46.7237      46.7237      46.7237 
   24000    90.359126   -7523.8832   -7040.4119   -695.02192     102002.7      46.7237      46.7237      46.7237 
   25000    88.747124    -7520.869   -7046.0227   -747.96977     102002.7      46.7237      46.7237      46.7237 
   26000    93.052511   -7520.4115    -7022.529   -672.77741     102002.7      46.7237      46.7237      46.7237 
   27000    91.262748   -7508.1048   -7019.7986   -844.64133     102002.7      46.7237      46.7237      46.7237 
   28000    91.191757   -7527.3578   -7039.4314   -744.83525     102002.7      46.7237      46.7237      46.7237 
   29000    91.731009    -7496.493   -7005.6813   -771.09008     102002.7      46.7237      46.7237      46.7237 
   30000    88.671718   -7497.3697   -7022.9269   -725.51219     102002.7      46.7237      46.7237      46.7237 
   31000    89.599206   -7506.7668   -7027.3614   -652.88603     102002.7      46.7237      46.7237      46.7237 
   32000    88.342783   -7517.2183   -7044.5355   -882.07591     102002.7      46.7237      46.7237      46.7237 
   33000    90.126807   -7518.0703    -7035.842   -656.82161     102002.7      46.7237      46.7237      46.7237 
   34000    89.975328   -7519.3061   -7037.8882   -816.39697     102002.7      46.7237      46.7237      46.7237 
   35000    90.768022   -7505.2751   -7019.6159    -713.4805     102002.7      46.7237      46.7237      46.7237 
   36000    92.576363   -7523.1361   -7027.8013    -719.3118     102002.7      46.7237      46.7237      46.7237 
   37000    87.059755   -7498.0025   -7032.1846   -723.84109     102002.7      46.7237      46.7237      46.7237 
   38000    87.927574   -7520.2375   -7049.7762   -794.21747     102002.7      46.7237      46.7237      46.7237 
   39000    88.801937   -7500.2688   -7025.1292   -851.02742     102002.7      46.7237      46.7237      46.7237 
   40000    90.495215   -7504.5336    -7020.334   -642.71766     102002.7      46.7237      46.7237      46.7237 
   41000    92.084553   -7519.8912   -7027.1878   -734.99976     102002.7      46.7237      46.7237      46.7237 
   42000    88.114097   -7517.2998   -7045.8406   -751.74429     102002.7      46.7237      46.7237      46.7237 
   43000    91.188747   -7515.8748   -7027.9645   -817.15887     102002.7      46.7237      46.7237      46.7237 
   44000    89.265663   -7509.6967    -7032.076    -795.9925     102002.7      46.7237      46.7237      46.7237 
   45000    91.158376   -7523.2012   -7035.4534   -645.85703     102002.7      46.7237      46.7237      46.7237 
   46000    90.215618   -7514.1829   -7031.4793   -784.85778     102002.7      46.7237      46.7237      46.7237 
   47000    89.183282   -7501.8577   -7024.6777     -853.057     102002.7      46.7237      46.7237      46.7237 
   48000    92.688901   -7521.5808   -7025.6438   -721.42834     102002.7      46.7237      46.7237      46.7237 
   49000    90.791316   -7541.7856   -7056.0018   -745.94379     102002.7      46.7237      46.7237      46.7237 
   50000    89.748177   -7523.6832   -7043.4808   -856.68776     102002.7      46.7237      46.7237      46.7237 
   51000    90.358428   -7518.3262   -7034.8585   -822.54002     102002.7      46.7237      46.7237      46.7237 
   52000    91.096459   -7546.6157   -7059.1991   -726.85057     102002.7      46.7237      46.7237      46.7237 
   53000    92.590712   -7509.9071   -7014.4955   -856.59373     102002.7      46.7237      46.7237      46.7237 
   54000    91.483627   -7510.4158   -7020.9277   -572.81367     102002.7      46.7237      46.7237      46.7237 
   55000    90.954683   -7521.1772   -7034.5193   -662.81352     102002.7      46.7237      46.7237      46.7237 
   56000    90.178025    -7531.633   -7049.1306   -626.73446     102002.7      46.7237      46.7237      46.7237 
   57000    92.266974   -7529.8308   -7036.1513   -406.72526     102002.7      46.7237      46.7237      46.7237 
   58000    85.300972    -7515.202   -7058.7945   -701.21413     102002.7      46.7237      46.7237      46.7237 
   59000    90.612097   -7522.1308   -7037.3059   -957.78179     102002.7      46.7237      46.7237      46.7237 
   60000    90.165028   -7507.4526   -7025.0197    -482.7045     102002.7      46.7237      46.7237      46.7237 
   61000    88.148324   -7524.1426   -7052.5002   -569.09911     102002.7      46.7237      46.7237      46.7237 
   62000    88.522272   -7511.4807   -7037.8375   -713.17139     102002.7      46.7237      46.7237      46.7237 
   63000    92.235648   -7518.5477   -7025.0359   -401.35184     102002.7      46.7237      46.7237      46.7237 
   64000    91.424683   -7528.5086   -7039.3359   -675.70576     102002.7      46.7237      46.7237      46.7237 
   65000    90.290707   -7520.9844   -7037.8791   -601.10128     102002.7      46.7237      46.7237      46.7237 
   66000    93.534881    -7516.044   -7015.5806   -474.47619     102002.7      46.7237      46.7237      46.7237 
   67000    90.370345   -7512.6498   -7029.1184   -759.13991     102002.7      46.7237      46.7237      46.7237 
   68000     88.94091   -7522.4509   -7046.5678   -942.18393     102002.7      46.7237      46.7237      46.7237 
   69000    90.285928   -7515.5039   -7032.4242   -671.43221     102002.7      46.7237      46.7237      46.7237 
   70000     91.28448   -7514.7125     -7026.29   -1001.7849     102002.7      46.7237      46.7237      46.7237 
   71000    89.085873   -7518.0006   -7041.3418   -691.79622     102002.7      46.7237      46.7237      46.7237 
   72000    90.249025   -7497.7931   -7014.9108   -871.95476     102002.7      46.7237      46.7237      46.7237 
   73000    92.744974   -7534.6813   -7038.4443   -718.02612     102002.7      46.7237      46.7237      46.7237 
   74000    90.886113   -7517.3279   -7031.0368   -690.91836     102002.7      46.7237      46.7237      46.7237 
   75000     92.22235   -7506.3298   -7012.8891    -856.2369     102002.7      46.7237      46.7237      46.7237 
   76000    89.779555   -7514.1936   -7033.8232   -530.76417     102002.7      46.7237      46.7237      46.7237 
   77000    92.778229   -7509.2374   -7012.8225   -699.81372     102002.7      46.7237      46.7237      46.7237 
   78000    90.598058   -7530.2475   -7045.4977   -848.78666     102002.7      46.7237      46.7237      46.7237 
   79000    88.917426   -7532.6322   -7056.8747   -719.89341     102002.7      46.7237      46.7237      46.7237 
   80000    88.588214    -7519.862   -7045.8659   -782.75563     102002.7      46.7237      46.7237      46.7237 
   81000    92.807173   -7504.1644   -7007.5946   -788.57235     102002.7      46.7237      46.7237      46.7237 
   82000    91.006137   -7526.6084   -7039.6751   -589.32017     102002.7      46.7237      46.7237      46.7237 
   83000    93.419691   -7507.3882   -7007.5411   -744.08361     102002.7      46.7237      46.7237      46.7237 
   84000    93.695109    -7516.102   -7014.7812   -683.81261     102002.7      46.7237      46.7237      46.7237 
   85000    91.885223   -7510.4525   -7018.8156   -829.04246     102002.7      46.7237      46.7237      46.7237 
   86000    89.225793   -7516.4184   -7039.0109   -961.25047     102002.7      46.7237      46.7237      46.7237 
   87000    91.928073   -7525.4388   -7033.5727   -861.88328     102002.7      46.7237      46.7237      46.7237 
   88000    94.365131   -7506.4203   -7001.5146   -674.09026     102002.7      46.7237      46.7237      46.7237 
   89000    90.088942   -7527.4346   -7045.4089   -811.46629     102002.7      46.7237      46.7237      46.7237 
   90000    91.638614   -7513.3799   -7023.0626   -754.60505     102002.7      46.7237      46.7237      46.7237 
   91000    94.119391   -7517.3744   -7013.7835   -712.28741     102002.7      46.7237      46.7237      46.7237 
   92000    90.996702   -7512.4284   -7025.5456   -760.30385     102002.7      46.7237      46.7237      46.7237 
   93000    88.871516   -7521.3626   -7045.8508   -797.22953     102002.7      46.7237      46.7237      46.7237 
   94000    90.472622   -7506.0946    -7022.016   -914.89723     102002.7      46.7237      46.7237      46.7237 
   95000    88.474009   -7517.0448   -7043.6599   -836.89725     102002.7      46.7237      46.7237      46.7237 
   96000    89.233908   -7528.3513   -7050.9005   -626.39205     102002.7      46.7237      46.7237      46.7237 
   97000    90.929182   -7512.7525   -7026.2309   -502.96191     102002.7      46.7237      46.7237      46.7237 
   98000    91.399252   -7532.5372   -7043.5006   -649.39893     102002.7      46.7237      46.7237      46.7237 
   99000    90.332341   -7536.7784   -7053.4503   -850.66029     102002.7      46.7237      46.7237      46.7237 
  100000    90.493882   -7516.4588   -7032.2664   -1086.6923     102002.7      46.7237      46.7237      46.7237 
  101000    87.477008   -7501.4963   -7033.4458    -865.8176     102002.7      46.7237      46.7237      46.7237 
  102000    85.414681    -7517.774   -7060.7581    -928.7993     102002.7      46.7237      46.7237      46.7237 
  103000    89.618033   -7519.9379   -7040.4317   -949.65434     102002.7      46.7237      46.7237      46.7237 
  104000    93.533234   -7506.5669   -7006.1123   -627.34358     102002.7      46.7237      46.7237      46.7237 
  105000    89.789157   -7521.1569   -7040.7351   -730.51058     102002.7      46.7237      46.7237      46.7237 
  106000    91.093499   -7521.7934   -7034.3927   -577.72285     102002.7      46.7237      46.7237      46.7237 
  107000    91.465091   -7516.5857   -7027.1968   -658.24523     102002.7      46.7237      46.7237      46.7237 
  108000    96.569751   -7515.9714   -6999.2698   -647.56626     102002.7      46.7237      46.7237      46.7237 
  109000    92.021858   -7516.1335   -7023.7656   -871.43008     102002.7      46.7237      46.7237      46.7237 
  110000     88.51346   -7510.8202   -7037.2241   -725.47511     102002.7      46.7237      46.7237      46.7237 
  111000    91.150839   -7512.0176   -7024.3101   -641.92144     102002.7      46.7237      46.7237      46.7237 
  112000    91.315748   -7528.3751   -7039.7853   -822.99023     102002.7      46.7237      46.7237      46.7237 
  113000    90.185502   -7531.0974    -7048.555   -615.52628     102002.7      46.7237      46.7237      46.7237 
  114000    93.287194   -7513.3069   -7014.1687   -599.70739     102002.7      46.7237      46.7237      46.7237 
  115000     89.66344   -7526.0306   -7046.2815    -800.7336     102002.7      46.7237      46.7237      46.7237 
  116000    90.987787   -7518.5514   -7031.7163    -667.9234     102002.7      46.7237      46.7237      46.7237 
  117000    92.689193   -7515.9911   -7020.0525   -602.22376     102002.7      46.7237      46.7237      46.7237 
  118000    91.245748   -7529.0599   -7040.8446   -581.17044     102002.7      46.7237      46.7237      46.7237 
  119000    90.644232   -7517.0482   -7032.0513   -687.05619     102002.7      46.7237      46.7237      46.7237 
  120000    88.834214   -7492.0282   -7016.7159    -789.6871     102002.7      46.7237      46.7237      46.7237 
  121000    88.123012   -7513.3577   -7041.8508   -969.74943     102002.7      46.7237      46.7237      46.7237 
  122000    88.346955   -7530.5982    -7057.893   -874.58113     102002.7      46.7237      46.7237      46.7237 
  123000    90.814967   -7512.5131   -7026.6027   -685.17187     102002.7      46.7237      46.7237      46.7237 
  124000    91.727709   -7496.8011    -7006.007   -862.96797     102002.7      46.7237      46.7237      46.7237 
  125000    89.257689    -7513.507   -7035.9289   -639.54743     102002.7      46.7237      46.7237      46.7237 
  126000    88.999597   -7526.3955   -7050.1984   -697.16445     102002.7      46.7237      46.7237      46.7237 
  127000    90.930042   -7528.7744   -7042.2483   -792.92665     102002.7      46.7237      46.7237      46.7237 
  128000    91.895225   -7513.9248   -7022.2345   -645.60048     102002.7      46.7237      46.7237      46.7237 
  129000    92.943464   -7533.9708   -7036.6718   -752.62677     102002.7      46.7237      46.7237      46.7237 
  130000    94.236938   -7527.2897   -7023.0699   -716.73432     102002.7      46.7237      46.7237      46.7237 
  131000    90.933343   -7525.0906   -7038.5469   -933.92276     102002.7      46.7237      46.7237      46.7237 
  132000    90.858835   -7510.5136   -7024.3685   -673.88199     102002.7      46.7237      46.7237      46.7237 
  133000    90.527213   -7528.7916   -7044.4209   -625.63451     102002.7      46.7237      46.7237      46.7237 
  134000    92.487015   -7522.8417   -7027.9849    -691.6172     102002.7      46.7237      46.7237      46.7237 
  135000    89.230771   -7511.7701    -7034.336   -621.31501     102002.7      46.7237      46.7237      46.7237 
  136000    94.148366   -7519.4014   -7015.6555   -829.78612     102002.7      46.7237      46.7237      46.7237 
  137000    93.649288    -7521.212   -7020.1364   -530.25557     102002.7      46.7237      46.7237      46.7237 
  138000    89.488421   -7514.5799   -7035.7672   -655.93408     102002.7      46.7237      46.7237      46.7237 
  139000    91.015428    -7502.818   -7015.8351   -693.12199     102002.7      46.7237      46.7237      46.7237 
  140000    89.695827   -7524.8018   -7044.8794   -587.52961     102002.7      46.7237      46.7237      46.7237 
  141000    89.966669   -7502.4362   -7021.0647   -993.47708     102002.7      46.7237      46.7237      46.7237 
  142000    92.212986   -7530.8882   -7037.4977   -786.36693     102002.7      46.7237      46.7237      46.7237 
  143000    93.409354   -7517.6448    -7017.853   -428.12752     102002.7      46.7237      46.7237      46.7237 
  144000    88.268584   -7508.1674   -7035.8816   -1063.9519     102002.7      46.7237      46.7237      46.7237 
  145000    88.742827   -7497.5408   -7022.7175   -459.57621     102002.7      46.7237      46.7237      46.7237 
  146000    91.871166   -7503.6976   -7012.1359   -603.12226     102002.7      46.7237      46.7237      46.7237 
  147000    90.741223   -7520.7518   -7035.2359   -607.77946     102002.7      46.7237      46.7237      46.7237 
  148000    91.353333   -7509.6781   -7020.8872   -555.46766     102002.7      46.7237      46.7237      46.7237 
  149000    90.727231    -7525.425   -7039.9841   -761.71795     102002.7      46.7237      46.7237      46.7237 
  150000    91.577234   -7496.3298   -7006.3408   -549.92477     102002.7      46.7237      46.7237      46.7237 
  151000    92.763734   -7519.8658   -7023.5285   -890.25477     102002.7      46.7237      46.7237      46.7237 
  152000    92.836561   -7523.1462   -7026.4191    -861.5104     102002.7      46.7237      46.7237      46.7237 
  153000    90.248027   -7522.4377   -7039.5607   -678.72631     102002.7      46.7237      46.7237      46.7237 
  154000    89.406584   -7530.5286   -7052.1538   -767.51017     102002.7      46.7237      46.7237      46.7237 
  155000    92.169236   -7523.5196   -7030.3631   -635.10588     102002.7      46.7237      46.7237      46.7237 
  156000    92.412006   -7527.2548   -7032.7994    -832.0226     102002.7      46.7237      46.7237      46.7237 
  157000    88.417942   -7520.4423   -7047.3573   -768.83948     102002.7      46.7237      46.7237      46.7237 
  158000    88.672046   -7519.1264   -7044.6818   -731.53461     102002.7      46.7237      46.7237      46.7237 
  159000    91.823103   -7528.3621   -7037.0576   -742.23254     102002.7      46.7237      46.7237      46.7237 
  160000    92.866191   -7512.5405   -7015.6549   -747.89002     102002.7      46.7237      46.7237      46.7237 
  161000    91.932998   -7519.7337   -7027.8412   -841.38574     102002.7      46.7237      46.7237      46.7237 
  162000    91.756317   -7528.4707   -7037.5235    -783.6569     102002.7      46.7237      46.7237      46.7237 
  163000    90.578913   -7515.1079   -7030.4605   -615.48469     102002.7      46.7237      46.7237      46.7237 
  164000    86.088019   -7523.6693   -7063.0507   -796.74973     102002.7      46.7237      46.7237      46.7237 
  165000    92.789187   -7506.9013   -7010.4278   -647.12194     102002.7      46.7237      46.7237      46.7237 
  166000    89.760943   -7515.3097   -7035.0389   -638.59907     102002.7      46.7237      46.7237      46.7237 
  167000    88.193935   -7523.6931   -7051.8067   -855.44316     102002.7      46.7237      46.7237      46.7237 
  168000    88.820085   -7507.6538   -7032.4172   -741.07529     102002.7      46.7237      46.7237      46.7237 
  169000    91.251473   -7508.2792   -7020.0332   -769.99961     102002.7      46.7237      46.7237      46.7237 
  170000    92.277765   -7516.7412   -7023.0041   -841.28507     102002.7      46.7237      46.7237      46.7237 
  171000    90.654611   -7502.7468   -7017.6944     -779.776     102002.7      46.7237      46.7237      46.7237 
  172000     91.71178   -7518.2723   -7027.5634   -699.31829     102002.7      46.7237      46.7237      46.7237 
  173000    89.691943    -7534.538   -7054.6364   -657.88139     102002.7      46.7237      46.7237      46.7237 
  174000    88.356798   -7510.7933   -7038.0354   -482.41202     102002.7      46.7237      46.7237      46.7237 
  175000    92.053842   -7501.2353   -7008.6962   -646.53617     102002.7      46.7237      46.7237      46.7237 
  176000    92.768007   -7527.7499   -7031.3897   -675.85152     102002.7      46.7237      46.7237      46.7237 
  177000    91.730753    -7532.628   -7041.8176   -735.71227     102002.7      46.7237      46.7237      46.7237 
  178000     90.45271   -7509.7872   -7025.8151   -765.96956     102002.7      46.7237      46.7237      46.7237 
  179000    93.882068   -7523.0033   -7020.6822    -693.6906     102002.7      46.7237      46.7237      46.7237 
  180000    90.906691   -7523.5262    -7037.125   -615.23583     102002.7      46.7237      46.7237      46.7237 
  181000    89.016847   -7501.8032   -7025.5137   -671.09315     102002.7      46.7237      46.7237      46.7237 
  182000    92.075177   -7525.3229   -7032.6696   -739.03404     102002.7      46.7237      46.7237      46.7237 
  183000    91.939999   -7511.5619    -7019.632   -693.08422     102002.7      46.7237      46.7237      46.7237 
  184000    92.098771   -7506.2933   -7013.5138   -589.02167     102002.7      46.7237      46.7237      46.7237 
  185000    88.440233   -7512.0462   -7038.8419   -670.21877     102002.7      46.7237      46.7237      46.7237 
  186000    93.002422   -7517.1016   -7019.4871   -652.21148     102002.7      46.7237      46.7237      46.7237 
  187000    89.200272    -7525.145   -7047.8741   -696.48967     102002.7      46.7237      46.7237      46.7237 
  188000    88.127805   -7502.9297   -7031.3971   -784.43873     102002.7      46.7237      46.7237      46.7237 
  189000    91.227053   -7504.2205   -7016.1052    -686.8006     102002.7      46.7237      46.7237      46.7237 
  190000    88.082897   -7511.1365   -7039.8442   -422.32666     102002.7      46.7237      46.7237      46.7237 
  191000    90.162275    -7533.342   -7050.9239   -662.45563     102002.7      46.7237      46.7237      46.7237 
  192000    91.223553   -7529.3314   -7041.2349   -501.63044     102002.7      46.7237      46.7237      46.7237 
  193000     93.12161   -7493.8677   -6995.6155   -523.08382     102002.7      46.7237      46.7237      46.7237 
  194000    90.583263    -7517.978   -7033.3074   -765.34606     102002.7      46.7237      46.7237      46.7237 
  195000    94.244148   -7513.3133   -7009.0549   -841.75859     102002.7      46.7237      46.7237      46.7237 
  196000    90.741948   -7516.0956   -7030.5759   -819.00975     102002.7      46.7237      46.7237      46.7237 
  197000     95.13883   -7518.4049   -7009.3594   -593.06864     102002.7      46.7237      46.7237      46.7237 
  198000    88.674217   -7507.0982    -7032.642   -817.16704     102002.7      46.7237      46.7237      46.7237 
  199000    92.903273   -7523.6182   -7026.5342   -889.03724     102002.7      46.7237      46.7237      46.7237 
  200000    89.749567   -7518.5142   -7038.3043   -710.76442     102002.7      46.7237      46.7237      46.7237 
  201000    92.772679    -7503.198   -7006.8127    -879.1442     102002.7      46.7237      46.7237      46.7237 
  202000    89.857198   -7507.8316   -7027.0459   -807.59225     102002.7      46.7237      46.7237      46.7237 
  203000    91.944327   -7526.8102   -7034.8571   -860.85597     102002.7      46.7237      46.7237      46.7237 
  204000    91.472431   -7535.2419   -7045.8137   -943.57292     102002.7      46.7237      46.7237      46.7237 
  205000    91.878114   -7511.7477   -7020.1488   -658.70239     102002.7      46.7237      46.7237      46.7237 
  206000    93.469029   -7526.5906   -7026.4795   -524.60296     102002.7      46.7237      46.7237      46.7237 
  207000    89.264864   -7514.7771   -7037.1606   -771.63684     102002.7      46.7237      46.7237      46.7237 
  208000    89.243565    -7532.165   -7054.6625   -804.91948     102002.7      46.7237      46.7237      46.7237 
  209000    92.635606   -7527.9279   -7032.2761   -745.52747     102002.7      46.7237      46.7237      46.7237 
  210000    89.304552   -7507.0529    -7029.224   -796.21889     102002.7      46.7237      46.7237      46.7237 
  211000    91.587286   -7522.3382   -7032.2954   -944.17649     102002.7      46.7237      46.7237      46.7237 
  212000    91.239776   -7507.5646   -7019.3812   -831.86037     102002.7      46.7237      46.7237      46.7237 
  213000    90.522235    -7528.862   -7044.5179   -641.50301     102002.7      46.7237      46.7237      46.7237 
  214000    92.268634   -7517.7668   -7024.0785      -360.17     102002.7      46.7237      46.7237      46.7237 
  215000    92.768904   -7515.3855   -7019.0205   -427.74021     102002.7      46.7237      46.7237      46.7237 
  216000     89.31683   -7516.4679   -7038.5734   -626.87547     102002.7      46.7237      46.7237      46.7237 
  217000    92.121767   -7518.9921   -7026.0896   -756.18713     102002.7      46.7237      46.7237      46.7237 
  218000    88.794574   -7506.2204   -7031.1202   -500.56126     102002.7      46.7237      46.7237      46.7237 
  219000    90.649094   -7534.3578    -7049.335   -523.20352     102002.7      46.7237      46.7237      46.7237 
  220000    91.856774   -7519.7313   -7028.2466   -463.34055     102002.7      46.7237      46.7237      46.7237 
  221000    90.563006   -7513.5354   -7028.9731   -533.85802     102002.7      46.7237      46.7237      46.7237 
  222000    90.908821   -7526.1789   -7039.7663   -478.68394     102002.7      46.7237      46.7237      46.7237 
  223000    87.510585   -7507.1076   -7038.8775   -486.29314     102002.7      46.7237      46.7237      46.7237 
  224000       91.681   -7521.8044   -7031.2603   -584.61845     102002.7      46.7237      46.7237      46.7237 
  225000    87.289244   -7521.6055   -7054.5596   -625.91753     102002.7      46.7237      46.7237      46.7237 
  226000    90.974283   -7535.9754   -7049.2126   -97.806439     102002.7      46.7237      46.7237      46.7237 
  227000     88.03372   -7522.2784   -7051.2493   -451.69743     102002.7      46.7237      46.7237      46.7237 
  228000     91.21046   -7515.3656   -7027.3391   -626.60312     102002.7      46.7237      46.7237      46.7237 
  229000    90.052475    -7548.781   -7066.9503    -444.0305     102002.7      46.7237      46.7237      46.7237 
  230000    92.300523   -7514.1206   -7020.2616   -685.23565     102002.7      46.7237      46.7237      46.7237 
  231000    89.274464   -7521.7488   -7044.0809   -699.16113     102002.7      46.7237      46.7237      46.7237 
  232000    92.576823    -7524.053   -7028.7157   -612.58735     102002.7      46.7237      46.7237      46.7237 
  233000    92.341533   -7502.5432   -7008.4649   -641.04386     102002.7      46.7237      46.7237      46.7237 
  234000    91.013934   -7531.4349   -7044.4599   -430.77111     102002.7      46.7237      46.7237      46.7237 
  235000    88.549187   -7539.9437   -7066.1565   -705.21838     102002.7      46.7237      46.7237      46.7237 
  236000    94.139297   -7529.0471   -7025.3497   -528.74975     102002.7      46.7237      46.7237      46.7237 
  237000    86.864084   -7534.4656   -7069.6946    -738.4091     102002.7      46.7237      46.7237      46.7237 
  238000    91.168327   -7525.3703   -7037.5693   -622.38583     102002.7      46.7237      46.7237      46.7237 
  239000    93.406103   -7534.8995   -7035.1251   -543.72849     102002.7      46.7237      46.7237      46.7237 
  240000    89.365331   -7533.1156   -7054.9616   -732.14926     102002.7      46.7237      46.7237      46.7237 
  241000     93.66753   -7516.8963   -7015.7231   -670.72249     102002.7      46.7237      46.7237      46.7237 
  242000    90.945382   -7522.6411   -7036.0329   -848.57236     102002.7      46.7237      46.7237      46.7237 
  243000    91.041492   -7518.4709   -7031.3485   -352.06784     102002.7      46.7237      46.7237      46.7237 
  244000    89.776326     -7530.51   -7050.1569   -714.81742     102002.7      46.7237      46.7237      46.7237 
  245000    93.206946   -7541.9126   -7043.2038   -867.94763     102002.7      46.7237      46.7237      46.7237 
  246000    93.072942   -7521.6603   -7023.6685   -437.68675     102002.7      46.7237      46.7237      46.7237 
  247000    94.969812   -7509.1065   -7000.9654   -730.69565     102002.7      46.7237      46.7237      46.7237 
  248000    92.082873   -7531.2885   -7038.5941   -478.46847     102002.7      46.7237      46.7237      46.7237 
  249000    91.981786    -7512.256   -7020.1025   -574.62308     102002.7      46.7237      46.7237      46.7237 
  250000    93.095153   -7521.9247    -7023.814    -711.8202     102002.7      46.7237      46.7237      46.7237 
  251000    90.401504   -7517.5272    -7033.829   -838.07205     102002.7      46.7237      46.7237      46.7237 
  252000     92.78786   -7525.1363   -7028.6698   -922.30331     102002.7      46.7237      46.7237      46.7237 
  253000    90.288641   -7534.2372   -7051.1429   -724.87823     102002.7      46.7237      46.7237      46.7237 
  254000    92.242273    -7519.762   -7026.2147   -841.28175     102002.7      46.7237      46.7237      46.7237 
  255000    89.234843   -7516.1772   -7038.7213   -548.16404     102002.7      46.7237      46.7237      46.7237 
  256000    91.220569   -7501.3237   -7013.2431   -704.87839     102002.7      46.7237      46.7237      46.7237 
  257000    91.751841   -7535.1094   -7044.1862   -775.22674     102002.7      46.7237      46.7237      46.7237 
  258000     90.71578   -7527.2037    -7041.824   -665.56239     102002.7      46.7237      46.7237      46.7237 
  259000    91.657186   -7520.3567     -7029.94   -714.08938     102002.7      46.7237      46.7237      46.7237 
  260000    90.685212   -7547.5078   -7062.2916    -761.0322     102002.7      46.7237      46.7237      46.7237 
  261000     91.93141   -7508.0665   -7016.1825   -920.86158     102002.7      46.7237      46.7237      46.7237 
  262000    91.370872    -7509.717   -7020.8322   -684.66128     102002.7      46.7237      46.7237      46.7237 
  263000    90.458009   -7516.3414   -7032.3409   -965.42803     102002.7      46.7237      46.7237      46.7237 
  264000    91.964481   -7494.2357   -7002.1748   -830.84937     102002.7      46.7237      46.7237      46.7237 
  265000    88.328768   -7507.9634   -7035.3555   -608.94831     102002.7      46.7237      46.7237      46.7237 
  266000    91.758553   -7526.3372   -7035.3781    -472.6731     102002.7      46.7237      46.7237      46.7237 
  267000    89.575752   -7536.1115   -7056.8316   -874.61194     102002.7      46.7237      46.7237      46.7237 
  268000    91.790961   -7516.7491   -7025.6166   -645.43124     102002.7      46.7237      46.7237      46.7237 
  269000    90.437162   -7525.5762   -7041.6872   -704.28735     102002.7      46.7237      46.7237      46.7237 
  270000    92.161135   -7514.0077   -7020.8946   -816.07918     102002.7      46.7237      46.7237      46.7237 
  271000    91.342587   -7542.7499   -7054.0164   -658.05144     102002.7      46.7237      46.7237      46.7237 
  272000    91.820957   -7528.2041   -7036.9111   -864.98776     102002.7      46.7237      46.7237      46.7237 
  273000     92.62061   -7505.8991   -7010.3275   -886.61666     102002.7      46.7237      46.7237      46.7237 
  274000    89.851727   -7526.3342   -7045.5776   -1073.5535     102002.7      46.7237      46.7237      46.7237 
  275000    89.028668    -7528.299   -7051.9463    -619.6628     102002.7      46.7237      46.7237      46.7237 
  276000    89.320976   -7509.5148   -7031.5981   -782.42087     102002.7      46.7237      46.7237      46.7237 
  277000    90.753716   -7516.6534   -7031.0707   -648.47309     102002.7      46.7237      46.7237      46.7237 
  278000    90.695455   -7542.6474   -7057.3765   -780.65875     102002.7      46.7237      46.7237      46.7237 
  279000     92.58222   -7520.5918   -7025.2256   -772.82485     102002.7      46.7237      46.7237      46.7237 
  280000      90.2545   -7548.7588   -7065.8472    -465.0924     102002.7      46.7237      46.7237      46.7237 
  281000    90.656259   -7502.8195   -7017.7582   -886.09311     102002.7      46.7237      46.7237      46.7237 
  282000    92.682988   -7526.1557   -7030.2504   -598.66729     102002.7      46.7237      46.7237      46.7237 
  283000    91.289627   -7527.3986   -7038.9485   -664.49768     102002.7      46.7237      46.7237      46.7237 
  284000    90.464628   -7516.0565   -7032.0207   -1004.2325     102002.7      46.7237      46.7237      46.7237 
  285000    92.605583   -7522.3013   -7026.8101   -947.44194     102002.7      46.7237      46.7237      46.7237 
  286000     92.40102   -7524.4012   -7030.0046    -805.5357     102002.7      46.7237      46.7237      46.7237 
  287000    89.008848    -7511.457   -7035.2103   -732.36767     102002.7      46.7237      46.7237      46.7237 
  288000    92.386025   -7507.5922   -7013.2758   -780.55508     102002.7      46.7237      46.7237      46.7237 
  289000    91.233563   -7517.2731   -7029.1229   -616.45399     102002.7      46.7237      46.7237      46.7237 
  290000    93.806065   -7521.0178   -7019.1034   -791.62593     102002.7      46.7237      46.7237      46.7237 
  291000     91.46867   -7528.9073   -7039.4992   -620.28471     102002.7      46.7237      46.7237      46.7237 
  292000     89.88411   -7503.0838    -7022.154   -729.49756     102002.7      46.7237      46.7237      46.7237 
  293000    91.763561   -7531.4174   -7040.4315    -354.6088     102002.7      46.7237      46.7237      46.7237 
  294000    88.726909    -7509.867   -7035.1288   -492.74004     102002.7      46.7237      46.7237      46.7237 
  295000    92.472379   -7508.8948   -7014.1163   -593.02923     102002.7      46.7237      46.7237      46.7237 
  296000    91.904169   -7537.8683   -7046.1301   -513.39605     102002.7      46.7237      46.7237      46.7237 
  297000    92.422454   -7512.5455   -7018.0342    -548.7956     102002.7      46.7237      46.7237      46.7237 
  298000    91.828155   -7517.4895    -7026.158   -671.08813     102002.7      46.7237      46.7237      46.7237 
  299000    91.081032    -7526.579    -7039.245   -410.04243     102002.7      46.7237      46.7237      46.7237 
  300000    94.102058   -7530.7568   -7027.2587   -600.80364     102002.7      46.7237      46.7237      46.7237 
  301000    88.193306   -7514.9264   -7043.0434   -379.79938     102002.7      46.7237      46.7237      46.7237 
  302000    91.038208   -7513.0465   -7025.9417   -702.53167     102002.7      46.7237      46.7237      46.7237 
  303000    89.612877   -7511.2905    -7031.812   -415.33858     102002.7      46.7237      46.7237      46.7237 
  304000    87.734952   -7507.5618   -7038.1312   -669.75396     102002.7      46.7237      46.7237      46.7237 
  305000    92.096532   -7501.4451   -7008.6776   -715.15193     102002.7      46.7237      46.7237      46.7237 
  306000    92.609817   -7535.9605   -7040.4467   -690.13715     102002.7      46.7237      46.7237      46.7237 
  307000    92.397049   -7528.1047   -7033.7293    -585.9635     102002.7      46.7237      46.7237      46.7237 
  308000    90.645754   -7502.8885   -7017.8835   -548.90257     102002.7      46.7237      46.7237      46.7237 
  309000    90.333299     -7515.32   -7031.9868   -595.13475     102002.7      46.7237      46.7237      46.7237 
  310000    93.323017   -7529.1389    -7029.809    -659.8402     102002.7      46.7237      46.7237      46.7237 
  311000     89.68708   -7515.1831   -7035.3076   -642.90197     102002.7      46.7237      46.7237      46.7237 
  312000    93.187887   -7530.2582   -7031.6514   -527.78994     102002.7      46.7237      46.7237      46.7237 
  313000    90.650523   -7489.7028   -7004.6723   -641.44468     102002.7      46.7237      46.7237      46.7237 
  314000    91.745836   -7526.8713   -7035.9802   -787.02883     102002.7      46.7237      46.7237      46.7237 
  315000    90.894739    -7516.947   -7030.6098   -580.33528     102002.7      46.7237      46.7237      46.7237 
  316000    92.329607   -7503.4475   -7009.4329   -804.33985     102002.7      46.7237      46.7237      46.7237 
  317000     89.39339   -7521.9537   -7043.6495   -770.79557     102002.7      46.7237      46.7237      46.7237 
  318000    91.357265   -7517.7879   -7028.9759   -519.20334     102002.7      46.7237      46.7237      46.7237 
  319000    86.804858   -7512.8913   -7048.4372   -890.37705     102002.7      46.7237      46.7237      46.7237 
  320000    90.992726    -7515.994   -7029.1326   -483.83806     102002.7      46.7237      46.7237      46.7237 
  321000    91.132531   -7503.5837   -7015.9741   -707.05504     102002.7      46.7237      46.7237      46.7237 
  322000    91.759112   -7531.7279   -7040.7658   -610.62343     102002.7      46.7237      46.7237      46.7237 
  323000    91.650754   -7515.5767   -7025.1944   -786.81091     102002.7      46.7237      46.7237      46.7237 
  324000    91.100383   -7516.2458   -7028.8082   -956.65361     102002.7      46.7237      46.7237      46.7237 
  325000    90.950497   -7526.1964   -7039.5609   -691.85443     102002.7      46.7237      46.7237      46.7237 
  326000     92.31275   -7514.6566   -7020.7323   -889.11662     102002.7      46.7237      46.7237      46.7237 
  327000    91.437663   -7502.7607   -7013.5185    -873.6628     102002.7      46.7237      46.7237      46.7237 
  328000    90.782355   -7519.0879    -7033.352   -662.41289     102002.7      46.7237      46.7237      46.7237 
  329000    90.698784   -7528.0184   -7042.7296   -620.78433     102002.7      46.7237      46.7237      46.7237 
  330000    91.191414    -7496.833   -7008.9084   -524.31473     102002.7      46.7237      46.7237      46.7237 
  331000    91.481496   -7521.9711   -7032.4944   -411.09042     102002.7      46.7237      46.7237      46.7237 
  332000    87.923772   -7523.1635   -7052.7226   -801.30455     102002.7      46.7237      46.7237      46.7237 
  333000    90.385535   -7505.2509   -7021.6382   -539.46262     102002.7      46.7237      46.7237      46.7237 
  334000    88.636291    -7506.933   -7032.6798   -475.37806     102002.7      46.7237      46.7237      46.7237 
  335000    91.943432   -7510.2251   -7018.2768   -970.21533     102002.7      46.7237      46.7237      46.7237 
  336000    90.016774    -7526.218   -7044.5784    -528.1811     102002.7      46.7237      46.7237      46.7237 
  337000    90.972313   -7516.4881   -7029.7358   -666.61126     102002.7      46.7237      46.7237      46.7237 
  338000    91.427143   -7508.5228   -7019.3369   -836.70731     102002.7      46.7237      46.7237      46.7237 
  339000    92.339909   -7517.6473   -7023.5776   -804.25321     102002.7      46.7237      46.7237      46.7237 
  340000    86.751176   -7519.5915   -7055.4246   -737.58267     102002.7      46.7237      46.7237      46.7237 
  341000    88.436179   -7498.6143   -7025.4317    -971.9078     102002.7      46.7237      46.7237      46.7237 
  342000    92.658087   -7530.6053   -7034.8332   -705.62638     102002.7      46.7237      46.7237      46.7237 
  343000     91.70228   -7531.5819   -7040.9239   -1047.1921     102002.7      46.7237      46.7237      46.7237 
  344000    91.929301   -7521.1695   -7029.2968   -625.45325     102002.7      46.7237      46.7237      46.7237 
  345000    88.064745   -7509.4668   -7038.2716     -778.636     102002.7      46.7237      46.7237      46.7237 
  346000    92.227445   -7516.4093   -7022.9414   -543.18777     102002.7      46.7237      46.7237      46.7237 
  347000    87.941404   -7519.0838   -7048.5486   -515.17034     102002.7      46.7237      46.7237      46.7237 
  348000     93.30408   -7511.6971   -7012.4685   -744.93816     102002.7      46.7237      46.7237      46.7237 
  349000    91.540128   -7530.7661   -7040.9757    -671.2678     102002.7      46.7237      46.7237      46.7237 
  350000    94.047035   -7504.9098   -7001.7061   -711.85095     102002.7      46.7237      46.7237      46.7237 
  351000    89.449038   -7522.3478   -7043.7459   -577.25453     102002.7      46.7237      46.7237      46.7237 
  352000    89.829241   -7516.7497   -7036.1135   -510.67049     102002.7      46.7237      46.7237      46.7237 
  353000    93.084821   -7520.4121   -7022.3567   -783.09061     102002.7      46.7237      46.7237      46.7237 
  354000    92.139972   -7530.5158   -7037.5159   -603.72882     102002.7      46.7237      46.7237      46.7237 
  355000    89.205559   -7506.9467   -7029.6476   -836.40682     102002.7      46.7237      46.7237      46.7237 
  356000    88.280327   -7537.7994   -7065.4507   -647.58148     102002.7      46.7237      46.7237      46.7237 
  357000    92.008093   -7525.2289   -7032.9346   -675.71419     102002.7      46.7237      46.7237      46.7237 
  358000    89.980414    -7519.461   -7038.0159   -684.35162     102002.7      46.7237      46.7237      46.7237 
  359000    90.635505   -7521.1559   -7036.2058   -742.04885     102002.7      46.7237      46.7237      46.7237 
  360000    88.631416   -7527.3688   -7053.1416   -655.30845     102002.7      46.7237      46.7237      46.7237 
  361000    92.427992    -7516.113    -7021.572   -732.18156     102002.7      46.7237      46.7237      46.7237 
  362000    91.723718   -7537.5517    -7046.779    -896.2533     102002.7      46.7237      46.7237      46.7237 
  363000    89.474558   -7529.7674   -7051.0289   -685.18128     102002.7      46.7237      46.7237      46.7237 
  364000    91.071634   -7515.4981   -7028.2144   -783.02752     102002.7      46.7237      46.7237      46.7237 
  365000    94.313075   -7514.3712    -7009.744   -824.54778     102002.7      46.7237      46.7237      46.7237 
  366000    89.558285   -7519.7747   -7040.5883   -489.00942     102002.7      46.7237      46.7237      46.7237 
  367000    91.706829   -7516.5895   -7025.9072   -637.70486     102002.7      46.7237      46.7237      46.7237 
  368000    94.857888    -7536.549   -7029.0067   -709.96549     102002.7      46.7237      46.7237      46.7237 
  369000    90.531071    -7520.882   -7036.4906   -738.75442     102002.7      46.7237      46.7237      46.7237 
  370000    91.375075   -7500.3846   -7011.4773   -678.43501     102002.7      46.7237      46.7237      46.7237 
  371000    90.663799    -7510.208   -7025.1065   -718.76754     102002.7      46.7237      46.7237      46.7237 
  372000     91.74567    -7517.173   -7026.2828   -1152.5742     102002.7      46.7237      46.7237      46.7237 
  373000    88.706915   -7533.2809   -7058.6497    -649.7237     102002.7      46.7237      46.7237      46.7237 
  374000    89.657148   -7524.2569   -7044.5415   -724.93576     102002.7      46.7237      46.7237      46.7237 
  375000    91.295789   -7512.1664   -7023.6833   -604.16251     102002.7      46.7237      46.7237      46.7237 
  376000    89.236114   -7517.5479   -7040.0853   -917.64381     102002.7      46.7237      46.7237      46.7237 
  377000    92.693376   -7521.9282   -7025.9673   -388.87877     102002.7      46.7237      46.7237      46.7237 
  378000    90.397167   -7510.8189    -7027.144   -685.59223     102002.7      46.7237      46.7237      46.7237 
  379000     91.98852   -7518.8507   -7026.6611   -667.69781     102002.7      46.7237      46.7237      46.7237 
  380000    89.523443    -7536.582    -7057.582   -678.61498     102002.7      46.7237      46.7237      46.7237 
  381000    92.745767   -7521.1578   -7024.9166   -460.28904     102002.7      46.7237      46.7237      46.7237 
  382000    91.534133   -7519.1575   -7029.3992   -604.59987     102002.7      46.7237      46.7237      46.7237 
  383000    90.257592   -7519.7013   -7036.7732   -687.95197     102002.7      46.7237      46.7237      46.7237 
  384000    92.294486   -7516.5056    -7022.679   -451.57613     102002.7      46.7237      46.7237      46.7237 
  385000    92.323503    -7528.187   -7034.2051   -608.47757     102002.7      46.7237      46.7237      46.7237 
  386000    90.031414   -7532.9972   -7051.2793    -429.5559     102002.7      46.7237      46.7237      46.7237 
  387000    88.545788   -7512.3959   -7038.6269    -642.8968     102002.7      46.7237      46.7237      46.7237 
  388000    92.193165   -7511.0094   -7017.7249   -723.27739     102002.7      46.7237      46.7237      46.7237 
  389000    92.439396   -7515.7139   -7021.1119   -732.13024     102002.7      46.7237      46.7237      46.7237 
  390000    90.316689   -7515.3159   -7032.0716   -807.94977     102002.7      46.7237      46.7237      46.7237 
  391000    89.967786   -7522.5683   -7041.1908   -796.70015     102002.7      46.7237      46.7237      46.7237 
  392000    91.939654   -7533.6248   -7041.6967   -1013.3806     102002.7      46.7237      46.7237      46.7237 
  393000    91.844771   -7515.0717   -7023.6513   -844.23452     102002.7      46.7237      46.7237      46.7237 
  394000    89.544421   -7511.4631   -7032.3509   -881.81135     102002.7      46.7237      46.7237      46.7237 
  395000    90.962637   -7539.7734   -7053.0729   -956.04979     102002.7      46.7237      46.7237      46.7237 
  396000    92.039033   -7518.8989    -7026.439   -760.37071     102002.7      46.7237      46.7237      46.7237 
  397000    88.095732   -7518.9527   -7047.5917   -690.33411     102002.7      46.7237      46.7237      46.7237 
  398000    89.481418   -7521.8117   -7043.0365    -499.6823     102002.7      46.7237      46.7237      46.7237 
  399000    87.347636   -7527.8826   -7060.5244   -555.01809     102002.7      46.7237      46.7237      46.7237 
  400000    93.057797   -7523.1067   -7025.1959   -743.53338     102002.7      46.7237      46.7237      46.7237 
  401000    93.777911   -7512.0186   -7010.2548   -795.60604     102002.7      46.7237      46.7237      46.7237 
  402000    91.178845   -7521.0719   -7033.2146   -688.20118     102002.7      46.7237      46.7237      46.7237 
  403000    89.870821   -7519.8142   -7038.9555   -815.31415     102002.7      46.7237      46.7237      46.7237 
  404000    93.472902   -7524.2188    -7024.087   -958.16018     102002.7      46.7237      46.7237      46.7237 
  405000    89.080603   -7515.3263   -7038.6957   -665.13765     102002.7      46.7237      46.7237      46.7237 
  406000    86.544168   -7521.4262   -7058.3669   -637.02315     102002.7      46.7237      46.7237      46.7237 
  407000    89.997111   -7524.8092   -7043.2748    -744.7651     102002.7      46.7237      46.7237      46.7237 
  408000    93.030688   -7512.8977   -7015.1319   -725.63702     102002.7      46.7237      46.7237      46.7237 
  409000    89.026463    -7521.681   -7045.3401   -588.99248     102002.7      46.7237      46.7237      46.7237 
  410000    92.923534   -7526.0764    -7028.884   -493.97242     102002.7      46.7237      46.7237      46.7237 
  411000    89.498898   -7537.7926   -7058.9239   -601.41167     102002.7      46.7237      46.7237      46.7237 
  412000    92.229207   -7537.2494    -7043.772   -391.19466     102002.7      46.7237      46.7237      46.7237 
  413000    93.141043   -7518.4636   -7020.1074   -592.05941     102002.7      46.7237      46.7237      46.7237 
  414000    90.835821   -7519.9179    -7033.896   -554.59941     102002.7      46.7237      46.7237      46.7237 
  415000    86.620749   -7523.5996   -7060.1306   -461.18165     102002.7      46.7237      46.7237      46.7237 
  416000    89.105779   -7510.5659   -7033.8006   -642.61525     102002.7      46.7237      46.7237      46.7237 
  417000    89.810767    -7515.773   -7035.2356   -734.22965     102002.7      46.7237      46.7237      46.7237 
  418000    92.547605   -7509.4053   -7014.2244   -583.43926     102002.7      46.7237      46.7237      46.7237 
  419000    91.801424   -7514.1854   -7022.9969   -669.98624     102002.7      46.7237      46.7237      46.7237 
  420000    91.810552   -7528.1373   -7036.8999    -788.7596     102002.7      46.7237      46.7237      46.7237 
  421000    92.092914   -7516.3219   -7023.5738    -812.6558     102002.7      46.7237      46.7237      46.7237 
  422000    87.541172   -7519.6728    -7051.279   -1109.1094     102002.7      46.7237      46.7237      46.7237 
  423000     92.85712    -7520.801    -7023.964   -861.70879     102002.7      46.7237      46.7237      46.7237 
  424000    90.806105   -7508.3084   -7022.4454   -790.08505     102002.7      46.7237      46.7237      46.7237 
  425000    93.871788   -7515.2507   -7012.9846   -896.66611     102002.7      46.7237      46.7237      46.7237 
  426000    93.289296   -7536.5055   -7037.3561   -610.74043     102002.7      46.7237      46.7237      46.7237 
  427000    92.356828   -7510.5998   -7016.4396    -650.2779     102002.7      46.7237      46.7237      46.7237 
  428000    89.984793   -7508.3558   -7026.8873   -572.88936     102002.7      46.7237      46.7237      46.7237 
  429000    91.670519   -7522.4113   -7031.9232   -675.16146     102002.7      46.7237      46.7237      46.7237 
  430000    92.508307   -7514.1492   -7019.1785   -720.32805     102002.7      46.7237      46.7237      46.7237 
  431000    89.862902   -7518.3676   -7037.5513   -632.17962     102002.7      46.7237      46.7237      46.7237 
  432000    89.477539    -7528.885   -7050.1306   -515.34974     102002.7      46.7237      46.7237      46.7237 
  433000    89.726314   -7520.6472   -7040.5617   -744.57551     102002.7      46.7237      46.7237      46.7237 
  434000    93.789161   -7524.8313   -7023.0073   -884.68798     102002.7      46.7237      46.7237      46.7237 
  435000    92.123236   -7530.3351   -7037.4247   -787.77584     102002.7      46.7237      46.7237      46.7237 
  436000    91.130379   -7530.3225   -7042.7244   -950.82963     102002.7      46.7237      46.7237      46.7237 
  437000    92.511999   -7509.8648   -7014.8744    -697.8482     102002.7      46.7237      46.7237      46.7237 
  438000    90.042172      -7524.3   -7042.5245   -798.22108     102002.7      46.7237      46.7237      46.7237 
  439000    88.274585   -7500.0042   -7027.6863    -971.5242     102002.7      46.7237      46.7237      46.7237 
  440000    92.345321   -7528.9136   -7034.8149   -827.99396     102002.7      46.7237      46.7237      46.7237 
  441000      90.3478   -7528.3971   -7044.9863   -948.08122     102002.7      46.7237      46.7237      46.7237 
  442000    93.974834   -7516.0312   -7013.2138   -596.31125     102002.7      46.7237      46.7237      46.7237 
  443000    92.218081   -7524.9996   -7031.5817   -589.99997     102002.7      46.7237      46.7237      46.7237 
  444000    87.706138   -7510.1699   -7040.8935   -595.94704     102002.7      46.7237      46.7237      46.7237 
  445000       92.215   -7519.5683   -7026.1669   -690.26313     102002.7      46.7237      46.7237      46.7237 
  446000    92.167865   -7523.0171   -7029.8679   -808.59271     102002.7      46.7237      46.7237      46.7237 
  447000     89.37408   -7512.3099   -7034.1091   -751.39334     102002.7      46.7237      46.7237      46.7237 
  448000    89.381047   -7514.7201   -7036.4819    -780.5574     102002.7      46.7237      46.7237      46.7237 
  449000    95.481824   -7532.2147    -7021.334   -690.46744     102002.7      46.7237      46.7237      46.7237 
  450000     91.76279   -7543.2545   -7052.2728   -505.75615     102002.7      46.7237      46.7237      46.7237 
  451000    90.498467   -7527.4883   -7043.2713   -578.87696     102002.7      46.7237      46.7237      46.7237 
  452000    91.166988    -7515.008   -7027.2141   -600.58208     102002.7      46.7237      46.7237      46.7237 
  453000    92.944765   -7512.1953   -7014.8893   -569.54047     102002.7      46.7237      46.7237      46.7237 
  454000    90.380081   -7509.5569   -7025.9734   -734.00204     102002.7      46.7237      46.7237      46.7237 
  455000    87.123711   -7540.3297   -7074.1696   -526.26666     102002.7      46.7237      46.7237      46.7237 
  456000    91.777764   -7509.7182   -7018.6563    -411.6737     102002.7      46.7237      46.7237      46.7237 
  457000    89.247366   -7528.7101   -7051.1872   -498.83402     102002.7      46.7237      46.7237      46.7237 
  458000    91.327731   -7510.8298   -7022.1759   -563.88719     102002.7      46.7237      46.7237      46.7237 
  459000    88.241491   -7518.8333   -7046.6925    -348.9973     102002.7      46.7237      46.7237      46.7237 
  460000    91.600036   -7516.1072   -7025.9963   -797.01699     102002.7      46.7237      46.7237      46.7237 
  461000     93.18566   -7527.4243   -7028.8294   -727.68952     102002.7      46.7237      46.7237      46.7237 
  462000    91.929665    -7536.216   -7044.3414   -723.24396     102002.7      46.7237      46.7237      46.7237 
  463000    87.630923   -7507.3839   -7038.5099   -448.50219     102002.7      46.7237      46.7237      46.7237 
  464000    93.666635   -7518.1178   -7016.9494   -679.41047     102002.7      46.7237      46.7237      46.7237 
  465000    89.841986   -7526.6627   -7045.9583   -947.47047     102002.7      46.7237      46.7237      46.7237 
  466000    92.710797   -7524.3973   -7028.3432   -688.64732     102002.7      46.7237      46.7237      46.7237 
  467000    89.573325   -7542.6157   -7063.3488    -823.0107     102002.7      46.7237      46.7237      46.7237 
  468000    91.488672   -7519.9468   -7030.4317   -745.65338     102002.7      46.7237      46.7237      46.7237 
  469000    90.232033    -7505.337   -7022.5456   -1077.2977     102002.7      46.7237      46.7237      46.7237 
  470000    89.612422    -7523.519   -7044.0429   -827.19994     102002.7      46.7237      46.7237      46.7237 
  471000     89.01736   -7529.4375   -7053.1453   -758.25522     102002.7      46.7237      46.7237      46.7237 
  472000     90.14473   -7514.3106   -7031.9863   -672.94872     102002.7      46.7237      46.7237      46.7237 
  473000    87.733143   -7515.9286   -7046.5077   -713.07008     102002.7      46.7237      46.7237      46.7237 
  474000    91.536101   -7523.4242   -7033.6553   -737.07324     102002.7      46.7237      46.7237      46.7237 
  475000     91.56949    -7520.824   -7030.8765   -820.76738     102002.7      46.7237      46.7237      46.7237 
  476000    93.047196   -7516.5781   -7018.7241   -702.97789     102002.7      46.7237      46.7237      46.7237 
  477000    91.045797   -7523.8506   -7036.7052   -756.29783     102002.7      46.7237      46.7237      46.7237 
  478000    89.162941    -7512.089   -7035.0179   -890.63408     102002.7      46.7237      46.7237      46.7237 
  479000     91.35198   -7520.8455   -7032.0618   -648.19488     102002.7      46.7237      46.7237      46.7237 
  480000    87.998014   -7531.1977   -7060.3595   -782.18906     102002.7      46.7237      46.7237      46.7237 
  481000     92.58154   -7523.9654   -7028.6028   -586.12785     102002.7      46.7237      46.7237      46.7237 
  482000    91.813319   -7527.1895   -7035.9374   -818.71397     102002.7      46.7237      46.7237      46.7237 
  483000    89.643592    -7516.836   -7037.1931   -768.74258     102002.7      46.7237      46.7237      46.7237 
  484000    93.945961   -7513.2772   -7010.6143   -764.22604     102002.7      46.7237      46.7237      46.7237 
  485000    89.485921   -7515.4928   -7036.6935   -842.97917     102002.7      46.7237      46.7237      46.7237 
  486000    87.056709   -7518.2461   -7052.4445   -950.51159     102002.7      46.7237      46.7237      46.7237 
  487000    91.956847   -7524.4738   -7032.4537   -911.30718     102002.7      46.7237      46.7237      46.7237 
  488000    90.482252   -7506.4574   -7022.3272   -795.06574     102002.7      46.7237      46.7237      46.7237 
  489000     89.73297   -7517.4503   -7037.3292    -786.0199     102002.7      46.7237      46.7237      46.7237 
  490000     90.03946   -7518.0198   -7036.2588   -579.86232     102002.7      46.7237      46.7237      46.7237 
  491000    90.645378   -7522.6432   -7037.6402   -645.57158     102002.7      46.7237      46.7237      46.7237 
  492000    91.598185   -7509.7251   -7019.6241   -708.04865     102002.7      46.7237      46.7237      46.7237 
  493000    94.166808   -7519.2986    -7015.454   -703.18739     102002.7      46.7237      46.7237      46.7237 
  494000    88.278674   -7526.8775   -7054.5377   -646.95578     102002.7      46.7237      46.7237      46.7237 
  495000    87.805817   -7491.4076   -7021.5979   -403.57115     102002.7      46.7237      46.7237      46.7237 
  496000    90.379622   -7519.9076   -7036.3266   -601.90488     102002.7      46.7237      46.7237      46.7237 
  497000    88.545785    -7516.978    -7043.209   -476.33106     102002.7      46.7237      46.7237      46.7237 
  498000    91.231565   -7509.7863   -7021.6468   -679.45383     102002.7      46.7237      46.7237      46.7237 
  499000    90.557638   -7511.5182   -7026.9846   -687.55956     102002.7      46.7237      46.7237      46.7237 
  500000    86.738153    -7519.285   -7055.1878   -569.86801     102002.7      46.7237      46.7237      46.7237 
  500506    90.402247   -7531.0524   -7047.3503   -531.13537     102002.7      46.7237      46.7237      46.7237 
Loop time of 1296.63 on 16 procs for 500000 steps with 1796 atoms

Performance: 33.317 ns/day, 0.720 hours/ns, 385.616 timesteps/s
99.8% CPU use with 16 MPI tasks x no OpenMP threads

MPI task timing breakdown:
Section |  min time  |  avg time  |  max time  |%varavg| %total
---------------------------------------------------------------
Pair    | 524.38     | 700.8      | 902.53     | 488.5 | 54.05
Bond    | 161.97     | 174.17     | 186.78     |  58.7 | 13.43
Neigh   | 4.3269     | 4.3725     | 4.4528     |   2.2 |  0.34
Comm    | 190.34     | 404        | 585.55     | 661.3 | 31.16
Output  | 0.020744   | 0.021042   | 0.023675   |   0.5 |  0.00
Modify  | 6.9727     | 7.9645     | 8.6671     |  21.3 |  0.61
Other   |            | 5.296      |            |       |  0.41

Nlocal:    112.25 ave 140 max 92 min
Histogram: 1 1 3 5 0 3 1 0 0 2
Nghost:    2276.88 ave 2296 max 2250 min
Histogram: 1 1 1 0 0 4 5 0 2 2
Neighs:    11452.9 ave 18134 max 7149 min
Histogram: 2 4 2 0 1 4 0 1 1 1

Total # of neighbors = 183246
Ave neighs/atom = 102.03
Ave special neighs/atom = 6.41425
Neighbor list builds = 3500
Dangerous builds = 0
Neighbor list info ...
  update every 1 steps, delay 10 steps, check yes
  max neighbors/atom: 2000, page size: 100000
  master list distance cutoff = 16
  ghost atom cutoff = 16
  binsize = 8, bins = 6 6 6
  3 neighbor lists, perpetual/occasional/extra = 3 0 0
  (1) pair buck6d/coul/gauss/dsf, perpetual, skip from (3)
      attributes: half, newton on
      pair build: skip
      stencil: none
      bin: none
  (2) pair lj/cut, perpetual, skip from (3)
      attributes: half, newton on
      pair build: skip
      stencil: none
      bin: none
  (3) neighbor class addition, perpetual
      attributes: half, newton on
      pair build: half/bin/newton
      stencil: half/bin/3d/newton
      bin: standard
Setting up Verlet run ...
  Unit style    : real
  Current step  : 500506
  Time step     : 1
WARNING: Inconsistent image flags (../domain.cpp:786)
Per MPI rank memory allocation (min/avg/max) = 23.07 | 23.29 | 23.34 Mbytes
Step Time TotEng KinEng PotEng E_mol E_pair Temp Pxx Pyy Pzz Pxy Pxz Pyz Cella Cellb Cellc CellAlpha CellBeta CellGamma Volume Press 
  500506       500000   -7047.3503    483.70211   -7531.0524    4195.4259   -11726.478    90.402247    -237.6653   -704.13283   -651.60797    72.499238   -71.095134   -79.034384      46.7237      46.7237      46.7237           90           90           90     102002.7   -531.13537 
  501000       500494   -7033.3679    491.80269   -7525.1706    4212.3592    -11737.53    91.916217   -905.10314   -838.48785   -466.46539    219.13866    52.959641   -28.518142      46.7237      46.7237      46.7237           90           90           90     102002.7   -736.68546 
  502000       501494   -7026.3873    489.55126   -7515.9385    4206.1466   -11722.085    91.495433   -664.38723   -936.89332   -829.75701   -122.13477   -139.22521    66.083981      46.7237      46.7237      46.7237           90           90           90     102002.7   -810.34585 
  503000       502494     -7003.15    501.44572   -7504.5957    4234.9641    -11739.56    93.718467   -1216.1383   -667.47011   -1013.6851     54.41391    59.354686    17.816006      46.7237      46.7237      46.7237           90           90           90     102002.7    -965.7645 
  504000       503494   -7044.2355    474.77377   -7519.0093    4205.3445   -11724.354    88.733572    -917.5992   -480.67922   -763.80237    59.039796    -61.81764   -113.99609      46.7237      46.7237      46.7237           90           90           90     102002.7    -720.6936 
  505000       504494   -7018.6582    483.26885    -7501.927    4220.7506   -11722.678    90.321272   -1052.8271   -417.07375   -877.20159   -169.00983     208.9057    293.34494      46.7237      46.7237      46.7237           90           90           90     102002.7   -782.36746 
  506000       505494   -7012.4321    503.72179   -7516.1539    4218.1831   -11734.337    94.143857    -695.2262   -871.08077   -843.85054   -97.559652   -171.19811    37.212745      46.7237      46.7237      46.7237           90           90           90     102002.7   -803.38583 
  507000       506494   -7034.0753    485.89629   -7519.9715    4207.2264   -11727.198    90.812332    -626.3191   -349.72155   -415.47394   -255.62543    143.48386    109.56826      46.7237      46.7237      46.7237           90           90           90     102002.7   -463.83819 
  508000       507494   -7044.8233    485.92649   -7530.7498    4194.2452   -11724.995    90.817976   -873.57933   -867.56549   -725.07364   -176.65821    60.429406   -184.64499      46.7237      46.7237      46.7237           90           90           90     102002.7   -822.07282 
  509000       508494    -7035.363    478.29407    -7513.657    4208.4392   -11722.096    89.391503   -943.55468    -1056.438   -743.02034    112.90459   -6.4876798   -129.67257      46.7237      46.7237      46.7237           90           90           90     102002.7   -914.33769 
  510000       509494   -7048.4644    480.65816   -7529.1225    4193.9929   -11723.115    89.833343   -1464.6883   -1095.7478    -275.6848    268.57936   -101.98541    136.05985      46.7237      46.7237      46.7237           90           90           90     102002.7   -945.37363 
  511000       510494   -7038.1059    479.56487   -7517.6707    4220.1661   -11737.837    89.629012   -465.89916   -526.73783   -1004.3252    280.50959    -203.4375   -61.011963      46.7237      46.7237      46.7237           90           90           90     102002.7   -665.65406 
  512000       511494   -7033.1757     481.3716   -7514.5473    4202.1821   -11716.729    89.966683    -1162.648   -740.99797   -528.79914    176.09184   -83.560758   -46.134883      46.7237      46.7237      46.7237           90           90           90     102002.7   -810.81504 
  513000       512494   -7051.9604    488.04764   -7540.0081    4189.8777   -11729.886    91.214412   -634.85319   -870.90611   -405.59822   -70.607474   -99.550742   -136.81088      46.7237      46.7237      46.7237           90           90           90     102002.7   -637.11917 
  514000       513494   -7028.5827    495.40568   -7523.9883    4203.9485   -11727.937    92.589604    -796.8051    -788.0868   -697.38197    93.125774     6.373445   -84.191912      46.7237      46.7237      46.7237           90           90           90     102002.7   -760.75796 
  515000       514494   -7041.5192    484.99763   -7526.5169    4196.0162   -11722.533    90.644375   -901.08284   -570.22478   -144.86567   -44.300805    59.099798   -29.858248      46.7237      46.7237      46.7237           90           90           90     102002.7   -538.72443 
  516000       515494   -7049.3702    474.47242   -7523.8426    4197.0217   -11720.864    88.677249   -1115.3438   -1135.1315   -197.21037   -321.49165    53.128445   -87.469046      46.7237      46.7237      46.7237           90           90           90     102002.7   -815.89524 
  517000       516494   -7027.5391    495.59391    -7523.133    4209.2304   -11732.363    92.624784   -1007.0989   -977.18045   -846.26756   -26.389344   -94.292379   -43.061417      46.7237      46.7237      46.7237           90           90           90     102002.7   -943.51563 
  518000       517494   -7015.3387    500.21486   -7515.5536    4221.3489   -11736.902    93.488424   -743.19745   -699.76239    -776.9742   -53.220433    211.15493   -247.26052      46.7237      46.7237      46.7237           90           90           90     102002.7   -739.97801 
  519000       518494   -7019.2257    511.45065   -7530.6763    4208.8878   -11739.564    95.588353   -768.56676   -1154.2143   -553.75006    13.118875    10.826661     -84.3257      46.7237      46.7237      46.7237           90           90           90     102002.7   -825.51037 
  520000       519494   -7039.8786    484.30789   -7524.1865    4204.2516   -11728.438    90.515466   -337.30762   -695.75066   -477.34341   -205.02846    -143.5487   -45.221901      46.7237      46.7237      46.7237           90           90           90     102002.7   -503.46723 
  521000       520494   -7021.8163    507.51615   -7529.3325    4171.6793   -11701.012     94.85301   -714.01561   -782.10441   -955.06342   -39.538587    -114.8026    105.28655      46.7237      46.7237      46.7237           90           90           90     102002.7   -817.06115 
  522000       521494   -7032.1546    492.11613   -7524.2708    4219.5249   -11743.796    91.974798   -715.89629   -954.02925   -591.39676    183.40763    128.98108   -202.53655      46.7237      46.7237      46.7237           90           90           90     102002.7    -753.7741 
  523000       522494   -7031.2912    479.03581    -7510.327    4215.4891   -11725.816    89.530133   -439.40894   -776.47791   -1125.2402    34.704007   -301.88107    -55.55514      46.7237      46.7237      46.7237           90           90           90     102002.7   -780.37567 
  524000       523494   -7056.9541    481.22712   -7538.1812    4181.2133   -11719.395     89.93968   -711.61339   -947.53171   -283.82589   -9.1509703    18.194931   -54.807177      46.7237      46.7237      46.7237           90           90           90     102002.7     -647.657 
  525000       524494    -7021.972    501.96974   -7523.9417    4185.7363   -11709.678    93.816404   -707.57669   -1097.1418    -292.3682   -156.92094    193.39436    13.374985      46.7237      46.7237      46.7237           90           90           90     102002.7   -699.02889 
  526000       525494   -7018.0242    493.25938   -7511.2836    4225.1984   -11736.482    92.188468    -919.0348   -839.79995   -737.32243    116.68993      64.6512   -16.176731      46.7237      46.7237      46.7237           90           90           90     102002.7   -832.05239 
  527000       526494   -7030.3283    494.08838   -7524.4166    4202.1374   -11726.554    92.343405   -860.09365    -903.8183   -760.97723   -145.41681   -60.361524    -22.85308      46.7237      46.7237      46.7237           90           90           90     102002.7   -841.62973 
  528000       527494   -7043.0099    478.46328   -7521.4731    4209.1833   -11730.656    89.423127   -936.53926    -1071.345   -508.84611   -180.69041    123.66156   -49.064918      46.7237      46.7237      46.7237           90           90           90     102002.7   -838.91012 
  529000       528494   -7020.7336    499.26395   -7519.9976    4201.3291   -11721.327    93.310701   -391.85679   -596.38369   -993.11248   -351.51512    62.860362   -145.32867      46.7237      46.7237      46.7237           90           90           90     102002.7   -660.45099 
  530000       529494   -7038.7886    473.90907   -7512.6976      4212.01   -11724.708    88.571962   -624.43165   -521.55317    -796.1411    287.44172    253.33709    83.155343      46.7237      46.7237      46.7237           90           90           90     102002.7   -647.37531 
  531000       530494   -7038.7721    496.25208   -7535.0241    4200.5791   -11735.603    92.747792   -655.71508   -254.34655   -618.96044    240.44929    27.450019    74.475529      46.7237      46.7237      46.7237           90           90           90     102002.7   -509.67402 
  532000       531494   -7011.8587     489.1338   -7500.9925    4228.6288   -11729.621    91.417411    -608.3946    -945.0276   -863.62245   -115.01682     -139.085     286.4322      46.7237      46.7237      46.7237           90           90           90     102002.7   -805.68155 
  533000       532494   -7044.1021    484.85066   -7528.9527    4204.4714   -11733.424    90.616907   -1082.9313   -782.09852   -763.27922    7.5879361   -99.796927   -181.53605      46.7237      46.7237      46.7237           90           90           90     102002.7   -876.10302 
  534000       533494   -7022.6661    477.72277   -7500.3888    4229.4025   -11729.791     89.28473   -758.82431   -664.95182   -845.04253   -221.85884   -143.77425   -317.83045      46.7237      46.7237      46.7237           90           90           90     102002.7   -756.27289 
  535000       534494     -7027.91    489.50136   -7517.4114    4205.1995   -11722.611    91.486106   -815.95151   -701.57363    -279.8719    79.370783      -73.736    102.01251      46.7237      46.7237      46.7237           90           90           90     102002.7   -599.13235 
  536000       535494   -7027.9851    476.19325   -7504.1784    4233.4181   -11737.596    88.998868   -839.02456   -698.73911   -1134.3468    216.04011   -179.67272    18.200153      46.7237      46.7237      46.7237           90           90           90     102002.7    -890.7035 
  537000       536494   -7012.5585    498.70368   -7511.2622    4215.1037   -11726.366    93.205988   -1088.6837   -1028.4248   -738.11354   -89.199305    76.665258    170.21088      46.7237      46.7237      46.7237           90           90           90     102002.7   -951.74067 
  538000       537494   -7032.3985     503.9665    -7536.365    4196.3811   -11732.746    94.189592   -702.60938   -577.20092   -552.82803     95.19656    150.37923   -92.800063      46.7237      46.7237      46.7237           90           90           90     102002.7   -610.87944 
  539000       538494   -7049.6104    486.67732   -7536.2877    4191.6688   -11727.957    90.958303   -866.85604   -1529.4179   -867.98458    155.03514    -304.3644   -189.70961      46.7237      46.7237      46.7237           90           90           90     102002.7   -1088.0862 
  540000       539494   -7028.0436     492.7641   -7520.8077    4213.1389   -11733.947    92.095903   -821.97383   -1338.7404   -1207.0126   -81.763966   -133.05319     201.3623      46.7237      46.7237      46.7237           90           90           90     102002.7   -1122.5756 
  541000       540494   -7047.7034    477.86845   -7525.5718     4207.562   -11733.134    89.311956   -889.13117   -1194.3414   -775.13245   -211.45221    69.685751   -45.610587      46.7237      46.7237      46.7237           90           90           90     102002.7   -952.86834 
  542000       541494     -7020.09    512.32979   -7532.4197    4197.7633   -11730.183    95.752662   -782.82496   -951.96518   -818.14475     175.2729    78.485002      152.523      46.7237      46.7237      46.7237           90           90           90     102002.7   -850.97829 
  543000       542494   -7012.6718    499.51227   -7512.1841    4216.7952   -11728.979    93.357111   -934.65892   -787.40244   -680.77982     17.63325    26.788106    79.017954      46.7237      46.7237      46.7237           90           90           90     102002.7   -800.94706 
  544000       543494   -7040.4571    487.55399   -7528.0111     4194.732   -11722.743    91.122151   -910.23413    -1153.328   -1081.3481   -91.522188    34.606954     167.4551      46.7237      46.7237      46.7237           90           90           90     102002.7   -1048.3034 
  545000       544494   -7047.9797    488.64297   -7536.6227     4196.947    -11733.57    91.325676   -893.24414   -838.26421   -653.77083    19.014304   -201.99703    202.44826      46.7237      46.7237      46.7237           90           90           90     102002.7   -795.09306 
  546000       545494   -7019.2291    499.53125   -7518.7603    4215.8225   -11734.583    93.360659   -1297.7631   -630.09032   -749.56193    81.264646    8.7908972   -86.511668      46.7237      46.7237      46.7237           90           90           90     102002.7   -892.47177 
  547000       546494   -7063.2533    470.73068    -7533.984     4208.316     -11742.3    87.977932   -1031.5843   -1309.3842    -628.4129   -121.66896   -118.12791    39.471425      46.7237      46.7237      46.7237           90           90           90     102002.7   -989.79379 
  548000       547494   -7023.5707    488.60609   -7512.1768    4202.7271   -11714.904    91.318784   -1064.3459   -635.35968   -1095.2458    20.207018    193.01332    143.59881      46.7237      46.7237      46.7237           90           90           90     102002.7   -931.65047 
  549000       548494   -7048.9248    479.21347   -7528.1383    4197.3241   -11725.462    89.563337   -398.33323    -496.3709   -369.05773    -108.2988    60.129221   -130.14693      46.7237      46.7237      46.7237           90           90           90     102002.7   -421.25395 
  550000       549494   -7013.3493      499.522   -7512.8713    4209.1525   -11722.024     93.35893   -577.38674   -642.63571   -641.89822   -98.004152     6.390957   -298.84704      46.7237      46.7237      46.7237           90           90           90     102002.7   -620.64022 
  551000       550494   -7041.5779    472.84536   -7514.4233    4197.4853   -11711.909    88.373159   -482.09699   -463.88022   -375.68448    230.98817    116.62415    77.317915      46.7237      46.7237      46.7237           90           90           90     102002.7    -440.5539 
  552000       551494   -7048.5546    492.56438    -7541.119    4181.8038   -11722.923    92.058574   -640.71153   -804.39294   -503.59204    28.781006   -93.029749    21.093086      46.7237      46.7237      46.7237           90           90           90     102002.7    -649.5655 
  553000       552494    -7027.124    496.51597     -7523.64    4204.7919   -11728.432    92.797113   -881.39628    -790.7016   -704.42305    16.440854   -102.75962    150.35166      46.7237      46.7237      46.7237           90           90           90     102002.7   -792.17364 
  554000       553494   -7065.9806    473.18269   -7539.1633    4174.3459   -11713.509    88.436205    -362.7699   -1070.6198   -678.73578    161.77476   -209.63393   -1.6858984      46.7237      46.7237      46.7237           90           90           90     102002.7   -704.04183 
  555000       554494   -7023.8725    490.28711   -7514.1596      4216.49    -11730.65     91.63296   -1009.5339   -1073.2363   -726.43247    213.38949    22.192702  -0.36081841      46.7237      46.7237      46.7237           90           90           90     102002.7    -936.4009 
[...]
  936000       935494   -7011.7504    501.99363    -7513.744    4198.1456    -11711.89    93.820868   -1049.1607   -618.55159    -417.0848   -77.443208   -84.659963    87.653063      46.7237      46.7237      46.7237           90           90           90     102002.7   -694.93236 
  937000       936494   -7037.9826    487.27344    -7525.256    4211.5571   -11736.813    91.069717   -398.04426   -822.69218   -1055.2867    241.57915   -138.80848    49.012179      46.7237      46.7237      46.7237           90           90           90     102002.7   -758.67437 
  938000       937494   -7037.5404    489.18413   -7526.7246    4208.1196   -11734.844    91.426819   -534.87091   -680.99124   -848.70854    140.07586   -139.28675    150.32799      46.7237      46.7237      46.7237           90           90           90     102002.7   -688.19023 
  939000       938494   -7028.2905    483.48739   -7511.7779    4207.1845   -11718.962    90.362117   -1487.2367   -424.32823   -937.93951     24.37076   -197.42923    53.402126      46.7237      46.7237      46.7237           90           90           90     102002.7   -949.83482 
  940000       939494   -7019.4997    507.83371   -7527.3334    4188.1763    -11715.51    94.912359   -530.38866   -751.04052   -429.01354    131.37337     8.971641    71.456499      46.7237      46.7237      46.7237           90           90           90     102002.7   -570.14757 
  941000       940494   -7028.5461    475.07905   -7503.6251     4218.955    -11722.58    88.790628   -525.64885   -400.54116   -1205.1334   -42.101595   -228.89114   -85.487172      46.7237      46.7237      46.7237           90           90           90     102002.7   -710.44112 
  942000       941494   -7016.9783    495.51199   -7512.4903    4217.7474   -11730.238    92.609474   -684.34109   -889.21365   -517.50124   -256.77451    37.050563   -6.9658657      46.7237      46.7237      46.7237           90           90           90     102002.7   -697.01866 
  943000       942494   -7041.5434     485.7336    -7527.277     4195.517   -11722.794    90.781927   -457.94484   -780.09554   -448.88397   -37.631042  -0.93071166   -68.259362      46.7237      46.7237      46.7237           90           90           90     102002.7   -562.30812 
  944000       943494   -7050.3058    480.22398   -7530.5298    4199.6493   -11730.179    89.752197   -1109.6759   -1022.7905   -323.06407   -127.05241    25.065179   -108.91605      46.7237      46.7237      46.7237           90           90           90     102002.7   -818.51015 
  945000       944494   -7035.5076    487.24127   -7522.7488    4202.0052   -11724.754    91.063704   -1056.4896   -793.13205   -171.90695    82.458929   -3.5936812   -133.52772      46.7237      46.7237      46.7237           90           90           90     102002.7   -673.84287 
  946000       945494   -7031.3553    479.11723   -7510.4725    4208.0737   -11718.546    89.545349   -883.56791   -925.95833   -708.54396   -69.752113   -122.46129    -30.40097      46.7237      46.7237      46.7237           90           90           90     102002.7   -839.35673 
  947000       946494   -7052.8952    473.03272    -7525.928    4207.6057   -11733.534    88.408175   -835.44168   -820.27282   -203.64643    17.843773   -104.43318   -174.31658      46.7237      46.7237      46.7237           90           90           90     102002.7   -619.78698 
  948000       947494    -7023.189    491.62744   -7514.8165    4202.3765   -11717.193    91.883464   -795.80773   -819.95014   -978.71901   -115.59998    16.203876    115.40909      46.7237      46.7237      46.7237           90           90           90     102002.7   -864.82563 
  949000       948494   -7014.7723     503.5556   -7518.3279    4216.5385   -11734.866    94.112795   -787.93738   -986.38319   -787.63423    61.848584   -71.701879   -101.98345      46.7237      46.7237      46.7237           90           90           90     102002.7   -853.98493 
  950000       949494   -7032.8283     483.4068   -7516.2351    4207.5738   -11723.809    90.347056   -401.23087   -627.47893   -704.37918    209.91135   -26.467167    33.534505      46.7237      46.7237      46.7237           90           90           90     102002.7   -577.69633 
  951000       950494   -7028.8801    484.84703   -7513.7271    4214.9502   -11728.677    90.616229   -763.15055   -1024.3968   -912.19604    192.51332    75.395971   -312.70801      46.7237      46.7237      46.7237           90           90           90     102002.7   -899.91446 
  952000       951494   -7050.0973    464.32813   -7514.4255      4203.55   -11717.975    86.781318   -930.35948   -339.09465   -1196.2565   -22.951093    63.905794    102.16442      46.7237      46.7237      46.7237           90           90           90     102002.7   -821.90355 
  953000       952494   -7044.7381    486.42636   -7531.1644    4180.0344   -11711.199      90.9114   -683.49861   -1159.9747   -773.94719   -9.8805382   -110.83976    118.79537      46.7237      46.7237      46.7237           90           90           90     102002.7    -872.4735 
  954000       953494   -7024.6545    489.24786   -7513.9023    4200.0861   -11713.988    91.438728   -570.17881   -555.09771   -646.49387    20.049698   -7.8639244    37.737318      46.7237      46.7237      46.7237           90           90           90     102002.7   -590.59013 
  955000       954494     -7044.57    474.72775   -7519.2978    4197.6372   -11716.935     88.72497    -594.2582   -872.89624   -1061.7698   -60.376015    65.984804   -191.59126      46.7237      46.7237      46.7237           90           90           90     102002.7   -842.97475 
  956000       955494   -7008.4522    498.46962   -7506.9218    4216.1764   -11723.098    93.162244   -554.41976   -461.14522   -519.78315   -106.20132    -2.834264   -79.151979      46.7237      46.7237      46.7237           90           90           90     102002.7   -511.78271 
  957000       956494   -7046.8552    482.79102   -7529.6462    4188.6641    -11718.31    90.231968   -892.98701   -620.01703   -605.92291    11.959153   -43.218934    103.26902      46.7237      46.7237      46.7237           90           90           90     102002.7   -706.30898 
  958000       957494   -7027.7419    487.45168   -7515.1936    4207.2258   -11722.419    91.103028    -687.9562   -372.77741   -571.65555     42.50755   -95.184541     -102.603      46.7237      46.7237      46.7237           90           90           90     102002.7   -544.12972 
  959000       958494   -7048.5703    484.63843   -7533.2087     4188.235   -11721.444    90.577242   -660.06318   -491.89971   -431.29716    99.206975    21.250105   0.14899448      46.7237      46.7237      46.7237           90           90           90     102002.7   -527.75335 
  960000       959494   -7045.4675    477.55471   -7523.0222    4208.6882    -11731.71    89.253319   -809.81401    -687.4564   -439.61202    50.171271   -126.03322    228.66642      46.7237      46.7237      46.7237           90           90           90     102002.7   -645.62748 
  961000       960494   -7032.5747     494.8085   -7527.3832    4189.5804   -11716.964    92.477994   -1127.0498    -740.8633   -839.22312     66.27484     2.704253    76.619619      46.7237      46.7237      46.7237           90           90           90     102002.7   -902.37873 
  962000       961494   -7051.4522     469.8363   -7521.2885    4197.9519    -11719.24    87.810776   -622.67363   -1082.0644   -601.66348   -138.88435   -109.24346    83.766077      46.7237      46.7237      46.7237           90           90           90     102002.7    -768.8005 
  963000       962494   -7044.9911    471.96146   -7516.9526    4211.0204   -11727.973     88.20796   -567.99186   -607.57464   -842.76251   -43.728499   -2.7461759    72.248226      46.7237      46.7237      46.7237           90           90           90     102002.7   -672.77633 
  964000       963494   -7030.8133    496.96434   -7527.7776    4191.4092   -11719.187    92.880911   -388.53022   -651.93054   -944.62532   -50.837375    50.120629     93.16805      46.7237      46.7237      46.7237           90           90           90     102002.7   -661.69536 
  965000       964494   -7024.4637    475.20533    -7499.669    4226.9813    -11726.65    88.814228   -1007.4821   -758.22561   -1039.1937   -139.41132   -95.908987   -5.3432268      46.7237      46.7237      46.7237           90           90           90     102002.7   -934.96716 
  966000       965494   -7056.7102    463.50143   -7520.2116    4197.9537   -11718.165    86.626811   -499.47308   -725.25924   -816.39763  -0.61343246    120.69713   -24.149277      46.7237      46.7237      46.7237           90           90           90     102002.7   -680.37665 
  967000       966494   -7033.3879    480.22693   -7513.6148    4217.1762   -11730.791    89.752748   -1259.5706   -936.27558   -788.41965   -17.698288    131.31546   -8.4542202      46.7237      46.7237      46.7237           90           90           90     102002.7   -994.75526 
  968000       967494   -7024.4102    503.24112   -7527.6513    4183.8788    -11711.53     94.05402   -688.03877   -667.42176   -1205.6903    26.797152    135.56396   -123.00763      46.7237      46.7237      46.7237           90           90           90     102002.7   -853.71695 
  969000       968494   -7020.2071    491.42623   -7511.6334    4218.3704   -11730.004    91.845859   -795.74853   -1116.1814   -763.93009    222.25093   -223.66426   -121.91424      46.7237      46.7237      46.7237           90           90           90     102002.7   -891.95335 
  970000       969494   -7004.2415    476.51618   -7480.7576    4245.6565   -11726.414    89.059222   -307.47517   -499.17913   -913.15271    9.2769375     9.045174   -56.052651      46.7237      46.7237      46.7237           90           90           90     102002.7   -573.26901 
  971000       970494   -7043.7666    473.73407   -7517.5007    4199.5878   -11717.088    88.539255   -758.34882   -673.25131   -321.20508    36.231307   -255.52344    16.917761      46.7237      46.7237      46.7237           90           90           90     102002.7    -584.2684 
  972000       971494   -7036.4601    477.47843   -7513.9385    4218.4129   -11732.351    89.239062   -770.12022   -1000.4761   -994.77864    48.209496   -105.07645     146.9103      46.7237      46.7237      46.7237           90           90           90     102002.7   -921.79167 
  973000       972494   -7004.0626    499.29615   -7503.3587    4212.0016    -11715.36    93.316719   -731.06909    -734.8338   -599.25118   -145.75638    35.999416   -74.039395      46.7237      46.7237      46.7237           90           90           90     102002.7   -688.38469 
  974000       973494   -7038.1429    494.16726   -7532.3101     4197.383   -11729.693    92.358148   -991.52086   -809.56251   -871.20805    50.643332    44.014786   -348.94403      46.7237      46.7237      46.7237           90           90           90     102002.7   -890.76381 
  975000       974494   -7054.3015    482.23111   -7536.5326    4186.1483   -11722.681    90.127322   -606.33165   -710.52681   -309.51439    167.30234   -33.095725   -100.33961      46.7237      46.7237      46.7237           90           90           90     102002.7   -542.12428 
  976000       975494   -7024.3712    492.14897   -7516.5201    4213.5646   -11730.085    91.980936   -1003.9586    -1421.014   -774.86458   -161.03417    44.217646    64.353109      46.7237      46.7237      46.7237           90           90           90     102002.7   -1066.6124 
  977000       976494   -7009.9143    492.32783   -7502.2422    4213.9592   -11716.201    92.014364   -1104.0203   -940.22117   -1072.6413   -133.85304    65.914269    190.95331      46.7237      46.7237      46.7237           90           90           90     102002.7   -1038.9609 
  978000       977494   -7039.1898    474.04452   -7513.2343    4213.0695   -11726.304    88.597278   -665.03398   -702.68832   -779.58512    41.866251    66.808528   -29.995901      46.7237      46.7237      46.7237           90           90           90     102002.7   -715.76914 
  979000       978494   -7019.2242    492.74627   -7511.9705    4198.8651   -11710.836     92.09257   -624.17577   -266.02193   -772.79322   -108.62535   -127.98072    29.802101      46.7237      46.7237      46.7237           90           90           90     102002.7   -554.33031 
  980000       979494   -7014.5011    505.62988    -7520.131    4183.7358   -11703.867    94.500471   -662.01873   -758.88722   -672.16686   -4.7347064    115.16686   -94.947299      46.7237      46.7237      46.7237           90           90           90     102002.7   -697.69094 
  981000       980494   -7038.8608    493.94522    -7532.806      4191.57   -11724.376     92.31665   -655.78453   -740.59166   -1046.4578    30.746754   -114.98437    71.731533      46.7237      46.7237      46.7237           90           90           90     102002.7     -814.278 
  982000       981494   -7035.7774    488.48824   -7524.2657    4185.7613   -11710.027    91.296759   -941.79826   -814.21624   -655.47704    24.989079    91.100075    192.67063      46.7237      46.7237      46.7237           90           90           90     102002.7   -803.83051 
  983000       982494   -7010.0344    489.56081   -7499.5952    4218.7744    -11718.37    91.497217   -942.78586   -696.37221   -203.60123    15.139136    -73.67245   -100.48939      46.7237      46.7237      46.7237           90           90           90     102002.7    -614.2531 
  984000       983494   -7029.2833    490.48969    -7519.773    4198.4397   -11718.213    91.670823   -1049.8898   -1182.2485   -895.67659   -176.37355   -124.37173   -9.2177624      46.7237      46.7237      46.7237           90           90           90     102002.7    -1042.605 
  985000       984494   -7050.9244    480.84743   -7531.7719    4192.9907   -11724.763    89.868717    -398.7222   -405.54307    -725.8611    78.050791    118.65066    102.64276      46.7237      46.7237      46.7237           90           90           90     102002.7   -510.04212 
  986000       985494   -7022.4871    491.46615   -7513.9533    4206.6004   -11720.554     91.85332   -1075.5577   -765.27021   -467.85802   -212.50229   -17.194876   -258.03233      46.7237      46.7237      46.7237           90           90           90     102002.7   -769.56197 
  987000       986494   -7014.8829    505.62917   -7520.5121    4197.3071   -11717.819    94.500339   -627.93801   -754.36713   -765.11214   -25.609873    121.56097   -99.508679      46.7237      46.7237      46.7237           90           90           90     102002.7   -715.80576 
  988000       987494   -7045.1093    476.81534   -7521.9247    4199.6703   -11721.595    89.115135   -565.71414   -742.15611   -660.95704   -2.2448651    67.017465   -39.588913      46.7237      46.7237      46.7237           90           90           90     102002.7   -656.27576 
  989000       988494   -7043.1276    499.83733   -7542.9649    4177.7132   -11720.678    93.417864   -890.80967   -504.63091   -918.80963    73.808184   -83.958788    90.727717      46.7237      46.7237      46.7237           90           90           90     102002.7   -771.41674 
  990000       989494   -7038.5099    489.55699   -7528.0669    4197.7357   -11725.803    91.496504   -775.34612   -792.37011   -517.82979    126.32955   -81.440727     16.38607      46.7237      46.7237      46.7237           90           90           90     102002.7   -695.18201 
  991000       990494   -7039.7469    491.57388   -7531.3208    4191.8053   -11723.126    91.873454   -766.07457   -526.71202   -555.04159    97.112229    47.005257   -29.795708      46.7237      46.7237      46.7237           90           90           90     102002.7   -615.94273 
  992000       991494   -7037.5585    483.80451    -7521.363    4216.0882   -11737.451    90.421385   -743.64091   -808.38403   -628.54202   -131.35918    65.706224    -9.933966      46.7237      46.7237      46.7237           90           90           90     102002.7   -726.85565 
  993000       992494   -7037.3724     490.5625   -7527.9349    4202.9917   -11730.927    91.684431   -782.53853    -979.6756   -642.96832    6.9036048     41.20994    45.281988      46.7237      46.7237      46.7237           90           90           90     102002.7   -801.72748 
  994000       993494   -7015.7237     494.1617   -7509.8854    4204.3191   -11714.205    92.357109   -525.45229   -757.43796   -768.24753     156.4556   -126.78514   -9.6584084      46.7237      46.7237      46.7237           90           90           90     102002.7   -683.71259 
  995000       994494   -7042.6471    470.21107   -7512.8582     4218.669   -11731.527    87.880819   -650.75455   -652.35722   -1092.8822    69.290272   -26.392064    75.494665      46.7237      46.7237      46.7237           90           90           90     102002.7   -798.66464 
  996000       995494    -7033.547    483.69359   -7517.2406    4198.5053   -11715.746    90.400655    -660.6647   -900.58482   -889.10006   -18.348834     17.70743   -87.256367      46.7237      46.7237      46.7237           90           90           90     102002.7   -816.78319 
  997000       996494   -7018.3665    495.77924   -7514.1458    4217.7122   -11731.858    92.659421   -1229.8556   -680.65792   -633.70722   -273.13444   -299.35179   -260.43022      46.7237      46.7237      46.7237           90           90           90     102002.7   -848.07357 
  998000       997494   -7046.1345    481.48352    -7527.618    4177.7348   -11705.353      89.9876   -773.65975   -672.45623    -590.5471   -163.85177   -99.373772    113.89304      46.7237      46.7237      46.7237           90           90           90     102002.7   -678.88769 
  999000       998494   -7036.1317    494.35657   -7530.4883    4190.9837   -11721.472    92.393528   -972.98156   -738.22954   -1050.9593   -1.4289904   -102.09446   -106.10376      46.7237      46.7237      46.7237           90           90           90     102002.7   -920.72347 
 1000000       999494   -7027.5739    489.46291   -7517.0368    4211.6666   -11728.703    91.478921   -837.87899   -501.72007   -319.69238   -128.33572    32.092803    21.769186      46.7237      46.7237      46.7237           90           90           90     102002.7   -553.09715 
 1000506      1000000   -7029.0851    494.19552   -7523.2806    4204.1247   -11727.405    92.363429   -934.82024     -660.615   -377.06454   -12.902291    96.572988   -156.12332      46.7237      46.7237      46.7237           90           90           90     102002.7   -657.49993 
Loop time of 1490.48 on 16 procs for 500000 steps with 1796 atoms

Performance: 28.984 ns/day, 0.828 hours/ns, 335.461 timesteps/s
99.9% CPU use with 16 MPI tasks x no OpenMP threads

MPI task timing breakdown:
Section |  min time  |  avg time  |  max time  |%varavg| %total
---------------------------------------------------------------
Pair    | 574.88     | 792.83     | 1031       | 603.9 | 53.19
Bond    | 159.71     | 183.59     | 203.66     | 106.3 | 12.32
Neigh   | 4.4122     | 4.4619     | 4.5415     |   2.2 |  0.30
Comm    | 227.18     | 481.8      | 718.09     | 830.9 | 32.32
Output  | 0.099455   | 0.1043     | 0.10472    |   0.4 |  0.01
Modify  | 21.11      | 22.373     | 23.407     |  18.4 |  1.50
Other   |            | 5.332      |            |       |  0.36

Nlocal:    112.25 ave 143 max 80 min
Histogram: 1 2 2 1 2 2 1 1 1 3
Nghost:    2264.75 ave 2291 max 2228 min
Histogram: 2 1 1 1 1 1 2 2 2 3
Neighs:    11468.7 ave 17346 max 6147 min
Histogram: 2 2 3 0 1 2 2 1 0 3

Total # of neighbors = 183499
Ave neighs/atom = 102.171
Ave special neighs/atom = 6.41425
Neighbor list builds = 3515
Dangerous builds = 0
Total wall time: 0:46:30
