LAMMPS (30 Mar 2018)
Reading data file ...
  orthogonal box = (0 0 0) to (46.7237 46.7237 46.7237)
  2 by 3 by 4 MPI processor grid
  reading atoms ...
  3048 atoms
  scanning bonds ...
  5 = max bonds/atom
  scanning angles ...
  10 = max angles/atom
  scanning dihedrals ...
  32 = max dihedrals/atom
  scanning impropers ...
  3 = max impropers/atom
  reading bonds ...
  2064 bonds
  reading angles ...
  3696 angles
  reading dihedrals ...
  6240 dihedrals
  reading impropers ...
  1008 impropers
Finding 1-2 1-3 1-4 neighbors ...
  special bond factors lj:   0          0          0         
  special bond factors coul: 0          0          0         
  5 = max # of 1-2 neighbors
  8 = max # of 1-3 neighbors
  20 = max # of 1-4 neighbors
  19 = max # of special neighbors
Finding 1-2 1-3 1-4 neighbors ...
  special bond factors lj:   0          0          1         
  special bond factors coul: 1          1          1         
  5 = max # of 1-2 neighbors
  8 = max # of 1-3 neighbors
  19 = max # of special neighbors
WARNING: Using 'neigh_modify every 1 delay 0 check yes' setting during minimization (../min.cpp:168)
Neighbor list info ...
  update every 1 steps, delay 0 steps, check yes
  max neighbors/atom: 2000, page size: 100000
  master list distance cutoff = 16
  ghost atom cutoff = 16
  binsize = 8, bins = 6 6 6
  3 neighbor lists, perpetual/occasional/extra = 3 0 0
  (1) pair buck6d/coul/gauss/dsf, perpetual, skip from (3)
      attributes: half, newton on
      pair build: skip
      stencil: none
      bin: none
  (2) pair lj/cut, perpetual, skip from (3)
      attributes: half, newton on
      pair build: skip
      stencil: none
      bin: none
  (3) neighbor class addition, perpetual
      attributes: half, newton on
      pair build: half/bin/newton
      stencil: half/bin/3d/newton
      bin: standard
Setting up cg style minimization ...
  Unit style    : real
  Current step  : 0
WARNING: Inconsistent image flags (../domain.cpp:786)
Per MPI rank memory allocation (min/avg/max) = 22.96 | 23.34 | 24.52 Mbytes
Step Temp E_pair E_mol TotEng Press 
       0            0   -14930.769    6482.8914   -8447.8779     5710.393 
     500            0   -15350.169    3760.8841   -11589.285   -2013.6563 
Loop time of 1.93925 on 24 procs for 500 steps with 3048 atoms

98.2% CPU use with 24 MPI tasks x no OpenMP threads

Minimization stats:
  Stopping criterion = max force evaluations
  Energy initial, next-to-last, final = 
        -8447.87789221     -11589.1011788      -11589.285243
  Force two-norm initial, final = 2575.26 18.6144
  Force max component initial, final = 152.071 1.78071
  Final line search alpha, max atom move = 0.00430803 0.00767137
  Iterations, force evaluations = 500 1000

MPI task timing breakdown:
Section |  min time  |  avg time  |  max time  |%varavg| %total
---------------------------------------------------------------
Pair    | 0.82567    | 1.0518     | 1.4364     |  15.9 | 54.24
Bond    | 0.11259    | 0.15782    | 0.20166    |   6.0 |  8.14
Neigh   | 0.017073   | 0.017679   | 0.018442   |   0.4 |  0.91
Comm    | 0.2512     | 0.67612    | 0.91209    |  21.5 | 34.86
Output  | 0          | 0          | 0          |   0.0 |  0.00
Modify  | 0          | 0          | 0          |   0.0 |  0.00
Other   |            | 0.03583    |            |       |  1.85

Nlocal:    127 ave 144 max 97 min
Histogram: 1 0 0 2 2 4 7 2 3 3
Nghost:    3388.17 ave 3558 max 3289 min
Histogram: 9 6 1 0 0 0 0 0 2 6
Neighs:    7636.67 ave 12643 max 4009 min
Histogram: 2 3 5 1 4 3 3 2 0 1

Total # of neighbors = 183280
Ave neighs/atom = 60.1312
Ave special neighs/atom = 3.77953
Neighbor list builds = 11
Dangerous builds = 0
Neighbor list info ...
  update every 1 steps, delay 10 steps, check yes
  max neighbors/atom: 2000, page size: 100000
  master list distance cutoff = 16
  ghost atom cutoff = 16
  binsize = 8, bins = 6 6 6
  3 neighbor lists, perpetual/occasional/extra = 3 0 0
  (1) pair buck6d/coul/gauss/dsf, perpetual, skip from (3)
      attributes: half, newton on
      pair build: skip
      stencil: none
      bin: none
  (2) pair lj/cut, perpetual, skip from (3)
      attributes: half, newton on
      pair build: skip
      stencil: none
      bin: none
  (3) neighbor class addition, perpetual
      attributes: half, newton on
      pair build: half/bin/newton
      stencil: half/bin/3d/newton
      bin: standard
Setting up Verlet run ...
  Unit style    : real
  Current step  : 500
  Time step     : 1
WARNING: Inconsistent image flags (../domain.cpp:786)
Per MPI rank memory allocation (min/avg/max) = 22.61 | 22.83 | 23.39 Mbytes
Step Temp PotEng TotEng Press Volume Lx Ly Lz 
     500          110   -11589.285   -10590.207   -1565.9218     102002.7      46.7237      46.7237      46.7237 
    1000    95.769151    -10786.21   -9916.3837   -721.96073     102002.7      46.7237      46.7237      46.7237 
    2000    112.38978   -10632.043   -9611.2597   -748.66164     102002.7      46.7237      46.7237      46.7237 
    3000    110.07794   -10626.988   -9627.2022   -373.26537     102002.7      46.7237      46.7237      46.7237 
    4000    110.08493   -10642.555   -9642.7058   -681.69599     102002.7      46.7237      46.7237      46.7237 
    5000    108.66449   -10635.397   -9648.4486   -1019.7236     102002.7      46.7237      46.7237      46.7237 
    6000    110.40319   -10619.715   -9616.9744   -872.86259     102002.7      46.7237      46.7237      46.7237 
    7000     110.6538   -10632.974    -9627.958   -926.35832     102002.7      46.7237      46.7237      46.7237 
    8000    112.64546   -10630.447   -9607.3413   -922.50404     102002.7      46.7237      46.7237      46.7237 
    9000    112.00788   -10650.967   -9633.6519   -1074.9624     102002.7      46.7237      46.7237      46.7237 
   10000    112.24511   -10602.661   -9583.1911   -902.25373     102002.7      46.7237      46.7237      46.7237 
   11000    110.69531   -10634.206   -9628.8127   -371.82687     102002.7      46.7237      46.7237      46.7237 
   12000     112.5083   -10651.877   -9630.0174   -825.67651     102002.7      46.7237      46.7237      46.7237 
   13000    109.67677   -10652.769   -9656.6267    -826.8872     102002.7      46.7237      46.7237      46.7237 
   14000    111.99913   -10633.735   -9616.4994   -894.93393     102002.7      46.7237      46.7237      46.7237 
   15000    109.14873   -10626.087   -9634.7403   -1081.9213     102002.7      46.7237      46.7237      46.7237 
   16000    110.34327   -10637.142   -9634.9464   -986.41599     102002.7      46.7237      46.7237      46.7237 
   17000    110.63842   -10647.137   -9642.2608     -972.815     102002.7      46.7237      46.7237      46.7237 
   18000    110.25114   -10612.442   -9611.0831   -1266.1098     102002.7      46.7237      46.7237      46.7237 
   19000    108.94289   -10597.201   -9607.7239   -831.59736     102002.7      46.7237      46.7237      46.7237 
   20000    109.42729   -10639.257   -9645.3809   -699.91276     102002.7      46.7237      46.7237      46.7237 
   21000    109.69531   -10612.973   -9616.6626   -947.66049     102002.7      46.7237      46.7237      46.7237 
   22000    110.33873   -10690.959   -9688.8044   -911.26093     102002.7      46.7237      46.7237      46.7237 
   23000    110.06942    -10627.88   -9628.1714   -951.69789     102002.7      46.7237      46.7237      46.7237 
   24000    107.58807   -10626.144   -9648.9726   -965.15476     102002.7      46.7237      46.7237      46.7237 
   25000    110.11977   -10615.416     -9615.25   -962.32877     102002.7      46.7237      46.7237      46.7237 
   26000    109.16043   -10634.577   -9643.1245   -708.45477     102002.7      46.7237      46.7237      46.7237 
   27000    110.94211   -10658.845   -9651.2098   -995.02434     102002.7      46.7237      46.7237      46.7237 
   28000    108.57433    -10647.18   -9661.0505   -1005.1937     102002.7      46.7237      46.7237      46.7237 
   29000    111.15538   -10625.327   -9615.7556   -741.93157     102002.7      46.7237      46.7237      46.7237 
   30000    112.00298   -10653.081   -9635.8108   -950.47712     102002.7      46.7237      46.7237      46.7237 
   31000    110.62012    -10617.93     -9613.22    -612.9849     102002.7      46.7237      46.7237      46.7237 
   32000    111.24306   -10638.241   -9627.8726   -863.45015     102002.7      46.7237      46.7237      46.7237 
   33000    111.45095   -10665.543   -9653.2869   -1005.2462     102002.7      46.7237      46.7237      46.7237 
   34000     111.2631   -10608.277   -9597.7265   -909.62885     102002.7      46.7237      46.7237      46.7237 
   35000    112.07939   -10616.487   -9598.5224   -1111.9502     102002.7      46.7237      46.7237      46.7237 
   36000    109.98412   -10639.134   -9640.2002   -947.33771     102002.7      46.7237      46.7237      46.7237 
   37000    109.08159   -10616.086   -9625.3498   -753.99897     102002.7      46.7237      46.7237      46.7237 
   38000    110.50941    -10636.83    -9633.125   -987.26025     102002.7      46.7237      46.7237      46.7237 
   39000    111.29514   -10631.016   -9620.1745   -721.19707     102002.7      46.7237      46.7237      46.7237 
   40000    112.62342   -10656.933   -9634.0273   -872.07151     102002.7      46.7237      46.7237      46.7237 
   41000     112.9063   -10631.544   -9606.0694   -1088.4419     102002.7      46.7237      46.7237      46.7237 
   42000    111.54143   -10628.853    -9615.775   -922.28183     102002.7      46.7237      46.7237      46.7237 
   43000    108.88835   -10621.866   -9632.8847   -985.36181     102002.7      46.7237      46.7237      46.7237 
   44000    108.74515   -10627.674    -9639.993   -1069.9154     102002.7      46.7237      46.7237      46.7237 
   45000    110.61914   -10610.614   -9605.9127   -1061.3573     102002.7      46.7237      46.7237      46.7237 
   46000    113.23034   -10615.995    -9587.577   -1165.3061     102002.7      46.7237      46.7237      46.7237 
   47000    111.17372   -10653.099    -9643.361   -938.31055     102002.7      46.7237      46.7237      46.7237 
   48000    107.49833   -10636.766   -9660.4097    -992.8572     102002.7      46.7237      46.7237      46.7237 
   49000    108.06027   -10618.502   -9637.0413   -991.31752     102002.7      46.7237      46.7237      46.7237 
   50000    110.49207   -10637.938   -9634.3902   -831.82977     102002.7      46.7237      46.7237      46.7237 
   51000    110.69947   -10622.284   -9616.8534   -971.36269     102002.7      46.7237      46.7237      46.7237 
   52000    111.01418   -10638.025   -9629.7355   -896.09329     102002.7      46.7237      46.7237      46.7237 
   53000    110.86805   -10642.393   -9635.4307   -834.74399     102002.7      46.7237      46.7237      46.7237 
   54000    110.91834   -10627.726   -9620.3071   -925.29549     102002.7      46.7237      46.7237      46.7237 
   55000     107.6969   -10647.351   -9669.1904   -912.00076     102002.7      46.7237      46.7237      46.7237 
   56000    107.22018   -10647.432   -9673.6014   -944.12968     102002.7      46.7237      46.7237      46.7237 
   57000    109.10478   -10625.098   -9634.1505     -911.673     102002.7      46.7237      46.7237      46.7237 
   58000    109.47061   -10638.415   -9644.1446   -867.94534     102002.7      46.7237      46.7237      46.7237 
   59000    109.22684   -10633.139   -9641.0837   -801.37996     102002.7      46.7237      46.7237      46.7237 
   60000    110.57185   -10625.231   -9620.9591   -836.27754     102002.7      46.7237      46.7237      46.7237 
   61000    107.33044   -10625.438    -9650.606   -971.75298     102002.7      46.7237      46.7237      46.7237 
   62000    107.79204   -10629.277   -9650.2526   -1030.6335     102002.7      46.7237      46.7237      46.7237 
   63000    111.22565   -10630.794   -9620.5842   -991.32167     102002.7      46.7237      46.7237      46.7237 
   64000    111.62401   -10611.935   -9598.1069   -1180.9082     102002.7      46.7237      46.7237      46.7237 
   65000    108.80492   -10629.188   -9640.9641   -882.51058     102002.7      46.7237      46.7237      46.7237 
   66000    108.41294   -10607.161   -9622.4971   -1012.9549     102002.7      46.7237      46.7237      46.7237 
   67000    109.43465   -10643.055   -9649.1121   -908.50961     102002.7      46.7237      46.7237      46.7237 
   68000    110.91975   -10616.175   -9608.7436   -1008.5833     102002.7      46.7237      46.7237      46.7237 
   69000    107.85003   -10628.505   -9648.9539   -890.86388     102002.7      46.7237      46.7237      46.7237 
   70000    110.20503    -10631.51     -9630.57   -1120.5238     102002.7      46.7237      46.7237      46.7237 
   71000    107.26554   -10639.204   -9664.9618   -842.61155     102002.7      46.7237      46.7237      46.7237 
   72000    108.56573   -10633.157   -9647.1061   -788.64754     102002.7      46.7237      46.7237      46.7237 
   73000    111.45778   -10648.164   -9635.8457   -666.79023     102002.7      46.7237      46.7237      46.7237 
   74000    108.88824   -10602.964   -9613.9839   -523.42459     102002.7      46.7237      46.7237      46.7237 
   75000    107.38688   -10631.408   -9656.0633   -664.75924     102002.7      46.7237      46.7237      46.7237 
   76000    109.48537    -10619.74   -9625.3355   -590.28602     102002.7      46.7237      46.7237      46.7237 
   77000     109.4939   -10612.519   -9618.0375   -668.02598     102002.7      46.7237      46.7237      46.7237 
   78000    110.46767   -10616.688   -9613.3626    -745.9437     102002.7      46.7237      46.7237      46.7237 
   79000    110.99676   -10609.621   -9601.4896   -829.08102     102002.7      46.7237      46.7237      46.7237 
   80000    110.29636   -10614.604   -9612.8343   -644.53308     102002.7      46.7237      46.7237      46.7237 
   81000    108.96318   -10631.096   -9641.4347   -1009.1388     102002.7      46.7237      46.7237      46.7237 
   82000    108.92752   -10620.555   -9631.2178   -738.68848     102002.7      46.7237      46.7237      46.7237 
   83000    108.98358   -10621.822   -9631.9752   -972.93523     102002.7      46.7237      46.7237      46.7237 
   84000    110.12231    -10615.69   -9615.5015   -1138.3032     102002.7      46.7237      46.7237      46.7237 
   85000    108.47941   -10642.179   -9656.9118   -973.22783     102002.7      46.7237      46.7237      46.7237 
   86000    110.51324   -10647.746   -9644.0068   -995.15641     102002.7      46.7237      46.7237      46.7237 
   87000    109.49555   -10629.033   -9634.5368   -741.35125     102002.7      46.7237      46.7237      46.7237 
   88000    112.09303   -10625.696   -9607.6076   -724.99951     102002.7      46.7237      46.7237      46.7237 
   89000    107.20644   -10602.691   -9628.9859   -1155.6971     102002.7      46.7237      46.7237      46.7237 
   90000    108.51787    -10610.67   -9625.0539   -955.16836     102002.7      46.7237      46.7237      46.7237 
   91000    109.98289   -10627.258   -9628.3355   -971.39517     102002.7      46.7237      46.7237      46.7237 
   92000    113.01307   -10620.812   -9594.3679   -1099.3383     102002.7      46.7237      46.7237      46.7237 
   93000    104.75942   -10655.962   -9704.4819   -645.92085     102002.7      46.7237      46.7237      46.7237 
   94000    110.12783       -10611   -9610.7613   -1065.3744     102002.7      46.7237      46.7237      46.7237 
   95000    110.13686   -10633.039   -9632.7181   -788.90077     102002.7      46.7237      46.7237      46.7237 
   96000    108.13025   -10620.402   -9638.3059   -758.18262     102002.7      46.7237      46.7237      46.7237 
   97000    111.38973   -10641.627   -9629.9268   -814.47313     102002.7      46.7237      46.7237      46.7237 
   98000    110.62574    -10649.81   -9645.0483   -521.72046     102002.7      46.7237      46.7237      46.7237 
   99000    111.59271   -10604.822   -9591.2783   -810.44441     102002.7      46.7237      46.7237      46.7237 
  100000    111.62798   -10636.886   -9623.0221   -724.36669     102002.7      46.7237      46.7237      46.7237 
  101000    111.25871   -10665.493   -9654.9827   -853.97756     102002.7      46.7237      46.7237      46.7237 
  102000     111.2117   -10641.855    -9631.772   -859.84965     102002.7      46.7237      46.7237      46.7237 
  103000    108.20188   -10619.618    -9636.871   -801.29126     102002.7      46.7237      46.7237      46.7237 
  104000    109.11514   -10617.689   -9626.6472   -1038.9339     102002.7      46.7237      46.7237      46.7237 
  105000    111.12365    -10619.81   -9610.5259   -978.21404     102002.7      46.7237      46.7237      46.7237 
  106000    110.13504   -10656.324   -9656.0196   -1014.7477     102002.7      46.7237      46.7237      46.7237 
  107000    111.19259   -10631.402   -9621.4927   -1171.1032     102002.7      46.7237      46.7237      46.7237 
  108000     112.9475   -10593.332   -9567.4827   -915.27239     102002.7      46.7237      46.7237      46.7237 
  109000     108.3143   -10613.087   -9629.3193   -1051.4917     102002.7      46.7237      46.7237      46.7237 
  110000    107.76857   -10620.132   -9641.3205   -1049.7163     102002.7      46.7237      46.7237      46.7237 
  111000    112.24156   -10647.197   -9627.7599   -899.12362     102002.7      46.7237      46.7237      46.7237 
  112000    111.38084   -10615.098   -9603.4785   -1154.3339     102002.7      46.7237      46.7237      46.7237 
  113000    109.12817   -10648.089   -9656.9296    -1293.007     102002.7      46.7237      46.7237      46.7237 
  114000    110.88667   -10612.684   -9605.5526   -774.90175     102002.7      46.7237      46.7237      46.7237 
  115000    108.78933   -10647.818   -9659.7358   -852.29133     102002.7      46.7237      46.7237      46.7237 
  116000     110.2422   -10633.357   -9632.0792   -1005.4931     102002.7      46.7237      46.7237      46.7237 
  117000    109.57169   -10619.227   -9624.0394   -909.37341     102002.7      46.7237      46.7237      46.7237 
  118000    108.41011   -10614.621   -9629.9828   -732.08496     102002.7      46.7237      46.7237      46.7237 
  119000    109.66274   -10615.768   -9619.7534    -816.7966     102002.7      46.7237      46.7237      46.7237 
  120000    111.71371   -10649.016   -9634.3733   -846.40406     102002.7      46.7237      46.7237      46.7237 
  121000    110.87048   -10639.831   -9632.8467   -805.07414     102002.7      46.7237      46.7237      46.7237 
  122000    107.04789   -10637.552   -9665.2862   -1023.0914     102002.7      46.7237      46.7237      46.7237 
  123000    114.11333    -10630.85   -9594.4124   -895.19647     102002.7      46.7237      46.7237      46.7237 
  124000    109.60856   -10614.884    -9619.361   -976.40444     102002.7      46.7237      46.7237      46.7237 
  125000    110.24195   -10602.139   -9600.8632   -1042.8668     102002.7      46.7237      46.7237      46.7237 
  126000    110.01028   -10633.037   -9633.8653   -1221.2507     102002.7      46.7237      46.7237      46.7237 
  127000    109.97791   -10628.894   -9630.0166   -1220.0685     102002.7      46.7237      46.7237      46.7237 
  128000    109.55198    -10625.66   -9630.6514   -1072.0251     102002.7      46.7237      46.7237      46.7237 
  129000    110.18609   -10656.382   -9655.6135   -1305.4126     102002.7      46.7237      46.7237      46.7237 
  130000    109.07063   -10634.364   -9643.7266   -1058.5656     102002.7      46.7237      46.7237      46.7237 
  131000    109.94703   -10655.391   -9656.7941   -1165.3184     102002.7      46.7237      46.7237      46.7237 
  132000    111.41347   -10642.129   -9630.2133   -1070.8969     102002.7      46.7237      46.7237      46.7237 
  133000    108.69579   -10622.302   -9635.0698   -830.55203     102002.7      46.7237      46.7237      46.7237 
  134000    111.90456   -10612.723   -9596.3465   -787.78919     102002.7      46.7237      46.7237      46.7237 
  135000    111.27835   -10603.411   -9592.7226   -912.35149     102002.7      46.7237      46.7237      46.7237 
  136000    111.05535   -10610.869   -9602.2052   -682.55206     102002.7      46.7237      46.7237      46.7237 
  137000    110.11876   -10650.846   -9650.6893   -789.06801     102002.7      46.7237      46.7237      46.7237 
  138000    110.90605   -10635.626   -9628.3184    -1046.828     102002.7      46.7237      46.7237      46.7237 
  139000    109.25351   -10614.999   -9622.7007    -1059.979     102002.7      46.7237      46.7237      46.7237 
  140000    109.36104   -10649.518   -9656.2433   -1175.0116     102002.7      46.7237      46.7237      46.7237 
  141000    110.64149   -10620.419   -9615.5144   -848.69106     102002.7      46.7237      46.7237      46.7237 
  142000    109.32745   -10616.777   -9623.8077   -974.82935     102002.7      46.7237      46.7237      46.7237 
  143000    110.16263   -10617.758   -9617.2032   -1235.9379     102002.7      46.7237      46.7237      46.7237 
  144000    108.09604   -10627.492   -9645.7066   -974.70973     102002.7      46.7237      46.7237      46.7237 
  145000    109.15511   -10616.627   -9625.2221   -896.54922     102002.7      46.7237      46.7237      46.7237 
  146000    109.41739   -10656.293   -9662.5061   -983.10686     102002.7      46.7237      46.7237      46.7237 
  147000    109.45982   -10639.428   -9645.2558   -1014.8375     102002.7      46.7237      46.7237      46.7237 
  148000    109.09397   -10615.572   -9624.7232   -902.62596     102002.7      46.7237      46.7237      46.7237 
  149000    107.43606   -10654.131   -9678.3403   -925.16775     102002.7      46.7237      46.7237      46.7237 
  150000    106.26165   -10632.818   -9667.6941   -679.08291     102002.7      46.7237      46.7237      46.7237 
  151000    112.06794   -10653.271   -9635.4105   -812.01134     102002.7      46.7237      46.7237      46.7237 
  152000    109.84445   -10643.143   -9645.4772   -789.52383     102002.7      46.7237      46.7237      46.7237 
  153000    109.94442   -10636.009    -9637.436   -787.24909     102002.7      46.7237      46.7237      46.7237 
  154000    108.22523   -10607.888   -9624.9292    -671.8758     102002.7      46.7237      46.7237      46.7237 
  155000    111.13948   -10625.527   -9616.0993   -789.44711     102002.7      46.7237      46.7237      46.7237 
  156000    109.15378   -10614.536    -9623.144   -1180.6224     102002.7      46.7237      46.7237      46.7237 
  157000     111.2056   -10628.936   -9618.9084   -891.57092     102002.7      46.7237      46.7237      46.7237 
  158000    108.50529   -10608.347   -9622.8449    -1171.913     102002.7      46.7237      46.7237      46.7237 
  159000    110.05938     -10616.5   -9616.8827   -749.93317     102002.7      46.7237      46.7237      46.7237 
  160000     111.9526   -10605.948   -9589.1351   -1047.9521     102002.7      46.7237      46.7237      46.7237 
  161000    111.49125   -10616.077    -9603.455   -921.34666     102002.7      46.7237      46.7237      46.7237 
  162000     110.9996    -10624.74   -9616.5828   -800.32539     102002.7      46.7237      46.7237      46.7237 
  163000    110.76749   -10644.706    -9638.657   -905.34021     102002.7      46.7237      46.7237      46.7237 
  164000    111.94393   -10617.446   -9600.7125   -690.11524     102002.7      46.7237      46.7237      46.7237 
  165000     111.9973   -10643.466   -9626.2471   -728.07355     102002.7      46.7237      46.7237      46.7237 
  166000     108.1356   -10613.551   -9631.4068   -542.28415     102002.7      46.7237      46.7237      46.7237 
  167000    111.47788   -10616.271   -9603.7702   -891.91725     102002.7      46.7237      46.7237      46.7237 
  168000    111.89396   -10598.377   -9582.0971   -1127.2246     102002.7      46.7237      46.7237      46.7237 
  169000     112.4797   -10624.478   -9602.8784   -934.32259     102002.7      46.7237      46.7237      46.7237 
  170000    107.04792   -10633.451   -9661.1856   -1279.8816     102002.7      46.7237      46.7237      46.7237 
  171000    108.58832   -10633.148    -9646.891   -1316.1282     102002.7      46.7237      46.7237      46.7237 
  172000    109.85718   -10615.686   -9617.9048   -1144.1521     102002.7      46.7237      46.7237      46.7237 
  173000    108.92235   -10615.429   -9626.1383   -973.98161     102002.7      46.7237      46.7237      46.7237 
  174000    110.54559   -10624.391    -9620.358   -901.75117     102002.7      46.7237      46.7237      46.7237 
  175000    110.51821   -10621.056   -9617.2708   -969.52334     102002.7      46.7237      46.7237      46.7237 
  176000    108.23656   -10644.058    -9660.996   -889.08636     102002.7      46.7237      46.7237      46.7237 
  177000    109.59543   -10631.487    -9636.083   -1167.3172     102002.7      46.7237      46.7237      46.7237 
  178000    110.06376   -10624.572    -9624.915   -939.96419     102002.7      46.7237      46.7237      46.7237 
  179000    109.87725   -10598.729   -9600.7654   -699.09946     102002.7      46.7237      46.7237      46.7237 
  180000    109.77584   -10628.666    -9631.624    -1028.948     102002.7      46.7237      46.7237      46.7237 
  181000    107.86615   -10655.327   -9675.6293    -1275.661     102002.7      46.7237      46.7237      46.7237 
  182000    112.81071   -10626.064   -9601.4576   -877.24137     102002.7      46.7237      46.7237      46.7237 
  183000    107.37898   -10613.482   -9638.2095   -1093.2137     102002.7      46.7237      46.7237      46.7237 
  184000    110.92954   -10619.661   -9612.1399   -916.73294     102002.7      46.7237      46.7237      46.7237 
  185000    110.09845    -10632.12   -9632.1473   -905.35913     102002.7      46.7237      46.7237      46.7237 
  186000     109.7204   -10628.353   -9631.8141   -899.66766     102002.7      46.7237      46.7237      46.7237 
  187000    108.54593   -10636.727   -9650.8557   -1371.9361     102002.7      46.7237      46.7237      46.7237 
  188000    111.95911   -10628.411   -9611.5392   -1257.9428     102002.7      46.7237      46.7237      46.7237 
  189000    108.20243   -10624.005   -9641.2531   -1146.0307     102002.7      46.7237      46.7237      46.7237 
  190000    108.77606   -10636.792   -9648.8304   -926.76262     102002.7      46.7237      46.7237      46.7237 
  191000    112.39499    -10646.21   -9625.3798    -1243.591     102002.7      46.7237      46.7237      46.7237 
  192000    110.06594   -10658.937   -9659.2604   -957.66656     102002.7      46.7237      46.7237      46.7237 
  193000    111.17783   -10625.277   -9615.5009   -932.26673     102002.7      46.7237      46.7237      46.7237 
  194000    110.93385   -10638.806   -9631.2461   -1220.2499     102002.7      46.7237      46.7237      46.7237 
  195000    110.73865   -10618.546   -9612.7592   -920.78698     102002.7      46.7237      46.7237      46.7237 
  196000    111.25865   -10610.442   -9599.9317   -901.64854     102002.7      46.7237      46.7237      46.7237 
  197000    109.06313   -10621.204   -9630.6346   -764.59979     102002.7      46.7237      46.7237      46.7237 
  198000    107.35871   -10633.927   -9658.8388   -1029.5875     102002.7      46.7237      46.7237      46.7237 
  199000    108.45295   -10632.945   -9647.9182   -1143.3032     102002.7      46.7237      46.7237      46.7237 
  200000     110.6571    -10631.97    -9626.924   -909.36852     102002.7      46.7237      46.7237      46.7237 
  201000    112.26388    -10609.66   -9590.0204   -1144.2199     102002.7      46.7237      46.7237      46.7237 
  202000    109.91399   -10620.875   -9622.5783   -976.25998     102002.7      46.7237      46.7237      46.7237 
  203000    109.17365   -10663.506   -9671.9334   -975.94424     102002.7      46.7237      46.7237      46.7237 
  204000    111.03575   -10655.837   -9647.3517   -977.60243     102002.7      46.7237      46.7237      46.7237 
  205000    112.78653    -10641.53   -9617.1432    -584.3606     102002.7      46.7237      46.7237      46.7237 
  206000    110.45125   -10623.821   -9620.6448   -1131.8918     102002.7      46.7237      46.7237      46.7237 
  207000    112.20916   -10612.742   -9593.5988   -736.53639     102002.7      46.7237      46.7237      46.7237 
  208000     110.5822   -10642.572   -9638.2063   -722.41115     102002.7      46.7237      46.7237      46.7237 
  209000    109.52197   -10616.095   -9621.3586   -899.09063     102002.7      46.7237      46.7237      46.7237 
  210000    110.15097   -10629.122   -9628.6728   -940.35695     102002.7      46.7237      46.7237      46.7237 
  211000    108.72884   -10597.006   -9609.4737   -1098.3922     102002.7      46.7237      46.7237      46.7237 
  212000    113.44524   -10628.628   -9598.2581   -1062.1001     102002.7      46.7237      46.7237      46.7237 
  213000    109.74004   -10629.948   -9633.2306   -935.37287     102002.7      46.7237      46.7237      46.7237 
  214000    109.11728   -10639.208   -9648.1474   -1119.1828     102002.7      46.7237      46.7237      46.7237 
  215000    110.22198   -10643.534   -9642.4396   -956.29563     102002.7      46.7237      46.7237      46.7237 
  216000    110.59711   -10625.162   -9620.6609   -1112.1941     102002.7      46.7237      46.7237      46.7237 
  217000    112.75182   -10618.091   -9594.0196   -993.53467     102002.7      46.7237      46.7237      46.7237 
  218000    109.67491   -10621.832   -9625.7066   -890.19983     102002.7      46.7237      46.7237      46.7237 
  219000    109.98224   -10643.907     -9644.99   -813.92334     102002.7      46.7237      46.7237      46.7237 
  220000    109.04931   -10627.683   -9637.2391   -819.33218     102002.7      46.7237      46.7237      46.7237 
  221000    113.15316    -10616.47   -9588.7533   -880.01708     102002.7      46.7237      46.7237      46.7237 
  222000     108.1073   -10607.094   -9625.2068   -691.86686     102002.7      46.7237      46.7237      46.7237 
  223000    110.06213   -10594.887    -9595.245   -809.05947     102002.7      46.7237      46.7237      46.7237 
  224000    109.50571   -10635.563   -9640.9744   -926.56648     102002.7      46.7237      46.7237      46.7237 
  225000    108.47187   -10657.838    -9672.639   -758.09154     102002.7      46.7237      46.7237      46.7237 
  226000    108.46116   -10618.802   -9633.7006   -1089.5078     102002.7      46.7237      46.7237      46.7237 
  227000    108.50766   -10633.474   -9647.9502   -1146.3216     102002.7      46.7237      46.7237      46.7237 
  228000    109.42753   -10629.654    -9635.775   -1001.7925     102002.7      46.7237      46.7237      46.7237 
  229000    110.01264   -10633.669   -9634.4761   -1096.7612     102002.7      46.7237      46.7237      46.7237 
  230000    111.47809   -10630.021   -9617.5178   -869.47929     102002.7      46.7237      46.7237      46.7237 
  231000    112.31359   -10640.511   -9620.4198   -970.04173     102002.7      46.7237      46.7237      46.7237 
  232000    110.22878   -10641.557   -9640.4008   -749.69009     102002.7      46.7237      46.7237      46.7237 
  233000    110.71512   -10636.671    -9631.098   -490.79459     102002.7      46.7237      46.7237      46.7237 
  234000    110.43311   -10632.833   -9629.8216   -893.60334     102002.7      46.7237      46.7237      46.7237 
  235000      109.121   -10586.667   -9595.5723   -607.49445     102002.7      46.7237      46.7237      46.7237 
  236000    111.23998   -10641.578   -9631.2377   -730.89811     102002.7      46.7237      46.7237      46.7237 
  237000    114.51199   -10618.508   -9578.4497   -839.83345     102002.7      46.7237      46.7237      46.7237 
  238000    110.74225   -10626.502   -9620.6827   -808.88873     102002.7      46.7237      46.7237      46.7237 
  239000    110.43976   -10648.547   -9645.4749   -1050.0616     102002.7      46.7237      46.7237      46.7237 
  240000    111.74111   -10594.692   -9579.8003   -812.43055     102002.7      46.7237      46.7237      46.7237 
  241000    108.48107   -10636.428   -9651.1458   -1006.4665     102002.7      46.7237      46.7237      46.7237 
  242000    111.77547   -10615.282   -9600.0785   -1045.9634     102002.7      46.7237      46.7237      46.7237 
  243000    111.71844   -10620.252    -9605.566    -818.6172     102002.7      46.7237      46.7237      46.7237 
  244000    110.20366   -10617.179   -9616.2513   -1131.4477     102002.7      46.7237      46.7237      46.7237 
  245000    109.43785    -10649.79    -9655.818   -901.61314     102002.7      46.7237      46.7237      46.7237 
  246000    108.80762    -10630.48   -9642.2322   -774.19986     102002.7      46.7237      46.7237      46.7237 
  247000    109.05145   -10603.207   -9612.7437   -1030.9981     102002.7      46.7237      46.7237      46.7237 
  248000    111.32194   -10628.517   -9617.4328   -880.97841     102002.7      46.7237      46.7237      46.7237 
  249000    108.97117   -10629.934   -9640.2003   -1003.3954     102002.7      46.7237      46.7237      46.7237 
  250000    110.44338   -10633.001   -9629.8959   -1246.3273     102002.7      46.7237      46.7237      46.7237 
  251000    108.82671   -10636.356   -9647.9346   -830.89418     102002.7      46.7237      46.7237      46.7237 
  252000    110.59045   -10624.566   -9620.1247   -960.24278     102002.7      46.7237      46.7237      46.7237 
  253000    112.09283   -10627.777   -9609.6903   -980.33015     102002.7      46.7237      46.7237      46.7237 
  254000    110.56601   -10615.582   -9611.3627   -1011.6899     102002.7      46.7237      46.7237      46.7237 
  255000    115.04007   -10626.963   -9582.1079   -1033.4941     102002.7      46.7237      46.7237      46.7237 
  256000    109.26782     -10638.7   -9646.2722   -1171.4082     102002.7      46.7237      46.7237      46.7237 
  257000    112.42782   -10635.404   -9614.2756   -831.38134     102002.7      46.7237      46.7237      46.7237 
  258000    113.01854   -10637.767   -9611.2734   -1277.4439     102002.7      46.7237      46.7237      46.7237 
  259000    108.86497   -10610.427   -9621.6579   -1044.5509     102002.7      46.7237      46.7237      46.7237 
  260000    109.08724   -10612.856   -9622.0676   -1055.9697     102002.7      46.7237      46.7237      46.7237 
  261000    107.32439   -10627.891   -9653.1141   -1126.9328     102002.7      46.7237      46.7237      46.7237 
  262000    110.33013   -10620.437   -9618.3605   -825.44057     102002.7      46.7237      46.7237      46.7237 
  263000    111.09109   -10635.889   -9626.9006   -855.45301     102002.7      46.7237      46.7237      46.7237 
  264000     110.7519   -10617.392    -9611.485   -735.38774     102002.7      46.7237      46.7237      46.7237 
  265000    111.67589   -10612.762   -9598.4623   -887.04161     102002.7      46.7237      46.7237      46.7237 
  266000    110.38318   -10605.752   -9603.1938   -1027.0126     102002.7      46.7237      46.7237      46.7237 
  267000    108.76076   -10640.121   -9652.2984   -995.19983     102002.7      46.7237      46.7237      46.7237 
  268000    108.93466   -10622.379   -9632.9764   -956.28592     102002.7      46.7237      46.7237      46.7237 
  269000    109.16445   -10607.082   -9615.5925   -863.12553     102002.7      46.7237      46.7237      46.7237 
  270000    109.97914   -10627.082   -9628.1931   -966.85918     102002.7      46.7237      46.7237      46.7237 
  271000    110.71737    -10644.71   -9639.1163   -1109.4462     102002.7      46.7237      46.7237      46.7237 
  272000    108.58152   -10659.382   -9673.1875   -1007.0223     102002.7      46.7237      46.7237      46.7237 
  273000    109.62032   -10621.136   -9625.5061   -1116.7386     102002.7      46.7237      46.7237      46.7237 
  274000    110.06071   -10654.923   -9655.2937   -903.11593     102002.7      46.7237      46.7237      46.7237 
  275000    108.98646   -10620.757    -9630.884    -823.6574     102002.7      46.7237      46.7237      46.7237 
  276000    111.05242   -10639.507   -9630.8701   -865.82601     102002.7      46.7237      46.7237      46.7237 
  277000    110.07191   -10651.565   -9651.8342   -1182.0677     102002.7      46.7237      46.7237      46.7237 
  278000    111.74195   -10627.132   -9612.2323   -1355.7763     102002.7      46.7237      46.7237      46.7237 
  279000    108.91936   -10626.476   -9637.2128   -952.68044     102002.7      46.7237      46.7237      46.7237 
  280000    108.65028   -10628.108   -9641.2884   -865.59034     102002.7      46.7237      46.7237      46.7237 
  281000    108.13828    -10643.78   -9661.6111   -1084.0478     102002.7      46.7237      46.7237      46.7237 
  282000    109.06911   -10621.329   -9630.7062   -965.07733     102002.7      46.7237      46.7237      46.7237 
  283000    109.62036   -10604.691   -9609.0613   -709.83727     102002.7      46.7237      46.7237      46.7237 
  284000    112.21889   -10648.019   -9628.7877   -627.97148     102002.7      46.7237      46.7237      46.7237 
  285000    109.98823   -10615.005   -9616.0335   -947.85968     102002.7      46.7237      46.7237      46.7237 
  286000    110.86155   -10606.199   -9599.2963   -787.50513     102002.7      46.7237      46.7237      46.7237 
  287000    110.32674   -10616.316   -9614.2705   -986.49129     102002.7      46.7237      46.7237      46.7237 
  288000    107.18001   -10622.183   -9648.7173   -922.72522     102002.7      46.7237      46.7237      46.7237 
  289000    109.05383   -10630.587   -9640.1024   -995.32439     102002.7      46.7237      46.7237      46.7237 
  290000    107.15517    -10651.57   -9678.3301   -1087.0701     102002.7      46.7237      46.7237      46.7237 
  291000    111.99154   -10605.012   -9587.8461   -859.73201     102002.7      46.7237      46.7237      46.7237 
  292000    111.30401   -10612.919   -9601.9973   -876.08625     102002.7      46.7237      46.7237      46.7237 
  293000    110.97838   -10622.703    -9614.739   -1108.1276     102002.7      46.7237      46.7237      46.7237 
  294000    107.33635   -10619.651   -9644.7656   -1058.6733     102002.7      46.7237      46.7237      46.7237 
  295000    111.95363   -10614.872   -9598.0495   -1079.4421     102002.7      46.7237      46.7237      46.7237 
  296000    108.80034    -10616.99   -9628.8074   -798.11264     102002.7      46.7237      46.7237      46.7237 
  297000      108.271   -10603.197   -9619.8227   -881.15559     102002.7      46.7237      46.7237      46.7237 
  298000    110.06297   -10635.931   -9636.2805   -846.71095     102002.7      46.7237      46.7237      46.7237 
  299000     109.0441   -10639.082   -9648.6861   -701.57111     102002.7      46.7237      46.7237      46.7237 
  300000    110.19603   -10617.192    -9616.334    -1001.192     102002.7      46.7237      46.7237      46.7237 
  301000    112.59128   -10626.021   -9603.4071   -899.90221     102002.7      46.7237      46.7237      46.7237 
  302000    108.77221   -10623.312   -9635.3854   -939.09703     102002.7      46.7237      46.7237      46.7237 
  303000    110.41748   -10631.805   -9628.9356   -994.34143     102002.7      46.7237      46.7237      46.7237 
  304000    109.91547   -10611.561   -9613.2507   -912.35704     102002.7      46.7237      46.7237      46.7237 
  305000     112.8104   -10616.032   -9591.4281   -815.06546     102002.7      46.7237      46.7237      46.7237 
  306000    109.59774   -10639.847   -9644.4226   -998.62515     102002.7      46.7237      46.7237      46.7237 
  307000    111.08336   -10633.887   -9624.9697   -1123.5911     102002.7      46.7237      46.7237      46.7237 
  308000    108.59915   -10653.954   -9667.5993   -1002.0617     102002.7      46.7237      46.7237      46.7237 
  309000    111.39525   -10629.214   -9617.4633   -1096.1308     102002.7      46.7237      46.7237      46.7237 
  310000    111.97419   -10634.586   -9617.5769   -1309.3497     102002.7      46.7237      46.7237      46.7237 
  311000    109.34146   -10646.176   -9653.0788    -1260.657     102002.7      46.7237      46.7237      46.7237 
  312000    110.05315   -10608.256   -9608.6954   -1014.3134     102002.7      46.7237      46.7237      46.7237 
  313000    107.54382   -10609.734   -9632.9638   -1113.2748     102002.7      46.7237      46.7237      46.7237 
  314000    111.25546   -10654.159   -9643.6779   -1048.8301     102002.7      46.7237      46.7237      46.7237 
  315000      109.696    -10621.89   -9625.5732   -952.95165     102002.7      46.7237      46.7237      46.7237 
  316000    108.57081   -10612.428    -9626.331   -1095.6416     102002.7      46.7237      46.7237      46.7237 
  317000    108.92979   -10602.904   -9613.5457   -1381.3278     102002.7      46.7237      46.7237      46.7237 
  318000    112.15791   -10632.869   -9614.1921   -1253.2178     102002.7      46.7237      46.7237      46.7237 
  319000    113.11255   -10629.509   -9602.1613   -1214.9862     102002.7      46.7237      46.7237      46.7237 
  320000    108.27415   -10619.143     -9635.74   -1115.0738     102002.7      46.7237      46.7237      46.7237 
  321000    112.42093   -10642.853   -9621.7869   -1126.8842     102002.7      46.7237      46.7237      46.7237 
  322000    106.95493   -10636.879   -9665.4573   -941.46203     102002.7      46.7237      46.7237      46.7237 
  323000     111.7028   -10633.641   -9619.0977   -1053.9148     102002.7      46.7237      46.7237      46.7237 
  324000    111.81924   -10641.307   -9625.7053   -757.94748     102002.7      46.7237      46.7237      46.7237 
  325000    111.81415   -10627.991   -9612.4358   -948.79075     102002.7      46.7237      46.7237      46.7237 
  326000    112.48762   -10633.205   -9611.5329   -939.45548     102002.7      46.7237      46.7237      46.7237 
  327000    110.64627   -10631.976   -9627.0277   -532.39469     102002.7      46.7237      46.7237      46.7237 
  328000    108.71482    -10626.81   -9639.4043   -699.96971     102002.7      46.7237      46.7237      46.7237 
  329000    110.96112    -10634.22   -9626.4124   -668.25471     102002.7      46.7237      46.7237      46.7237 
  330000    109.22251   -10645.655   -9653.6389    -968.3595     102002.7      46.7237      46.7237      46.7237 
  331000    109.52137   -10644.942   -9650.2112   -968.94845     102002.7      46.7237      46.7237      46.7237 
  332000    108.94969   -10614.833   -9625.2942   -1138.4087     102002.7      46.7237      46.7237      46.7237 
  333000    110.47091   -10631.699   -9628.3434   -1057.7309     102002.7      46.7237      46.7237      46.7237 
  334000    111.72916   -10619.018   -9604.2349    -1090.099     102002.7      46.7237      46.7237      46.7237 
  335000    110.71376    -10609.27    -9603.709    -987.8983     102002.7      46.7237      46.7237      46.7237 
  336000    109.41102   -10640.436   -9646.7076   -1039.8874     102002.7      46.7237      46.7237      46.7237 
  337000    109.97323   -10617.097   -9618.2617   -1049.0598     102002.7      46.7237      46.7237      46.7237 
  338000    109.79222    -10646.16   -9648.9691   -605.52081     102002.7      46.7237      46.7237      46.7237 
  339000    110.06288   -10627.503   -9627.8538   -581.90127     102002.7      46.7237      46.7237      46.7237 
  340000    113.69698    -10620.05   -9587.3939   -815.66685     102002.7      46.7237      46.7237      46.7237 
  341000    111.67127   -10629.661    -9615.404   -806.10502     102002.7      46.7237      46.7237      46.7237 
  342000     111.1508   -10623.421   -9613.8912   -857.91866     102002.7      46.7237      46.7237      46.7237 
  343000    111.51676    -10631.49   -9618.6364   -1271.2506     102002.7      46.7237      46.7237      46.7237 
  344000    112.37072   -10623.839   -9603.2289    -994.7618     102002.7      46.7237      46.7237      46.7237 
  345000    109.41269   -10636.161   -9642.4176   -1097.5462     102002.7      46.7237      46.7237      46.7237 
  346000    109.12878   -10640.422   -9649.2567    -1039.105     102002.7      46.7237      46.7237      46.7237 
  347000    109.91287   -10617.652   -9619.3649   -859.97549     102002.7      46.7237      46.7237      46.7237 
  348000    108.97788   -10591.948   -9602.1532   -1121.3366     102002.7      46.7237      46.7237      46.7237 
  349000    110.72426    -10634.81   -9629.1537   -982.37071     102002.7      46.7237      46.7237      46.7237 
  350000    111.12448   -10657.959   -9648.6678   -1135.3627     102002.7      46.7237      46.7237      46.7237 
  351000    108.86335   -10639.338   -9650.5834   -1246.7307     102002.7      46.7237      46.7237      46.7237 
  352000    109.77904   -10625.002   -9627.9307   -944.51278     102002.7      46.7237      46.7237      46.7237 
  353000    110.66966   -10649.451   -9644.2903   -1136.1793     102002.7      46.7237      46.7237      46.7237 
  354000    108.66296   -10617.251   -9630.3167   -1272.6974     102002.7      46.7237      46.7237      46.7237 
  355000    110.03593   -10660.166   -9660.7617   -801.93994     102002.7      46.7237      46.7237      46.7237 
  356000    109.92273   -10618.929   -9620.5529   -975.68674     102002.7      46.7237      46.7237      46.7237 
  357000    113.67338   -10616.607   -9584.1653   -1236.6034     102002.7      46.7237      46.7237      46.7237 
  358000    110.24123   -10607.486   -9606.2166   -1190.4994     102002.7      46.7237      46.7237      46.7237 
  359000    109.45313   -10643.659   -9649.5475   -979.14508     102002.7      46.7237      46.7237      46.7237 
  360000     109.6362   -10613.018   -9617.2445   -581.17245     102002.7      46.7237      46.7237      46.7237 
  361000    110.80208   -10607.598    -9601.235   -1008.9395     102002.7      46.7237      46.7237      46.7237 
  362000    112.82069   -10600.767   -9576.0698   -1134.4696     102002.7      46.7237      46.7237      46.7237 
  363000    109.73612   -10626.728   -9630.0466    -861.0156     102002.7      46.7237      46.7237      46.7237 
  364000    109.46579   -10606.607   -9612.3809   -1118.8079     102002.7      46.7237      46.7237      46.7237 
  365000    108.30451   -10623.469     -9639.79   -799.04737     102002.7      46.7237      46.7237      46.7237 
  366000    110.54671   -10626.472   -9622.4285   -656.00181     102002.7      46.7237      46.7237      46.7237 
  367000    109.58721   -10619.468   -9624.1394   -857.14173     102002.7      46.7237      46.7237      46.7237 
  368000    107.48425   -10618.336   -9642.1074   -1013.7155     102002.7      46.7237      46.7237      46.7237 
  369000    110.96582   -10616.784   -9608.9338   -658.65826     102002.7      46.7237      46.7237      46.7237 
  370000    104.69392   -10598.711   -9647.8252   -874.12063     102002.7      46.7237      46.7237      46.7237 
  371000    109.20486   -10616.948   -9625.0914   -1004.8753     102002.7      46.7237      46.7237      46.7237 
  372000    108.15075   -10634.558   -9652.2756   -917.68797     102002.7      46.7237      46.7237      46.7237 
  373000    110.60444   -10628.965   -9624.3971    -1187.515     102002.7      46.7237      46.7237      46.7237 
  374000    106.13906   -10608.697   -9644.6864   -902.38133     102002.7      46.7237      46.7237      46.7237 
  375000    112.46178   -10611.605   -9590.1682   -818.74244     102002.7      46.7237      46.7237      46.7237 
  376000    107.70037   -10622.033   -9643.8415   -894.88395     102002.7      46.7237      46.7237      46.7237 
  377000     107.5716   -10634.192   -9657.1701   -693.74082     102002.7      46.7237      46.7237      46.7237 
  378000    111.48747     -10628.6   -9616.0114   -726.12946     102002.7      46.7237      46.7237      46.7237 
  379000    109.78971    -10640.53   -9643.3613    -777.0933     102002.7      46.7237      46.7237      46.7237 
  380000    112.27239   -10618.627   -9598.9094   -1112.7377     102002.7      46.7237      46.7237      46.7237 
  381000    110.81121   -10627.747   -9621.3011   -728.55347     102002.7      46.7237      46.7237      46.7237 
  382000    109.78468    -10629.56   -9632.4378    -706.1212     102002.7      46.7237      46.7237      46.7237 
  383000    109.22598   -10619.164   -9627.1155    -1197.035     102002.7      46.7237      46.7237      46.7237 
  384000     109.6559   -10603.667   -9607.7139   -1172.4585     102002.7      46.7237      46.7237      46.7237 
  385000    112.16986   -10631.901   -9613.1148   -1250.0958     102002.7      46.7237      46.7237      46.7237 
  386000     110.8356    -10636.16   -9629.4927   -988.34225     102002.7      46.7237      46.7237      46.7237 
  387000    112.71266   -10636.162   -9612.4466   -1060.5269     102002.7      46.7237      46.7237      46.7237 
  388000    110.10882   -10643.835   -9643.7687   -1101.0288     102002.7      46.7237      46.7237      46.7237 
  389000    109.53685   -10629.625   -9634.7535   -923.15724     102002.7      46.7237      46.7237      46.7237 
  390000     112.1011   -10644.208   -9626.0469   -1144.8188     102002.7      46.7237      46.7237      46.7237 
  391000    111.57833   -10637.892   -9624.4789    -887.2692     102002.7      46.7237      46.7237      46.7237 
  392000    110.82711   -10643.839   -9637.2486   -656.26348     102002.7      46.7237      46.7237      46.7237 
  393000     109.9593   -10599.639   -9600.9305   -814.08725     102002.7      46.7237      46.7237      46.7237 
  394000    111.72638   -10620.214   -9605.4564    -709.3096     102002.7      46.7237      46.7237      46.7237 
  395000    109.27131   -10635.672    -9643.212     -1145.29     102002.7      46.7237      46.7237      46.7237 
  396000    110.95862   -10647.613   -9639.8283   -1134.7583     102002.7      46.7237      46.7237      46.7237 
  397000    109.05543   -10628.163   -9637.6644   -957.54061     102002.7      46.7237      46.7237      46.7237 
  398000    109.46449   -10629.878   -9635.6638   -889.18851     102002.7      46.7237      46.7237      46.7237 
  399000     112.1702   -10614.372   -9595.5833   -916.14396     102002.7      46.7237      46.7237      46.7237 
  400000    110.18716   -10641.146   -9640.3676   -852.52357     102002.7      46.7237      46.7237      46.7237 
  401000    109.98776   -10633.644   -9634.6766   -893.66752     102002.7      46.7237      46.7237      46.7237 
  402000    107.48196   -10632.462   -9656.2539   -1027.3337     102002.7      46.7237      46.7237      46.7237 
  403000    112.11916   -10607.018   -9588.6927   -715.69889     102002.7      46.7237      46.7237      46.7237 
  404000    111.18064   -10619.782   -9609.9804   -822.39552     102002.7      46.7237      46.7237      46.7237 
  405000    108.51104   -10625.311   -9639.7562   -820.01953     102002.7      46.7237      46.7237      46.7237 
  406000    106.65148   -10605.906   -9637.2405   -738.34662     102002.7      46.7237      46.7237      46.7237 
  407000    109.58896    -10645.24    -9649.895   -982.68625     102002.7      46.7237      46.7237      46.7237 
  408000    109.39938   -10621.405   -9627.7824   -884.89312     102002.7      46.7237      46.7237      46.7237 
  409000    106.78857   -10637.191   -9667.2809   -715.65846     102002.7      46.7237      46.7237      46.7237 
  410000    110.27268   -10643.218   -9641.6638   -789.95525     102002.7      46.7237      46.7237      46.7237 
  411000    108.08839   -10606.599    -9624.883   -1098.2083     102002.7      46.7237      46.7237      46.7237 
  412000    110.18439   -10630.111   -9629.3581   -783.17438     102002.7      46.7237      46.7237      46.7237 
  413000    107.83891   -10638.683   -9659.2327   -843.38502     102002.7      46.7237      46.7237      46.7237 
  414000     110.5711    -10617.46   -9613.1951    -929.1859     102002.7      46.7237      46.7237      46.7237 
  415000    108.91956   -10617.352   -9628.0866   -1123.3384     102002.7      46.7237      46.7237      46.7237 
  416000    109.33816   -10637.229   -9644.1623   -791.44754     102002.7      46.7237      46.7237      46.7237 
  417000    109.12517   -10617.386   -9626.2536   -1094.3788     102002.7      46.7237      46.7237      46.7237 
  418000    105.98214   -10632.769   -9670.1835   -804.89986     102002.7      46.7237      46.7237      46.7237 
  419000    110.19369   -10631.555    -9630.718   -1204.0384     102002.7      46.7237      46.7237      46.7237 
  420000    109.06418   -10597.213   -9606.6348   -977.89474     102002.7      46.7237      46.7237      46.7237 
  421000    108.31758   -10608.704   -9624.9063   -902.87384     102002.7      46.7237      46.7237      46.7237 
  422000     111.0849   -10627.519   -9618.5875   -1080.7254     102002.7      46.7237      46.7237      46.7237 
  423000    110.07254   -10634.574   -9634.8371   -938.97227     102002.7      46.7237      46.7237      46.7237 
  424000    110.45493   -10635.728   -9632.5179   -946.35388     102002.7      46.7237      46.7237      46.7237 
  425000    110.68396   -10611.492   -9606.2019   -1028.2309     102002.7      46.7237      46.7237      46.7237 
  426000    110.61982   -10599.678   -9594.9704   -981.45429     102002.7      46.7237      46.7237      46.7237 
  427000    110.90581   -10629.686   -9622.3809   -1250.0174     102002.7      46.7237      46.7237      46.7237 
  428000    108.20986   -10618.072   -9635.2526   -1039.1443     102002.7      46.7237      46.7237      46.7237 
  429000    109.05495   -10606.638   -9616.1433   -760.04504     102002.7      46.7237      46.7237      46.7237 
  430000    108.26741   -10622.728   -9639.3859   -1006.1894     102002.7      46.7237      46.7237      46.7237 
  431000    113.39319   -10651.736    -9621.839   -785.34413     102002.7      46.7237      46.7237      46.7237 
  432000    111.30429   -10610.452   -9599.5281   -633.31317     102002.7      46.7237      46.7237      46.7237 
  433000     110.8345   -10640.401   -9633.7431   -767.74477     102002.7      46.7237      46.7237      46.7237 
  434000    110.10533    -10634.51   -9634.4756   -925.15499     102002.7      46.7237      46.7237      46.7237 
  435000    110.44105   -10618.543   -9615.4586   -909.74498     102002.7      46.7237      46.7237      46.7237 
  436000    109.60516   -10652.027   -9656.5346   -877.20786     102002.7      46.7237      46.7237      46.7237 
  437000    110.90575   -10625.214    -9617.909   -925.07398     102002.7      46.7237      46.7237      46.7237 
  438000    107.92148   -10639.279   -9659.0791   -1188.1255     102002.7      46.7237      46.7237      46.7237 
  439000     107.5283   -10604.088   -9627.4591    -974.8718     102002.7      46.7237      46.7237      46.7237 
  440000    110.18921   -10628.849   -9628.0526   -1035.7866     102002.7      46.7237      46.7237      46.7237 
  441000    113.20187   -10607.177   -9579.0181   -947.86084     102002.7      46.7237      46.7237      46.7237 
  442000    107.94283   -10610.898   -9630.5044   -478.03641     102002.7      46.7237      46.7237      46.7237 
  443000    105.63755   -10593.609   -9634.1528   -849.87104     102002.7      46.7237      46.7237      46.7237 
  444000    106.49943    -10600.76    -9633.476   -1073.5908     102002.7      46.7237      46.7237      46.7237 
  445000    114.89539   -10620.928   -9577.3872   -988.53379     102002.7      46.7237      46.7237      46.7237 
  446000    111.44733   -10634.622    -9622.399   -1062.9104     102002.7      46.7237      46.7237      46.7237 
  447000    112.89322   -10626.472   -9601.1159   -896.81617     102002.7      46.7237      46.7237      46.7237 
  448000      109.539   -10608.313   -9613.4222   -826.89676     102002.7      46.7237      46.7237      46.7237 
  449000    109.79707   -10632.725   -9635.4896   -809.38155     102002.7      46.7237      46.7237      46.7237 
  450000    109.57695   -10612.952   -9617.7162   -647.18832     102002.7      46.7237      46.7237      46.7237 
  451000       111.31   -10623.598   -9612.6221   -962.41255     102002.7      46.7237      46.7237      46.7237 
  452000    108.68261   -10633.897   -9646.7844   -838.33456     102002.7      46.7237      46.7237      46.7237 
  453000    113.04214   -10626.606   -9599.8972   -871.43321     102002.7      46.7237      46.7237      46.7237 
  454000    110.90261   -10625.492   -9618.2161   -801.69426     102002.7      46.7237      46.7237      46.7237 
  455000    110.11773   -10637.972   -9637.8245   -776.41354     102002.7      46.7237      46.7237      46.7237 
  456000    106.79171   -10627.487   -9657.5482   -882.90433     102002.7      46.7237      46.7237      46.7237 
  457000    110.59056    -10641.09   -9636.6477   -792.88688     102002.7      46.7237      46.7237      46.7237 
  458000    106.67711   -10633.899   -9665.0015   -1034.2659     102002.7      46.7237      46.7237      46.7237 
  459000    108.99967   -10608.705   -9618.7128   -1123.1919     102002.7      46.7237      46.7237      46.7237 
  460000    106.38597   -10616.914   -9650.6601    -1035.574     102002.7      46.7237      46.7237      46.7237 
  461000    110.01907   -10606.854   -9607.6025   -829.50456     102002.7      46.7237      46.7237      46.7237 
  462000    109.83676   -10628.503   -9630.9077   -1020.6536     102002.7      46.7237      46.7237      46.7237 
  463000    110.09257   -10620.415   -9620.4963   -934.53855     102002.7      46.7237      46.7237      46.7237 
  464000    108.85366   -10626.228   -9637.5613   -948.63989     102002.7      46.7237      46.7237      46.7237 
  465000    108.97291    -10622.18   -9632.4302   -1024.7351     102002.7      46.7237      46.7237      46.7237 
  466000     112.6092    -10646.19   -9623.4134   -959.45291     102002.7      46.7237      46.7237      46.7237 
  467000    110.10551   -10642.641   -9642.6043    -931.5724     102002.7      46.7237      46.7237      46.7237 
  468000    109.15617   -10630.512   -9639.0976   -784.74695     102002.7      46.7237      46.7237      46.7237 
  469000    109.81662   -10615.791   -9618.3781   -1083.0115     102002.7      46.7237      46.7237      46.7237 
  470000    111.82408    -10617.65   -9602.0045   -1128.8826     102002.7      46.7237      46.7237      46.7237 
  471000    106.19805   -10634.085   -9669.5385   -916.04416     102002.7      46.7237      46.7237      46.7237 
  472000    109.13852   -10627.556   -9636.3027   -1155.7886     102002.7      46.7237      46.7237      46.7237 
  473000    107.07052   -10620.548   -9648.0768   -930.73322     102002.7      46.7237      46.7237      46.7237 
  474000    109.99823   -10625.895   -9626.8333   -1248.3343     102002.7      46.7237      46.7237      46.7237 
  475000    108.90664   -10636.043    -9646.895   -1086.1396     102002.7      46.7237      46.7237      46.7237 
  476000    110.34647   -10606.907   -9604.6825   -1095.9137     102002.7      46.7237      46.7237      46.7237 
  477000    107.97153   -10635.037   -9654.3828   -1145.4979     102002.7      46.7237      46.7237      46.7237 
  478000    107.88197   -10628.124   -9648.2827   -757.47226     102002.7      46.7237      46.7237      46.7237 
  479000    109.73505    -10624.14   -9627.4687   -639.62245     102002.7      46.7237      46.7237      46.7237 
  480000    109.88763   -10616.971   -9618.9131   -1010.2228     102002.7      46.7237      46.7237      46.7237 
  481000     113.3273   -10613.762   -9584.4632   -601.57561     102002.7      46.7237      46.7237      46.7237 
  482000    108.29958   -10629.453   -9645.8185   -869.35763     102002.7      46.7237      46.7237      46.7237 
  483000    109.04638    -10626.56   -9636.1431   -822.10391     102002.7      46.7237      46.7237      46.7237 
  484000    108.58522   -10639.488   -9653.2595   -997.70333     102002.7      46.7237      46.7237      46.7237 
  485000    109.22833   -10616.107   -9624.0376   -945.58959     102002.7      46.7237      46.7237      46.7237 
  486000    107.56889   -10640.491   -9663.4939   -733.61017     102002.7      46.7237      46.7237      46.7237 
  487000    109.09126    -10621.89   -9631.0652   -816.29223     102002.7      46.7237      46.7237      46.7237 
  488000     106.2634   -10622.845   -9657.7048    -811.9508     102002.7      46.7237      46.7237      46.7237 
  489000    108.86332   -10626.018   -9637.2636   -820.18817     102002.7      46.7237      46.7237      46.7237 
  490000    112.14632   -10630.436   -9611.8637   -794.06486     102002.7      46.7237      46.7237      46.7237 
  491000    108.89895    -10621.34   -9632.2619   -640.05186     102002.7      46.7237      46.7237      46.7237 
  492000    108.89204   -10652.452   -9663.4372   -852.76717     102002.7      46.7237      46.7237      46.7237 
  493000    107.08153   -10628.545   -9655.9738   -603.52035     102002.7      46.7237      46.7237      46.7237 
  494000    109.75009   -10630.944   -9634.1356   -872.38494     102002.7      46.7237      46.7237      46.7237 
  495000    111.27452   -10642.204     -9631.55    -915.5287     102002.7      46.7237      46.7237      46.7237 
  496000    110.90417   -10598.281   -9590.9909   -664.80944     102002.7      46.7237      46.7237      46.7237 
  497000    108.89258   -10611.896   -9622.8759   -927.49055     102002.7      46.7237      46.7237      46.7237 
  498000    108.85363   -10644.954   -9656.2875   -1082.0584     102002.7      46.7237      46.7237      46.7237 
  499000    110.71288   -10618.699   -9613.1466    -969.3465     102002.7      46.7237      46.7237      46.7237 
  500000    110.99991   -10610.068   -9601.9081   -918.00443     102002.7      46.7237      46.7237      46.7237 
  500500    109.81845    -10612.72   -9615.2913   -791.82892     102002.7      46.7237      46.7237      46.7237 
Loop time of 887.901 on 24 procs for 500000 steps with 3048 atoms

Performance: 48.654 ns/day, 0.493 hours/ns, 563.126 timesteps/s
98.0% CPU use with 24 MPI tasks x no OpenMP threads

MPI task timing breakdown:
Section |  min time  |  avg time  |  max time  |%varavg| %total
---------------------------------------------------------------
Pair    | 273.65     | 442.17     | 637.01     | 530.6 | 49.80
Bond    | 48.852     | 78.543     | 120.88     | 244.5 |  8.85
Neigh   | 7.5357     | 7.5644     | 7.5848     |   0.5 |  0.85
Comm    | 108.89     | 344.33     | 540.3      | 703.8 | 38.78
Output  | 0.48647    | 0.48691    | 0.49171    |   0.1 |  0.05
Modify  | 4.2634     | 5.0612     | 5.7019     |  22.0 |  0.57
Other   |            | 9.751      |            |       |  1.10

Nlocal:    127 ave 168 max 86 min
Histogram: 3 3 0 1 5 3 3 2 1 3
Nghost:    3421.46 ave 3527 max 3346 min
Histogram: 2 6 4 1 3 0 1 2 3 2
Neighs:    7630.25 ave 14092 max 1845 min
Histogram: 1 6 2 3 2 1 2 2 1 4

Total # of neighbors = 183126
Ave neighs/atom = 60.0807
Ave special neighs/atom = 3.77953
Neighbor list builds = 4748
Dangerous builds = 0
Neighbor list info ...
  update every 1 steps, delay 10 steps, check yes
  max neighbors/atom: 2000, page size: 100000
  master list distance cutoff = 16
  ghost atom cutoff = 16
  binsize = 8, bins = 6 6 6
  3 neighbor lists, perpetual/occasional/extra = 3 0 0
  (1) pair buck6d/coul/gauss/dsf, perpetual, skip from (3)
      attributes: half, newton on
      pair build: skip
      stencil: none
      bin: none
  (2) pair lj/cut, perpetual, skip from (3)
      attributes: half, newton on
      pair build: skip
      stencil: none
      bin: none
  (3) neighbor class addition, perpetual
      attributes: half, newton on
      pair build: half/bin/newton
      stencil: half/bin/3d/newton
      bin: standard
Setting up Verlet run ...
  Unit style    : real
  Current step  : 500500
  Time step     : 1
WARNING: Inconsistent image flags (../domain.cpp:786)
Per MPI rank memory allocation (min/avg/max) = 24.21 | 24.57 | 24.66 Mbytes
Step Time TotEng KinEng PotEng E_mol E_pair Temp Pxx Pyy Pzz Pxy Pxz Pyz Cella Cellb Cellc CellAlpha CellBeta CellGamma Volume Press 
  500500       500000   -9615.2913    997.42914    -10612.72    4293.6219   -14906.342    109.81845   -1002.1482   -720.08144   -653.25714   -87.076971    299.31313    35.342506      46.7237      46.7237      46.7237           90           90           90     102002.7   -791.82892 
  501000       500500   -9674.1537    980.91724   -10655.071    4269.9953   -14925.066    108.00046   -138.35593   -535.70886   -896.80307   -34.323756    -2.597405   -34.902963      46.7237      46.7237      46.7237           90           90           90     102002.7   -523.62262 
  502000       501500   -9642.3405    997.67274   -10640.013    4289.7535   -14929.767    109.84527   -964.05577     -930.543   -385.48957    -16.60643   -15.381402    324.21933      46.7237      46.7237      46.7237           90           90           90     102002.7   -760.02944 
  503000       502500    -9650.008    985.46331   -10635.471    4298.6198   -14934.091    108.50099   -911.17452   -819.07696    -1004.167   -64.103999   -252.86958   -28.336408      46.7237      46.7237      46.7237           90           90           90     102002.7   -911.47283 
  504000       503500   -9604.1809    998.37009   -10602.551    4314.2862   -14916.837    109.92205   -840.24059   -713.25201    -513.5176    142.95424   -133.70879   -93.231983      46.7237      46.7237      46.7237           90           90           90     102002.7    -689.0034 
  505000       504500   -9649.5483    986.36701   -10635.915    4288.5578   -14924.473    108.60049   -898.44641   -842.82339   -917.27079    227.30985   -245.21052   -169.45164      46.7237      46.7237      46.7237           90           90           90     102002.7    -886.1802 
  506000       505500   -9660.5968    977.90277     -10638.5    4290.4631   -14928.963    107.66856   -794.40483   -413.46826   -839.54949    93.598447    256.65888    337.47112      46.7237      46.7237      46.7237           90           90           90     102002.7   -682.47419 
  507000       506500   -9614.6624    1014.8937   -10629.556    4305.5292   -14935.085    111.74132   -646.95041   -716.62656   -859.93455   -128.48754   -313.64993    30.088086      46.7237      46.7237      46.7237           90           90           90     102002.7   -741.17051 
  508000       507500   -9612.1124    1005.6481   -10617.761      4299.36    -14917.12    110.72336   -1071.0418    -1033.105   -752.33738    143.54214    57.206939    52.549281      46.7237      46.7237      46.7237           90           90           90     102002.7   -952.16141 
  509000       508500   -9602.5502    1028.3381   -10630.888    4315.6525   -14946.541    113.22157   -1048.5533   -506.12267   -862.93486    184.82913    59.983641    15.807853      46.7237      46.7237      46.7237           90           90           90     102002.7   -805.87027 
  510000       509500   -9607.3837    1011.0446   -10618.428    4307.4122    -14925.84    111.31753   -614.39724   -1067.5251    -826.4397   -121.46865   -123.94649    80.022909      46.7237      46.7237      46.7237           90           90           90     102002.7   -836.12069 
  511000       510500   -9639.1893    993.55631   -10632.746    4304.4488   -14937.194    109.39204   -622.74077   -797.83335   -1262.7123     -138.091   -179.49782   -124.89541      46.7237      46.7237      46.7237           90           90           90     102002.7   -894.42881 
  512000       511500   -9629.8307    999.11203   -10628.943    4297.7029   -14926.646    110.00374   -1004.0143   -1066.1608    -536.9473    23.495906   -153.99124    211.88486      46.7237      46.7237      46.7237           90           90           90     102002.7    -869.0408 
  513000       512500   -9658.9783    991.26441   -10650.243     4274.535   -14924.778     109.1397   -1325.5871   -1054.1459   -1449.5053    88.974108   -138.21897    175.87057      46.7237      46.7237      46.7237           90           90           90     102002.7   -1276.4128 
  514000       513500   -9602.2444     1003.232   -10605.476    4325.9227   -14931.399    110.45735    -1129.614   -646.61629   -1346.7327   -253.85155   -130.37626    38.948952      46.7237      46.7237      46.7237           90           90           90     102002.7   -1040.9877 
  515000       514500   -9621.4651    997.31078   -10618.776    4301.9057   -14920.682    109.80541   -1270.2728   -939.16906   -1380.6958    1.4037679    23.280413     139.8439      46.7237      46.7237      46.7237           90           90           90     102002.7   -1196.7125 
  516000       515500   -9638.9333    997.77682    -10636.71    4299.0246   -14935.735    109.85673   -1078.7974   -1203.1852   -1097.6408    214.18425    118.92716    68.700918      46.7237      46.7237      46.7237           90           90           90     102002.7   -1126.5411 
  517000       516500    -9655.986    987.40569   -10643.392    4297.6449   -14941.037    108.71485   -848.43899   -1141.8949   -1369.4596    287.30795    43.581896    -47.04451      46.7237      46.7237      46.7237           90           90           90     102002.7   -1119.9312 
  518000       517500   -9630.8637    1006.7751   -10637.639    4286.6145   -14924.253    110.84745   -910.32953   -1105.9201   -1168.7126    136.64379   -21.204207    150.06834      46.7237      46.7237      46.7237           90           90           90     102002.7   -1061.6541 
  519000       518500   -9601.3517    1010.2153   -10611.567    4298.2697   -14909.837    111.22622   -1026.7124   -695.82482   -829.07618   -184.55092   -195.92147    77.281724      46.7237      46.7237      46.7237           90           90           90     102002.7   -850.53781 
  520000       519500    -9630.746     993.5791   -10624.325     4291.425    -14915.75    109.39455   -728.13671    -872.4969   -891.49692   -115.33101   -313.82182   -83.500161      46.7237      46.7237      46.7237           90           90           90     102002.7   -830.71017 
  521000       520500   -9653.9476    977.31234    -10631.26    4321.3783   -14952.638    107.60356   -1017.2122   -450.57793   -1020.6186    18.496855   -229.30317    46.224998      46.7237      46.7237      46.7237           90           90           90     102002.7   -829.46961 
  522000       521500   -9647.7312    971.76621   -10619.497    4300.5954   -14920.093    106.99292    -671.7902   -511.09383   -1184.5987   -8.3693708   -140.01636    92.144309      46.7237      46.7237      46.7237           90           90           90     102002.7   -789.16091 
  523000       522500   -9665.6495    970.76528   -10636.415    4303.8543   -14940.269    106.88272   -866.52923   -681.90522   -720.06785    50.967852   -49.761099   -1.4892886      46.7237      46.7237      46.7237           90           90           90     102002.7   -756.16743 
  524000       523500   -9624.2887    1009.9494   -10634.238    4306.4971   -14940.735    111.19694   -894.18186   -1142.9381   -995.54726    65.870422   0.42459489    10.005003      46.7237      46.7237      46.7237           90           90           90     102002.7   -1010.8891 
  525000       524500   -9605.3111    1029.4848   -10634.796     4287.562   -14922.358    113.34782   -1183.0093   -605.40943   -887.47411    228.29659    65.347523    182.99125      46.7237      46.7237      46.7237           90           90           90     102002.7   -891.96427 
  526000       525500   -9640.4277    983.67354   -10624.101    4314.4197   -14938.521    108.30393   -876.18404   -1095.2297   -1107.5515    175.64981   -67.810958   -396.74865      46.7237      46.7237      46.7237           90           90           90     102002.7   -1026.3217 
  527000       526500     -9659.25     974.9578   -10634.208    4295.1988   -14929.407    107.34432   -925.21156   -1314.3089   -1003.5013   -167.29849    248.11453     147.6001      46.7237      46.7237      46.7237           90           90           90     102002.7   -1081.0073 
  528000       527500    -9631.361    980.60781   -10611.969    4307.6329   -14919.602    107.96639   -929.68273    -659.5177    -1079.095   -80.317904    104.76153   -108.43892      46.7237      46.7237      46.7237           90           90           90     102002.7   -889.43181 
  529000       528500   -9658.0695     986.1117   -10644.181    4296.6476   -14940.829    108.57238   -657.49003   -1218.9722    -1511.779   -185.27598   -83.906517    159.47514      46.7237      46.7237      46.7237           90           90           90     102002.7   -1129.4137 
  530000       529500   -9619.5352    1011.8125   -10631.348    4294.6976   -14926.045    111.40208   -595.62943   -720.89132   -1541.8818    83.358337   -27.253922   -59.796138      46.7237      46.7237      46.7237           90           90           90     102002.7   -952.80086 
  531000       530500   -9608.4705    1018.4122   -10626.883    4302.4316   -14929.314    112.12871    -655.1396   -564.41411   -1519.6001    156.40283   -37.884703   -32.070337      46.7237      46.7237      46.7237           90           90           90     102002.7   -913.05127 
  532000       531500   -9624.1405    1015.2484   -10639.389    4309.5375   -14948.926    111.78037   -999.51855   -756.20213   -1255.4753    62.418719    240.93393   -180.69504      46.7237      46.7237      46.7237           90           90           90     102002.7    -1003.732 
  533000       532500   -9587.9829     1030.475   -10618.458    4319.1477   -14937.606    113.45685   -955.71709    -1049.766   -1283.1532    18.249933     84.28329    107.69462      46.7237      46.7237      46.7237           90           90           90     102002.7   -1096.2121 
  534000       533500   -9631.4552    999.55071   -10631.006    4297.9189   -14928.925    110.05203   -882.39665   -1063.3437   -1650.9386   -4.4670353    -34.97967   -217.54494      46.7237      46.7237      46.7237           90           90           90     102002.7    -1198.893 
  535000       534500   -9653.1463    979.79451   -10632.941    4290.3237   -14923.264    107.87685   -1095.8218     -1187.59    -909.5783   -158.69869    115.23446   -373.65979      46.7237      46.7237      46.7237           90           90           90     102002.7     -1064.33 
  536000       535500   -9638.0278    992.37243     -10630.4    4297.5556   -14927.956    109.26169   -1077.0694   -923.42321    -1182.593    219.14916    266.76737   -4.4753141      46.7237      46.7237      46.7237           90           90           90     102002.7   -1061.0285 
  537000       536500   -9630.5905    983.75539   -10614.346    4288.2665   -14902.612    108.31295    -1079.988   -948.45111   -1484.2711    203.21698    34.507876    81.098659      46.7237      46.7237      46.7237           90           90           90     102002.7   -1170.9034 
  538000       537500   -9651.0489    996.76777   -10647.817    4288.9592   -14936.776    109.74563   -1036.9348   -919.23161   -1328.4521   -111.88702    90.874843     19.84146      46.7237      46.7237      46.7237           90           90           90     102002.7   -1094.8728 
  539000       538500   -9636.5939    999.55368   -10636.148    4300.8152   -14936.963    110.05236    -1321.982   -1557.2389   -693.07376   -127.30801   -39.897441   -116.82459      46.7237      46.7237      46.7237           90           90           90     102002.7   -1190.7649 
  540000       539500   -9575.5766    1024.9167   -10600.493    4308.2799   -14908.773    112.84486   -1258.5471   -1215.6559   -1249.2101    143.35279    122.04391    30.016812      46.7237      46.7237      46.7237           90           90           90     102002.7   -1241.1377 
  541000       540500     -9593.08     1017.094   -10610.174    4312.8728   -14923.047    111.98357   -969.98417   -862.14391    -1105.389    446.70052   -131.14906   -151.04192      46.7237      46.7237      46.7237           90           90           90     102002.7   -979.17235 
  542000       541500   -9627.2031    974.00882   -10601.212    4327.6954   -14928.907    107.23983   -1171.4024   -679.78369   -1080.6065   -151.85263   -279.94147   -93.925099      46.7237      46.7237      46.7237           90           90           90     102002.7   -977.26421 
  543000       542500   -9658.2645    987.26907   -10645.534    4304.8775   -14950.411    108.69981   -1237.4152   -1049.2761   -1117.4611    38.070907   -27.580692    211.86339      46.7237      46.7237      46.7237           90           90           90     102002.7   -1134.7175 
  544000       543500   -9644.0022    983.09798     -10627.1    4289.9744   -14917.075    108.24056    -889.4984    -621.9984   -1373.2952   -48.886633    100.75225   -19.249675      46.7237      46.7237      46.7237           90           90           90     102002.7   -961.59733 
  545000       544500   -9623.7131    1009.5834   -10633.296    4294.6891   -14927.986    111.15665   -750.82807   -671.31086   -987.85313   -142.99924    61.245544   -98.214443      46.7237      46.7237      46.7237           90           90           90     102002.7   -803.33068 
  546000       545500   -9635.5864    997.76241   -10633.349    4304.2038   -14937.553    109.85514   -857.44889    -904.7863   -1253.0364   -90.382226  -0.87892127    39.732645      46.7237      46.7237      46.7237           90           90           90     102002.7   -1005.0905 
  547000       546500   -9601.2672    1002.2686   -10603.536    4322.5683   -14926.104    110.35128   -933.14664   -678.01237    -957.5466   -195.12365    -151.7248    110.09877      46.7237      46.7237      46.7237           90           90           90     102002.7    -856.2352 
  548000       547500   -9648.6224    1000.1462   -10648.769     4278.939   -14927.708     110.1176   -668.38393   -930.21288    -1272.422   -17.582067   -137.19358   -4.1640791      46.7237      46.7237      46.7237           90           90           90     102002.7   -957.00628 
  549000       548500   -9639.8842    976.50938   -10616.394     4304.203   -14920.597    107.51515   -1047.5954   -756.24035   -1406.6814    88.654217    69.789031    432.30177      46.7237      46.7237      46.7237           90           90           90     102002.7   -1070.1724 
  550000       549500   -9633.5814    992.75479   -10626.336    4298.2629   -14924.599    109.30379   -1127.4836   -1388.3288   -790.48565   -118.87632    26.548555    12.602437      46.7237      46.7237      46.7237           90           90           90     102002.7   -1102.0994 
  551000       550500   -9661.0233    985.39915   -10646.422    4272.7674    -14919.19    108.49393   -1457.1489   -662.67037   -1118.9811     68.18849   -171.46646    67.921717      46.7237      46.7237      46.7237           90           90           90     102002.7   -1079.6001 
  552000       551500   -9641.4911    991.00317   -10632.494    4300.6159    -14933.11    109.11094   -1253.9388   -964.27667   -959.83409    -79.36457    178.34905   -56.659963      46.7237      46.7237      46.7237           90           90           90     102002.7   -1059.3499 
  553000       552500   -9644.9668    1013.7245   -10658.691    4291.2227   -14949.914    111.61259   -980.57579   -876.08593   -1428.1612    220.91128   -215.08905     67.97784      46.7237      46.7237      46.7237           90           90           90     102002.7    -1094.941 
  554000       553500   -9613.1675    1007.3567   -10620.524     4307.579   -14928.103    110.91149   -727.20772   -1342.9449   -921.12488   -179.96753     38.85801    222.48247      46.7237      46.7237      46.7237           90           90           90     102002.7    -997.0925 
  555000       554500   -9625.7877     1001.797   -10627.585    4287.0499   -14914.635    110.29935   -893.21571   -775.96376   -1220.0693    -41.64361    188.84719   -151.14216      46.7237      46.7237      46.7237           90           90           90     102002.7   -963.08292 
[...]
  936000       935500   -9662.1736    952.08669    -10614.26    4299.1518   -14913.412    104.82617    -782.1156   -1052.5945   -689.95581    -52.95349     216.3892   -147.99746      46.7237      46.7237      46.7237           90           90           90     102002.7    -841.5553 
  937000       936500   -9638.1829    996.92891   -10635.112    4295.9558   -14931.068    109.76337   -867.22228   -1095.3583   -1328.9434   -62.501661   -87.965503    85.374998      46.7237      46.7237      46.7237           90           90           90     102002.7   -1097.1747 
  938000       937500   -9632.0976    988.31883   -10620.416    4309.6647   -14930.081    108.81539   -186.16226    -1250.036    -1124.478    150.74278     253.7853   -126.51901      46.7237      46.7237      46.7237           90           90           90     102002.7   -853.55875 
  939000       938500   -9599.1765     1008.861   -10608.037    4328.5205   -14936.558    111.07711   -985.43848   -624.16604   -1143.5067    112.20557    131.77458    195.32569      46.7237      46.7237      46.7237           90           90           90     102002.7   -917.70374 
  940000       939500   -9633.1793    992.94876   -10626.128    4291.0239   -14917.152    109.32515   -1458.3441   -1450.3505   -747.86022   -91.508869   -144.05359   -54.642061      46.7237      46.7237      46.7237           90           90           90     102002.7   -1218.8516 
  941000       940500   -9615.2183    1010.0873   -10625.306    4305.8381   -14931.144    111.21213   -1073.0024   -1122.7877   -782.21536    176.55189   -46.771423   -72.138871      46.7237      46.7237      46.7237           90           90           90     102002.7   -992.66849 
  942000       941500   -9587.1754    1005.4462   -10592.622    4326.0905   -14918.712    110.70114   -496.05447   -519.94361    -1067.227   -102.07867   -97.341557    3.3642074      46.7237      46.7237      46.7237           90           90           90     102002.7   -694.40835 
  943000       942500   -9630.3124    988.40212   -10618.715    4306.8089   -14925.523    108.82456   -919.44914   -1351.6471   -1309.8876    90.650284    320.04334   -29.965044      46.7237      46.7237      46.7237           90           90           90     102002.7   -1193.6613 
  944000       943500   -9637.9589    987.88981   -10625.849    4296.6427   -14922.491    108.76815   -1189.9852   -529.57657    -511.4958    189.46066    9.7170813    89.178164      46.7237      46.7237      46.7237           90           90           90     102002.7   -743.68584 
  945000       944500   -9595.8845     1003.635    -10599.52     4310.016   -14909.536    110.50172   -1183.9374   -892.58836   -1069.6617    180.92078    90.039345    143.57922      46.7237      46.7237      46.7237           90           90           90     102002.7   -1048.7291 
  946000       945500   -9655.7233    1007.9778   -10663.701    4272.2173   -14935.918    110.97987   -1185.3939   -887.06428   -1229.5789    42.170821   -65.733111   -245.50448      46.7237      46.7237      46.7237           90           90           90     102002.7    -1100.679 
  947000       946500   -9642.5843    988.87943   -10631.464    4317.6015   -14949.065    108.87711   -1242.4047    -1010.523   -749.81193    140.25541     136.4806     80.77129      46.7237      46.7237      46.7237           90           90           90     102002.7   -1000.9132 
  948000       947500   -9618.2771    987.53193   -10605.809    4327.1018   -14932.911    108.72875   -1369.7747   -1028.9951   -1395.7367    252.67183   -71.963218   -171.73701      46.7237      46.7237      46.7237           90           90           90     102002.7   -1264.8355 
  949000       948500   -9594.8183    1017.0735   -10611.892     4301.491   -14913.383    111.98132   -908.41654   -1003.5026   -721.18972   -388.14008    106.36135   -153.10683      46.7237      46.7237      46.7237           90           90           90     102002.7   -877.70294 
  950000       949500   -9654.9003    975.38498   -10630.285      4305.89   -14936.175    107.39135   -777.72073   -852.71039   -1456.1925   -26.148266    9.5261009    174.47515      46.7237      46.7237      46.7237           90           90           90     102002.7   -1028.8745 
  951000       950500   -9622.9355    995.83863   -10618.774    4314.9737   -14933.748    109.64333   -1019.9619   -1178.9768   -1495.2581   -226.79063    257.40253    49.541018      46.7237      46.7237      46.7237           90           90           90     102002.7   -1231.3989 
  952000       951500   -9641.2156    993.28274   -10634.498    4297.8167   -14932.315    109.36192   -598.06978   -610.89043   -1185.0596   -147.02708    74.593544    46.982812      46.7237      46.7237      46.7237           90           90           90     102002.7   -798.00659 
  953000       952500   -9623.9163     1002.652   -10626.568    4298.6275   -14925.196     110.3935   -929.56316   -1350.8165   -372.89817    -140.7101     42.61695   -9.6401009      46.7237      46.7237      46.7237           90           90           90     102002.7   -884.42593 
  954000       953500   -9603.1082    1023.8007   -10626.909    4306.8374   -14933.746    112.72199   -984.93193   -841.99599   -1077.3485   -29.270185    135.65385   -292.06129      46.7237      46.7237      46.7237           90           90           90     102002.7   -968.09215 
  955000       954500    -9636.352    1000.3634   -10636.715    4309.4289   -14946.144    110.14151   -734.16889   -583.22452   -863.24027   -146.41064    71.067268     150.5917      46.7237      46.7237      46.7237           90           90           90     102002.7   -726.87789 
  956000       955500   -9649.1814    989.60417   -10638.786    4306.7672   -14945.553    108.95691   -982.02579   -451.43952   -1083.4486   -18.143479   -6.4396317     69.61531      46.7237      46.7237      46.7237           90           90           90     102002.7    -838.9713 
  957000       956500   -9615.1491    1015.3506     -10630.5    4288.6869   -14919.187    111.79162   -1054.0452   -893.54311   -879.63153    3.6039055   -63.023777    63.355707      46.7237      46.7237      46.7237           90           90           90     102002.7   -942.40661 
  958000       957500   -9622.7525     1011.476   -10634.228    4292.5371   -14926.766    111.36502   -745.04154   -929.40848   -656.59121     -68.6356   -140.50723    229.71563      46.7237      46.7237      46.7237           90           90           90     102002.7   -777.01374 
  959000       958500   -9635.0781    994.61739   -10629.695    4299.3591   -14929.055    109.50887   -1167.9306   -1118.3157   -1072.0384    239.20136   -196.78452   -110.30707      46.7237      46.7237      46.7237           90           90           90     102002.7   -1119.4282 
  960000       959500    -9635.954    979.98483   -10615.939    4303.0934   -14919.032     107.8978    -937.3321   -784.62445   -1039.4235   -18.570849   -225.78223    218.32661      46.7237      46.7237      46.7237           90           90           90     102002.7   -920.46003 
  961000       960500   -9644.8202    1003.0616   -10647.882    4297.2661   -14945.148    110.43859   -1109.2468   -527.63301   -845.43825   -98.087124   -127.20251   -12.979192      46.7237      46.7237      46.7237           90           90           90     102002.7   -827.43936 
  962000       961500   -9586.7388    1015.3904   -10602.129    4334.6144   -14936.744    111.79601   -1090.4402   -1684.5257   -923.06448    155.64524   -356.83024     -27.1231      46.7237      46.7237      46.7237           90           90           90     102002.7   -1232.6768 
  963000       962500   -9639.7321    1000.6431   -10640.375    4305.2013   -14945.576    110.17231   -673.04477   -949.58603   -1480.8647    61.040803   -128.21913    190.30267      46.7237      46.7237      46.7237           90           90           90     102002.7   -1034.4985 
  964000       963500   -9621.8701    1008.4109   -10630.281    4305.9209   -14936.202    111.02755   -1223.8844   -1308.5043   -1226.9918    123.61051   -214.11575    124.30586      46.7237      46.7237      46.7237           90           90           90     102002.7   -1253.1268 
  965000       964500   -9616.1526    1004.7397   -10620.892    4319.7582   -14940.651    110.62335   -1148.9185   -946.35594   -1594.7872   -149.84598   -130.34867   -63.481009      46.7237      46.7237      46.7237           90           90           90     102002.7   -1230.0206 
  966000       965500   -9637.6459    992.79708   -10630.443    4299.9853   -14930.428    109.30845   -692.31695   -1236.6474   -939.23782    80.066815    67.795492    32.310283      46.7237      46.7237      46.7237           90           90           90     102002.7    -956.0674 
  967000       966500   -9651.6167    983.87685   -10635.494    4291.0593   -14926.553    108.32632   -943.19734   -1170.9747   -1218.6935   -134.59284   -359.18804    116.12878      46.7237      46.7237      46.7237           90           90           90     102002.7   -1110.9552 
  968000       967500   -9563.0855     1003.045    -10566.13    4339.9832   -14906.114    110.43676    -615.1577   -735.53298   -709.51098    142.16256    53.904043    91.983397      46.7237      46.7237      46.7237           90           90           90     102002.7   -686.73388 
  969000       968500    -9629.868    1012.1041   -10641.972    4302.7181    -14944.69    111.43418   -944.04167   -1353.9989   -1341.6901   -196.08136   -53.383305    74.068681      46.7237      46.7237      46.7237           90           90           90     102002.7   -1213.2436 
  970000       969500   -9609.3862    1008.5146   -10617.901    4304.1733   -14922.074    111.03897   -1578.8395   -1229.5654   -813.60533   -192.54019   -88.169942    106.54299      46.7237      46.7237      46.7237           90           90           90     102002.7   -1207.3367 
  971000       970500   -9641.9643    977.72293   -10619.687    4315.7492   -14935.436    107.64876   -359.07923   -872.94174   -1467.7734    68.163551    40.054531    45.890597      46.7237      46.7237      46.7237           90           90           90     102002.7   -899.93147 
  972000       971500   -9666.6298    962.25612   -10628.886    4301.5128   -14930.399    105.94584   -716.31159   -544.59321   -1679.7437   -217.69985   -110.44649    152.39291      46.7237      46.7237      46.7237           90           90           90     102002.7   -980.21616 
  973000       972500    -9598.177    1021.8807   -10620.058     4305.801   -14925.859     112.5106   -903.06338   -667.39516   -981.66922    -20.21504   -43.982009    4.1358575      46.7237      46.7237      46.7237           90           90           90     102002.7   -850.70925 
  974000       973500   -9635.7279    1005.4704   -10641.198      4292.51   -14933.708     110.7038   -828.92431   -1073.5744   -744.07944   -201.43756    49.404192      159.694      46.7237      46.7237      46.7237           90           90           90     102002.7   -882.19273 
  975000       974500   -9643.4555    987.74856   -10631.204    4290.7055   -14921.909     108.7526   -1082.9198   -857.14544   -794.06936    189.22838     472.1291    199.44473      46.7237      46.7237      46.7237           90           90           90     102002.7   -911.37821 
  976000       975500   -9616.4864     1032.552   -10649.038    4299.2199   -14948.258    113.68553   -782.38277   -1415.6034   -1128.0407   -267.54231   -13.157877    30.770707      46.7237      46.7237      46.7237           90           90           90     102002.7   -1108.6756 
  977000       976500   -9650.9607    1002.2866   -10653.247    4293.3064   -14946.554    110.35326   -1313.6644   -1506.5596   -1234.3553   -12.682311    59.026624   -218.76627      46.7237      46.7237      46.7237           90           90           90     102002.7   -1351.5264 
  978000       977500   -9615.9552    995.37577   -10611.331    4328.3737   -14939.705    109.59237   -971.15207   -1145.6138   -1007.5208   -164.64047    224.70834    3.1441033      46.7237      46.7237      46.7237           90           90           90     102002.7   -1041.4289 
  979000       978500   -9646.1399    984.62399   -10630.764    4301.6404   -14932.404    108.40858   -673.48265   -920.20491   -994.18738    262.67912    202.22444    60.290614      46.7237      46.7237      46.7237           90           90           90     102002.7   -862.62498 
  980000       979500   -9647.9322    981.80052   -10629.733    4294.3063   -14924.039    108.09771   -1284.3163   -1062.9779   -1354.4837   -107.22087   -200.98111   -135.02386      46.7237      46.7237      46.7237           90           90           90     102002.7   -1233.9259 
  981000       980500   -9617.1241    1025.9117   -10643.036    4292.9006   -14935.936    112.95442   -991.39722   -1056.4985   -915.49376   -28.819191   -47.670057   -202.55661      46.7237      46.7237      46.7237           90           90           90     102002.7    -987.7965 
  982000       981500   -9600.7666    1031.0537    -10631.82    4310.4782   -14942.298    113.52056   -1031.4025   -724.88706   -693.88424   -104.57965    89.719624   -5.9978706      46.7237      46.7237      46.7237           90           90           90     102002.7   -816.72461 
  983000       982500   -9629.1715    1002.4574   -10631.629    4298.7481   -14930.377    110.37206   -1038.1352   -1010.8678   -846.75793      9.44398    73.256412    9.7589016      46.7237      46.7237      46.7237           90           90           90     102002.7   -965.25365 
  984000       983500   -9606.4203    1016.6472   -10623.067    4287.0287   -14910.096    111.93438   -826.82191   -607.64004   -1243.8535   -250.16054   -209.79634     2.132529      46.7237      46.7237      46.7237           90           90           90     102002.7   -892.77181 
  985000       984500   -9635.1495    988.32561   -10623.475    4272.6667   -14896.142    108.81613   -1015.7191    -711.5248   -723.62666     328.7124   -41.703101     183.2349      46.7237      46.7237      46.7237           90           90           90     102002.7   -816.95684 
  986000       985500   -9628.7923    978.28619   -10607.078    4307.3455   -14914.424    107.71078   -745.15532   -841.34702    -489.2816    312.66628   -2.9306625    30.970399      46.7237      46.7237      46.7237           90           90           90     102002.7   -691.92798 
  987000       986500    -9658.315    967.05953   -10625.375    4267.9299   -14893.304    106.47471   -819.27765   -816.33711   -1230.0316    157.13247   -345.78655   -139.78122      46.7237      46.7237      46.7237           90           90           90     102002.7   -955.21544 
  988000       987500   -9654.7871    987.92878   -10642.716    4271.5963   -14914.312    108.77244   -1159.9782     -979.385   -973.71352   -95.582819   -150.04106   -45.310885      46.7237      46.7237      46.7237           90           90           90     102002.7   -1037.6922 
  989000       988500   -9604.4487    1015.9078   -10620.356    4292.0785   -14912.435    111.85297   -612.14881   -761.21835   -965.52177    160.69463   -36.701426    128.51805      46.7237      46.7237      46.7237           90           90           90     102002.7   -779.62964 
  990000       989500   -9618.1538     1003.433   -10621.587    4312.6785   -14934.265    110.47948     -648.238   -1243.0376   -1182.1068   -24.877448   -124.76809    79.603719      46.7237      46.7237      46.7237           90           90           90     102002.7   -1024.4608 
  991000       990500   -9627.7604    1004.4914   -10632.252    4296.9021   -14929.154    110.59601   -859.05811   -938.76646   -951.92064    276.83791   -44.836041    70.391812      46.7237      46.7237      46.7237           90           90           90     102002.7   -916.58174 
  992000       991500   -9646.8109    990.31729   -10637.128     4278.263   -14915.391    109.03542   -949.18015   -843.97203   -514.85233    157.58762    168.88574    130.23174      46.7237      46.7237      46.7237           90           90           90     102002.7   -769.33484 
  993000       992500   -9633.6776    997.57475   -10631.252    4291.9689   -14923.221    109.83448   -826.52846   -1243.9048   -1260.5197   -214.27158    397.61561    -9.728975      46.7237      46.7237      46.7237           90           90           90     102002.7   -1110.3176 
  994000       993500   -9634.5031    986.88368   -10621.387    4314.0573   -14935.444    108.65738   -532.15967   -766.00958    -566.2381   -26.420931   -33.992264   -42.963111      46.7237      46.7237      46.7237           90           90           90     102002.7   -621.46912 
  995000       994500   -9602.2438    1021.2912   -10623.535    4309.8041   -14933.339    112.44569   -958.25758   -1047.9472   -778.10344   -60.076503    46.935757    49.710488      46.7237      46.7237      46.7237           90           90           90     102002.7   -928.10275 
  996000       995500   -9651.0927    979.01214   -10630.105    4305.1419   -14935.247    107.79071    -970.9943   -759.99426   -1009.2059    116.49813    34.514928   -55.694774      46.7237      46.7237      46.7237           90           90           90     102002.7   -913.39814 
  997000       996500   -9619.0908    1017.1279   -10636.219    4294.9464   -14931.165    111.98731   -1409.2431   -1206.3555   -604.55006   -86.066438     105.5295   -262.53188      46.7237      46.7237      46.7237           90           90           90     102002.7   -1073.3829 
  998000       997500   -9624.5985     1004.554   -10629.153    4306.0269   -14935.179    110.60291   -1333.2306   -1353.5156   -868.77602   -47.613757    231.57668   -316.66335      46.7237      46.7237      46.7237           90           90           90     102002.7   -1185.1741 
  999000       998500   -9657.6776    980.34486   -10638.022    4294.4243   -14932.447    107.93744    -498.3886   -1029.6405   -682.61216    145.34052   -240.10112    113.54871      46.7237      46.7237      46.7237           90           90           90     102002.7   -736.88041 
 1000000       999500   -9628.7512    1002.0336   -10630.785    4288.4785   -14919.263     110.3254   -670.03976   -894.99095   -676.01654    16.884061     108.7817    33.272856      46.7237      46.7237      46.7237           90           90           90     102002.7   -747.01575 
 1000500      1000000   -9612.7105    1001.4307   -10614.141    4295.5162   -14909.657    110.25902   -395.60988   -966.34656   -567.49355     69.39931   -252.10542    199.37873      46.7237      46.7237      46.7237           90           90           90     102002.7      -643.15 
Loop time of 1015.42 on 24 procs for 500000 steps with 3048 atoms

Performance: 42.544 ns/day, 0.564 hours/ns, 492.408 timesteps/s
98.2% CPU use with 24 MPI tasks x no OpenMP threads

MPI task timing breakdown:
Section |  min time  |  avg time  |  max time  |%varavg| %total
---------------------------------------------------------------
Pair    | 355.01     | 529.54     | 742.23     | 548.5 | 52.15
Bond    | 39.159     | 82.381     | 133.92     | 330.3 |  8.11
Neigh   | 7.4356     | 7.4604     | 7.4846     |   0.5 |  0.73
Comm    | 110.4      | 372.47     | 588.7      | 796.7 | 36.68
Output  | 0.52359    | 0.55214    | 0.55351    |   0.8 |  0.05
Modify  | 12.346     | 13.416     | 14.256     |  17.2 |  1.32
Other   |            | 9.601      |            |       |  0.95

Nlocal:    127 ave 160 max 99 min
Histogram: 5 1 1 2 3 4 3 4 0 1
Nghost:    3402.33 ave 3586 max 3281 min
Histogram: 4 4 7 1 0 0 1 2 2 3
Neighs:    7632.17 ave 12813 max 3315 min
Histogram: 3 5 1 3 1 3 1 1 4 2

Total # of neighbors = 183172
Ave neighs/atom = 60.0958
Ave special neighs/atom = 3.77953
Neighbor list builds = 4710
Dangerous builds = 0
Total wall time: 0:31:45
