LAMMPS (30 Mar 2018)
Reading data file ...
  orthogonal box = (0 0 0) to (46.7237 46.7237 46.7237)
  2 by 2 by 4 MPI processor grid
  reading atoms ...
  2963 atoms
  scanning bonds ...
  5 = max bonds/atom
  scanning angles ...
  10 = max angles/atom
  scanning dihedrals ...
  32 = max dihedrals/atom
  scanning impropers ...
  3 = max impropers/atom
  reading bonds ...
  2064 bonds
  reading angles ...
  3696 angles
  reading dihedrals ...
  6240 dihedrals
  reading impropers ...
  1008 impropers
Finding 1-2 1-3 1-4 neighbors ...
  special bond factors lj:   0          0          0         
  special bond factors coul: 0          0          0         
  5 = max # of 1-2 neighbors
  8 = max # of 1-3 neighbors
  20 = max # of 1-4 neighbors
  19 = max # of special neighbors
Finding 1-2 1-3 1-4 neighbors ...
  special bond factors lj:   0          0          1         
  special bond factors coul: 1          1          1         
  5 = max # of 1-2 neighbors
  8 = max # of 1-3 neighbors
  19 = max # of special neighbors
WARNING: Using 'neigh_modify every 1 delay 0 check yes' setting during minimization (../min.cpp:168)
Neighbor list info ...
  update every 1 steps, delay 0 steps, check yes
  max neighbors/atom: 2000, page size: 100000
  master list distance cutoff = 16
  ghost atom cutoff = 16
  binsize = 8, bins = 6 6 6
  3 neighbor lists, perpetual/occasional/extra = 3 0 0
  (1) pair buck6d/coul/gauss/dsf, perpetual, skip from (3)
      attributes: half, newton on
      pair build: skip
      stencil: none
      bin: none
  (2) pair lj/cut, perpetual, skip from (3)
      attributes: half, newton on
      pair build: skip
      stencil: none
      bin: none
  (3) neighbor class addition, perpetual
      attributes: half, newton on
      pair build: half/bin/newton
      stencil: half/bin/3d/newton
      bin: standard
Setting up cg style minimization ...
  Unit style    : real
  Current step  : 0
WARNING: Inconsistent image flags (../domain.cpp:786)
Per MPI rank memory allocation (min/avg/max) = 23 | 23.45 | 23.9 Mbytes
Step Temp E_pair E_mol TotEng Press 
       0            0    -14556.99    6482.8914   -8074.0988    5785.2409 
     500            0   -15038.495    3729.3236   -11309.172   -1686.0668 
Loop time of 4.22933 on 16 procs for 500 steps with 2963 atoms

99.9% CPU use with 16 MPI tasks x no OpenMP threads

Minimization stats:
  Stopping criterion = max force evaluations
  Energy initial, next-to-last, final = 
        -8074.09884289     -11308.9173606     -11309.1716002
  Force two-norm initial, final = 2575.58 23.0161
  Force max component initial, final = 151.988 4.28607
  Final line search alpha, max atom move = 0.00292641 0.0125428
  Iterations, force evaluations = 500 1000

MPI task timing breakdown:
Section |  min time  |  avg time  |  max time  |%varavg| %total
---------------------------------------------------------------
Pair    | 2.132      | 2.696      | 3.2499     |  21.3 | 63.74
Bond    | 0.32285    | 0.36039    | 0.42364    |   5.1 |  8.52
Neigh   | 0.037805   | 0.037916   | 0.038001   |   0.0 |  0.90
Comm    | 0.50177    | 1.0904     | 1.6899     |  34.9 | 25.78
Output  | 0          | 0          | 0          |   0.0 |  0.00
Modify  | 0          | 0          | 0          |   0.0 |  0.00
Other   |            | 0.04461    |            |       |  1.05

Nlocal:    185.188 ave 204 max 166 min
Histogram: 2 1 0 2 3 2 1 3 1 1
Nghost:    3719.94 ave 3746 max 3697 min
Histogram: 1 2 1 2 5 0 1 2 1 1
Neighs:    11469.2 ave 15346 max 7552 min
Histogram: 3 0 4 1 0 2 0 1 2 3

Total # of neighbors = 183507
Ave neighs/atom = 61.9328
Ave special neighs/atom = 3.88795
Neighbor list builds = 12
Dangerous builds = 0
Neighbor list info ...
  update every 1 steps, delay 10 steps, check yes
  max neighbors/atom: 2000, page size: 100000
  master list distance cutoff = 16
  ghost atom cutoff = 16
  binsize = 8, bins = 6 6 6
  3 neighbor lists, perpetual/occasional/extra = 3 0 0
  (1) pair buck6d/coul/gauss/dsf, perpetual, skip from (3)
      attributes: half, newton on
      pair build: skip
      stencil: none
      bin: none
  (2) pair lj/cut, perpetual, skip from (3)
      attributes: half, newton on
      pair build: skip
      stencil: none
      bin: none
  (3) neighbor class addition, perpetual
      attributes: half, newton on
      pair build: half/bin/newton
      stencil: half/bin/3d/newton
      bin: standard
Setting up Verlet run ...
  Unit style    : real
  Current step  : 500
  Time step     : 1
WARNING: Inconsistent image flags (../domain.cpp:786)
Per MPI rank memory allocation (min/avg/max) = 22.64 | 22.71 | 22.77 Mbytes
Step Temp PotEng TotEng Press Volume Lx Ly Lz 
     500          130   -11309.172   -10161.381    -1171.687     102002.7      46.7237      46.7237      46.7237 
    1000    113.03221    -10380.31   -9382.3302   -687.13213     102002.7      46.7237      46.7237      46.7237 
    2000     134.5157   -10211.585   -9023.9246   -841.22923     102002.7      46.7237      46.7237      46.7237 
    3000     135.6435   -10228.882   -9031.2642   -626.70631     102002.7      46.7237      46.7237      46.7237 
    4000    130.67822   -10177.455   -9023.6763   -551.53747     102002.7      46.7237      46.7237      46.7237 
    5000    128.89068   -10182.871   -9044.8751   -757.48728     102002.7      46.7237      46.7237      46.7237 
    6000    129.30618    -10197.77   -9056.1056   -663.41745     102002.7      46.7237      46.7237      46.7237 
    7000    133.75947   -10182.863    -9001.879    -703.1884     102002.7      46.7237      46.7237      46.7237 
    8000    131.16298   -10161.527   -9003.4682   -572.35377     102002.7      46.7237      46.7237      46.7237 
    9000    128.52778   -10173.592   -9038.8001   -331.08104     102002.7      46.7237      46.7237      46.7237 
   10000    128.88415   -10225.408   -9087.4694   -1278.5618     102002.7      46.7237      46.7237      46.7237 
   11000    128.13276   -10185.382   -9054.0779   -687.89372     102002.7      46.7237      46.7237      46.7237 
   12000    130.17435   -10186.553   -9037.2228   -815.02102     102002.7      46.7237      46.7237      46.7237 
   13000    132.51511   -10168.512   -8998.5146   -705.89482     102002.7      46.7237      46.7237      46.7237 
   14000    130.32573   -10174.773   -9024.1062   -938.33681     102002.7      46.7237      46.7237      46.7237 
   15000    129.73826   -10172.696   -9027.2161    -718.1445     102002.7      46.7237      46.7237      46.7237 
   16000    135.56923   -10184.187   -8987.2242   -760.46847     102002.7      46.7237      46.7237      46.7237 
   17000    131.15557   -10158.872   -9000.8783   -922.00294     102002.7      46.7237      46.7237      46.7237 
   18000    127.56403     -10200.3   -9074.0165   -736.00713     102002.7      46.7237      46.7237      46.7237 
   19000    129.86834   -10158.235   -9011.6068   -757.59372     102002.7      46.7237      46.7237      46.7237 
   20000    133.20313   -10181.018   -9004.9465   -436.70518     102002.7      46.7237      46.7237      46.7237 
   21000    128.06342   -10199.096   -9068.4036   -915.31194     102002.7      46.7237      46.7237      46.7237 
   22000    131.32401   -10179.697   -9020.2163   -880.19001     102002.7      46.7237      46.7237      46.7237 
   23000    130.44988   -10169.888   -9018.1256   -615.52286     102002.7      46.7237      46.7237      46.7237 
   24000    129.35789    -10179.58   -9037.4582   -1055.8538     102002.7      46.7237      46.7237      46.7237 
   25000    131.13318   -10197.116   -9039.3201   -836.16139     102002.7      46.7237      46.7237      46.7237 
   26000    131.31632   -10213.766   -9054.3529   -994.35731     102002.7      46.7237      46.7237      46.7237 
   27000    128.66826   -10180.445   -9044.4124   -927.80649     102002.7      46.7237      46.7237      46.7237 
   28000    132.82981   -10142.782   -8970.0062   -760.80747     102002.7      46.7237      46.7237      46.7237 
   29000    130.33406   -10188.898   -9038.1582    -816.2593     102002.7      46.7237      46.7237      46.7237 
   30000    127.83151   -10156.731   -9028.0863   -586.55188     102002.7      46.7237      46.7237      46.7237 
   31000     126.7611   -10202.306   -9083.1116   -980.23225     102002.7      46.7237      46.7237      46.7237 
   32000    131.47996   -10158.619   -8997.7619   -891.25843     102002.7      46.7237      46.7237      46.7237 
   33000     129.1826   -10159.774   -9019.2006   -916.26039     102002.7      46.7237      46.7237      46.7237 
   34000    128.31853    -10185.01   -9052.0657    -657.3451     102002.7      46.7237      46.7237      46.7237 
   35000    129.25201   -10170.481   -9029.2946   -612.10814     102002.7      46.7237      46.7237      46.7237 
   36000    131.32742   -10165.285   -9005.7744   -916.54124     102002.7      46.7237      46.7237      46.7237 
   37000    132.11705   -10164.014   -8997.5314   -616.52751     102002.7      46.7237      46.7237      46.7237 
   38000     128.0609   -10190.047    -9059.377   -731.02431     102002.7      46.7237      46.7237      46.7237 
   39000    132.14569   -10199.089   -9032.3537    -805.6265     102002.7      46.7237      46.7237      46.7237 
   40000    129.68598   -10154.971   -9009.9532   -592.04154     102002.7      46.7237      46.7237      46.7237 
   41000    128.19546   -10180.543   -9048.6845   -1128.4162     102002.7      46.7237      46.7237      46.7237 
   42000    129.58392    -10171.38   -9027.2632   -696.98854     102002.7      46.7237      46.7237      46.7237 
   43000     130.3163   -10177.289   -9026.7057   -469.73454     102002.7      46.7237      46.7237      46.7237 
   44000    130.30996   -10159.121   -9008.5941   -1007.0212     102002.7      46.7237      46.7237      46.7237 
   45000     128.7727    -10187.79   -9050.8352   -840.03619     102002.7      46.7237      46.7237      46.7237 
   46000    128.48898   -10208.215   -9073.7648   -826.88106     102002.7      46.7237      46.7237      46.7237 
   47000    131.70637   -10187.287   -9024.4308   -743.88141     102002.7      46.7237      46.7237      46.7237 
   48000    132.24069   -10190.365   -9022.7906   -1070.9352     102002.7      46.7237      46.7237      46.7237 
   49000     130.8789   -10158.351   -9002.8002   -749.77643     102002.7      46.7237      46.7237      46.7237 
   50000    132.21611   -10172.033   -9004.6763   -418.27639     102002.7      46.7237      46.7237      46.7237 
   51000    131.54609   -10168.366    -9006.925   -648.82014     102002.7      46.7237      46.7237      46.7237 
   52000    129.56718   -10173.893   -9029.9239   -654.76279     102002.7      46.7237      46.7237      46.7237 
   53000    130.55921   -10180.687   -9027.9587   -1049.4253     102002.7      46.7237      46.7237      46.7237 
   54000    131.20505   -10158.676   -9000.2457   -685.67568     102002.7      46.7237      46.7237      46.7237 
   55000    128.20832   -10180.284   -9048.3125    -795.0277     102002.7      46.7237      46.7237      46.7237 
   56000    130.38648    -10177.65   -9026.4472   -1014.0932     102002.7      46.7237      46.7237      46.7237 
   57000    128.87954   -10196.057   -9058.1588   -948.80865     102002.7      46.7237      46.7237      46.7237 
   58000    132.82439   -10183.918   -9011.1902   -567.33466     102002.7      46.7237      46.7237      46.7237 
   59000    131.70442   -10167.347   -9004.5082      -980.15     102002.7      46.7237      46.7237      46.7237 
   60000    130.06407   -10156.548   -9008.1913   -766.22976     102002.7      46.7237      46.7237      46.7237 
   61000    132.15241   -10166.979   -9000.1841   -923.50922     102002.7      46.7237      46.7237      46.7237 
   62000    131.02344   -10146.408   -8989.5811   -612.22805     102002.7      46.7237      46.7237      46.7237 
   63000    128.18851   -10153.198   -9021.4016   -847.89354     102002.7      46.7237      46.7237      46.7237 
   64000    130.33482   -10180.402   -9029.6547   -815.64278     102002.7      46.7237      46.7237      46.7237 
   65000    128.91992   -10181.467   -9043.2121   -521.56026     102002.7      46.7237      46.7237      46.7237 
   66000    132.31753   -10168.891   -9000.6381   -1071.6267     102002.7      46.7237      46.7237      46.7237 
   67000    132.18914    -10177.04   -9009.9213   -782.97798     102002.7      46.7237      46.7237      46.7237 
   68000    131.09708   -10154.476   -8996.9986   -535.73795     102002.7      46.7237      46.7237      46.7237 
   69000    128.93856   -10177.335   -9038.9156   -965.93641     102002.7      46.7237      46.7237      46.7237 
   70000    131.25122   -10154.551   -8995.7126   -641.38565     102002.7      46.7237      46.7237      46.7237 
   71000    134.40182   -10171.204   -8984.5485    -724.0888     102002.7      46.7237      46.7237      46.7237 
   72000    129.70947   -10173.663   -9028.4375   -825.36861     102002.7      46.7237      46.7237      46.7237 
   73000    130.31462   -10173.552   -9022.9833   -1297.8887     102002.7      46.7237      46.7237      46.7237 
   74000    129.12961   -10199.639   -9059.5328   -729.66448     102002.7      46.7237      46.7237      46.7237 
   75000    129.77369   -10175.379   -9029.5865   -603.55025     102002.7      46.7237      46.7237      46.7237 
   76000    129.89101   -10193.936   -9047.1076    -573.7262     102002.7      46.7237      46.7237      46.7237 
   77000    131.02918   -10163.569   -9006.6917   -761.09664     102002.7      46.7237      46.7237      46.7237 
   78000    129.44103   -10159.862   -9017.0064   -272.39564     102002.7      46.7237      46.7237      46.7237 
   79000    132.46465   -10186.991   -9017.4399   -661.62209     102002.7      46.7237      46.7237      46.7237 
   80000    131.74692   -10213.863   -9050.6489    -646.1772     102002.7      46.7237      46.7237      46.7237 
   81000    129.69356   -10187.481   -9042.3959   -647.93258     102002.7      46.7237      46.7237      46.7237 
   82000    128.05066   -10158.273   -9027.6934   -1009.9751     102002.7      46.7237      46.7237      46.7237 
   83000     131.7508   -10184.108   -9020.8587   -1121.9199     102002.7      46.7237      46.7237      46.7237 
   84000    129.46021   -10178.247   -9035.2227   -992.99877     102002.7      46.7237      46.7237      46.7237 
   85000    129.09659   -10140.379   -9000.5643   -836.26931     102002.7      46.7237      46.7237      46.7237 
   86000    131.31253   -10149.075   -8989.6961    -750.1573     102002.7      46.7237      46.7237      46.7237 
   87000    129.94056   -10183.608   -9036.3417    -743.8305     102002.7      46.7237      46.7237      46.7237 
   88000    127.76601   -10170.152   -9042.0861   -688.92378     102002.7      46.7237      46.7237      46.7237 
   89000    132.10862    -10172.48   -9006.0719   -615.67547     102002.7      46.7237      46.7237      46.7237 
   90000    131.22445   -10165.589   -9006.9875   -808.17501     102002.7      46.7237      46.7237      46.7237 
   91000    128.83601   -10212.819   -9075.3058   -707.33232     102002.7      46.7237      46.7237      46.7237 
   92000    129.35079   -10164.314   -9022.2548   -858.19881     102002.7      46.7237      46.7237      46.7237 
   93000    130.49558   -10155.469   -9003.3031   -944.91206     102002.7      46.7237      46.7237      46.7237 
   94000    125.83718   -10190.164   -9079.1277   -709.76558     102002.7      46.7237      46.7237      46.7237 
   95000    127.87476   -10180.754   -9051.7277   -1043.3431     102002.7      46.7237      46.7237      46.7237 
   96000    127.80987   -10164.574   -9036.1203   -906.39217     102002.7      46.7237      46.7237      46.7237 
   97000    131.03741   -10167.835   -9010.8849   -914.96398     102002.7      46.7237      46.7237      46.7237 
   98000    130.26792   -10190.328    -9040.172   -780.68468     102002.7      46.7237      46.7237      46.7237 
   99000    127.68292    -10151.11   -9023.7767   -549.53089     102002.7      46.7237      46.7237      46.7237 
  100000    127.71697    -10155.67   -9028.0362   -732.16563     102002.7      46.7237      46.7237      46.7237 
  101000    127.07843   -10182.496   -9060.5001   -763.16026     102002.7      46.7237      46.7237      46.7237 
  102000      126.247   -10171.836   -9057.1811    -1024.036     102002.7      46.7237      46.7237      46.7237 
  103000    131.95662   -10174.527   -9009.4615    -779.3838     102002.7      46.7237      46.7237      46.7237 
  104000    131.20047   -10153.062   -8994.6717   -532.69031     102002.7      46.7237      46.7237      46.7237 
  105000    132.86402   -10183.011   -9009.9334   -912.51492     102002.7      46.7237      46.7237      46.7237 
  106000    129.79275   -10178.457   -9032.4962   -917.31503     102002.7      46.7237      46.7237      46.7237 
  107000     128.4691   -10169.535    -9035.261   -820.56533     102002.7      46.7237      46.7237      46.7237 
  108000    131.42722   -10183.392   -9022.9997   -887.50194     102002.7      46.7237      46.7237      46.7237 
  109000    128.42612   -10164.983   -9031.0888   -784.34663     102002.7      46.7237      46.7237      46.7237 
  110000    126.17944   -10197.574   -9083.5155   -764.44453     102002.7      46.7237      46.7237      46.7237 
  111000    131.39815   -10158.136   -8998.0006   -900.91492     102002.7      46.7237      46.7237      46.7237 
  112000    128.51344   -10172.147   -9037.4818   -726.24596     102002.7      46.7237      46.7237      46.7237 
  113000    126.55088   -10184.944   -9067.6061    -1049.112     102002.7      46.7237      46.7237      46.7237 
  114000    130.87238   -10181.355   -9025.8615    -747.6525     102002.7      46.7237      46.7237      46.7237 
  115000    129.66248   -10200.101   -9055.2907   -1088.6314     102002.7      46.7237      46.7237      46.7237 
  116000    131.25532   -10161.653   -9002.7786    -1409.592     102002.7      46.7237      46.7237      46.7237 
  117000    136.86181   -10186.228   -8977.8535   -1022.8295     102002.7      46.7237      46.7237      46.7237 
  118000    128.86718   -10172.078   -9034.2896   -605.82236     102002.7      46.7237      46.7237      46.7237 
  119000    127.21542   -10175.918   -9052.7127   -986.10618     102002.7      46.7237      46.7237      46.7237 
  120000    128.20096   -10177.169   -9045.2619   -987.18822     102002.7      46.7237      46.7237      46.7237 
  121000    131.37418   -10166.837   -9006.9139   -686.15953     102002.7      46.7237      46.7237      46.7237 
  122000    132.73625   -10147.872    -8975.922   -979.15402     102002.7      46.7237      46.7237      46.7237 
  123000    128.89797   -10148.296   -9010.2351   -793.25972     102002.7      46.7237      46.7237      46.7237 
  124000    136.40402   -10157.698    -8953.365   -720.61604     102002.7      46.7237      46.7237      46.7237 
  125000    128.65879   -10151.743   -9015.7939    -852.3565     102002.7      46.7237      46.7237      46.7237 
  126000    129.27074    -10161.46   -9020.1082   -771.89053     102002.7      46.7237      46.7237      46.7237 
  127000    131.34671   -10194.348   -9034.6667   -896.47557     102002.7      46.7237      46.7237      46.7237 
  128000    131.09318   -10167.555   -9010.1125    -613.5324     102002.7      46.7237      46.7237      46.7237 
  129000    131.93736   -10194.343   -9029.4473   -603.52937     102002.7      46.7237      46.7237      46.7237 
  130000    130.92075   -10138.345    -8982.425    -818.6661     102002.7      46.7237      46.7237      46.7237 
  131000    131.22581   -10198.147   -9039.5331   -454.63093     102002.7      46.7237      46.7237      46.7237 
  132000    131.85313   -10163.419    -8999.267   -560.70202     102002.7      46.7237      46.7237      46.7237 
  133000    134.94842   -10162.702   -8971.2208   -902.01201     102002.7      46.7237      46.7237      46.7237 
  134000    132.01398   -10167.825   -9002.2521   -756.77457     102002.7      46.7237      46.7237      46.7237 
  135000    128.79093   -10166.644   -9029.5286   -908.73425     102002.7      46.7237      46.7237      46.7237 
  136000    130.49614    -10185.02   -9032.8488   -732.90782     102002.7      46.7237      46.7237      46.7237 
  137000    131.29306   -10157.104    -8997.897   -657.05585     102002.7      46.7237      46.7237      46.7237 
  138000    128.88047   -10171.677   -9033.7709   -650.52581     102002.7      46.7237      46.7237      46.7237 
  139000    130.60012   -10169.803    -9016.714   -657.74744     102002.7      46.7237      46.7237      46.7237 
  140000    126.11087   -10179.862   -9066.4088   -750.33212     102002.7      46.7237      46.7237      46.7237 
  141000    126.99811    -10164.61   -9043.3236   -610.02762     102002.7      46.7237      46.7237      46.7237 
  142000    130.25675   -10178.812   -9028.7548   -1177.5406     102002.7      46.7237      46.7237      46.7237 
  143000    131.48751   -10159.311   -8998.3863   -811.74735     102002.7      46.7237      46.7237      46.7237 
  144000    132.02225   -10183.666   -9018.0203   -976.96314     102002.7      46.7237      46.7237      46.7237 
  145000    129.31785    -10173.46    -9031.692   -960.59673     102002.7      46.7237      46.7237      46.7237 
  146000    131.38506   -10163.809    -9003.789   -903.40225     102002.7      46.7237      46.7237      46.7237 
  147000     131.7986   -10209.993   -9046.3224   -1197.5174     102002.7      46.7237      46.7237      46.7237 
  148000    131.13043   -10169.864   -9012.0927   -795.24165     102002.7      46.7237      46.7237      46.7237 
  149000    131.68656    -10144.97    -8982.288    -720.6436     102002.7      46.7237      46.7237      46.7237 
  150000    128.30781   -10190.016    -9057.166   -803.86376     102002.7      46.7237      46.7237      46.7237 
  151000    130.83644   -10163.275    -9008.099   -844.38909     102002.7      46.7237      46.7237      46.7237 
  152000    124.78705   -10189.931   -9088.1667   -991.05383     102002.7      46.7237      46.7237      46.7237 
  153000    128.97218   -10144.285   -9005.5692   -724.80146     102002.7      46.7237      46.7237      46.7237 
  154000    132.71962   -10171.088   -8999.2853   -774.15579     102002.7      46.7237      46.7237      46.7237 
  155000    130.27953   -10205.456    -9055.197   -1074.1634     102002.7      46.7237      46.7237      46.7237 
  156000    130.45877   -10148.287   -8996.4457   -770.19403     102002.7      46.7237      46.7237      46.7237 
  157000    126.20091   -10189.455   -9075.2074    -870.2009     102002.7      46.7237      46.7237      46.7237 
  158000    130.26335   -10158.147   -9008.0309   -825.89854     102002.7      46.7237      46.7237      46.7237 
  159000    131.91712   -10195.333   -9030.6162    -738.7075     102002.7      46.7237      46.7237      46.7237 
  160000    128.97472   -10167.503   -9028.7645   -991.75459     102002.7      46.7237      46.7237      46.7237 
  161000    133.52588   -10189.711   -9010.7896   -967.91842     102002.7      46.7237      46.7237      46.7237 
  162000     131.1083   -10162.075   -9004.4993   -745.81481     102002.7      46.7237      46.7237      46.7237 
  163000    127.11826   -10171.972   -9049.6247   -828.04845     102002.7      46.7237      46.7237      46.7237 
  164000    128.83271    -10144.54   -9007.0552   -566.98493     102002.7      46.7237      46.7237      46.7237 
  165000    131.39644   -10144.225   -8984.1047    -996.9875     102002.7      46.7237      46.7237      46.7237 
  166000    132.06033   -10160.524   -8994.5427   -970.54003     102002.7      46.7237      46.7237      46.7237 
  167000    128.99817    -10189.11   -9050.1649   -710.26177     102002.7      46.7237      46.7237      46.7237 
  168000    133.85322   -10141.395   -8959.5833   -846.54159     102002.7      46.7237      46.7237      46.7237 
  169000    130.21732   -10178.743   -9029.0337   -1039.6616     102002.7      46.7237      46.7237      46.7237 
  170000    128.07467   -10137.393   -9006.6015   -825.19861     102002.7      46.7237      46.7237      46.7237 
  171000    127.62398   -10190.643   -9063.8308   -847.49496     102002.7      46.7237      46.7237      46.7237 
  172000    130.67444   -10165.844   -9012.0985   -754.93806     102002.7      46.7237      46.7237      46.7237 
  173000    127.97042   -10197.764   -9067.8929   -906.24018     102002.7      46.7237      46.7237      46.7237 
  174000    129.22102   -10150.629    -9009.716   -684.72381     102002.7      46.7237      46.7237      46.7237 
  175000     126.5783   -10173.261   -9055.6806   -1175.1038     102002.7      46.7237      46.7237      46.7237 
  176000    128.48583   -10171.313   -9036.8913   -977.18757     102002.7      46.7237      46.7237      46.7237 
  177000     129.8546   -10149.582   -9003.0752   -550.13917     102002.7      46.7237      46.7237      46.7237 
  178000    132.96136   -10189.063   -9015.1258   -874.18818     102002.7      46.7237      46.7237      46.7237 
  179000    127.51933   -10174.441   -9048.5528   -808.73991     102002.7      46.7237      46.7237      46.7237 
  180000    135.36252   -10184.917   -8989.7795   -1029.3946     102002.7      46.7237      46.7237      46.7237 
  181000    127.15947   -10153.917   -9031.2054   -848.93858     102002.7      46.7237      46.7237      46.7237 
  182000    128.66322   -10166.038   -9030.0495   -789.95792     102002.7      46.7237      46.7237      46.7237 
  183000    129.05171   -10162.078   -9022.6604   -1048.1944     102002.7      46.7237      46.7237      46.7237 
  184000    130.03641   -10191.834   -9043.7215   -573.28028     102002.7      46.7237      46.7237      46.7237 
  185000    130.33514   -10153.283    -9002.533   -1156.0566     102002.7      46.7237      46.7237      46.7237 
  186000    130.39911   -10205.882    -9054.567   -900.43166     102002.7      46.7237      46.7237      46.7237 
  187000    127.97603   -10167.624   -9037.7032   -545.66249     102002.7      46.7237      46.7237      46.7237 
  188000    130.01764   -10163.832   -9015.8856   -1001.6125     102002.7      46.7237      46.7237      46.7237 
  189000    134.88843   -10134.211   -8943.2598   -677.85968     102002.7      46.7237      46.7237      46.7237 
  190000    127.21055   -10152.602   -9029.4399   -737.53418     102002.7      46.7237      46.7237      46.7237 
  191000    131.28241   -10186.555   -9027.4412   -760.69108     102002.7      46.7237      46.7237      46.7237 
  192000    129.06802   -10151.199   -9011.6373   -649.73373     102002.7      46.7237      46.7237      46.7237 
  193000    128.54584   -10171.223   -9036.2715   -1132.6615     102002.7      46.7237      46.7237      46.7237 
  194000    130.63844   -10199.083   -9045.6557   -717.83265     102002.7      46.7237      46.7237      46.7237 
  195000    131.62665   -10177.038    -9014.885   -733.62723     102002.7      46.7237      46.7237      46.7237 
  196000    130.33053   -10209.735   -9059.0257   -843.58232     102002.7      46.7237      46.7237      46.7237 
  197000    129.45113   -10171.562   -9028.6175   -584.24218     102002.7      46.7237      46.7237      46.7237 
  198000    131.23639   -10166.222   -9007.5146    -739.1032     102002.7      46.7237      46.7237      46.7237 
  199000    129.84099   -10190.747   -9044.3602   -1006.7637     102002.7      46.7237      46.7237      46.7237 
  200000    127.93235   -10192.002   -9062.4673   -767.61007     102002.7      46.7237      46.7237      46.7237 
  201000    130.76285   -10173.543   -9019.0166   -620.22348     102002.7      46.7237      46.7237      46.7237 
  202000    127.89187   -10154.117   -9024.9388   -368.95218     102002.7      46.7237      46.7237      46.7237 
  203000    130.35295   -10153.963   -9003.0556   -673.90085     102002.7      46.7237      46.7237      46.7237 
  204000    133.85814   -10180.586   -8998.7314    -797.8837     102002.7      46.7237      46.7237      46.7237 
  205000    126.94201   -10165.929   -9045.1381   -773.97867     102002.7      46.7237      46.7237      46.7237 
  206000    128.16517    -10156.07   -9024.4791   -722.53613     102002.7      46.7237      46.7237      46.7237 
  207000    128.08011   -10187.103   -9056.2631   -595.76865     102002.7      46.7237      46.7237      46.7237 
  208000    127.13743   -10164.279   -9041.7628   -508.50245     102002.7      46.7237      46.7237      46.7237 
  209000    129.02399   -10166.953   -9027.7798   -532.12852     102002.7      46.7237      46.7237      46.7237 
  210000    134.61995   -10182.143   -8993.5623   -641.34785     102002.7      46.7237      46.7237      46.7237 
  211000    131.19144   -10172.879   -9014.5688   -768.14683     102002.7      46.7237      46.7237      46.7237 
  212000     131.1344   -10163.602   -9005.7956   -383.92249     102002.7      46.7237      46.7237      46.7237 
  213000    130.51978   -10166.615   -9014.2351   -845.69803     102002.7      46.7237      46.7237      46.7237 
  214000    131.29434    -10167.83   -9008.6117   -981.61526     102002.7      46.7237      46.7237      46.7237 
  215000    131.65022   -10171.997    -9009.636   -917.59104     102002.7      46.7237      46.7237      46.7237 
  216000    131.95069   -10172.212   -9007.1984   -487.76201     102002.7      46.7237      46.7237      46.7237 
  217000    131.22525   -10166.354   -9007.7449   -726.44531     102002.7      46.7237      46.7237      46.7237 
  218000    129.94355   -10193.919    -9046.627   -958.58851     102002.7      46.7237      46.7237      46.7237 
  219000     131.1863   -10168.696   -9010.4314   -1100.8403     102002.7      46.7237      46.7237      46.7237 
  220000    130.83423   -10184.754   -9029.5975   -939.87102     102002.7      46.7237      46.7237      46.7237 
  221000    131.90111   -10179.452    -9014.876   -1067.2089     102002.7      46.7237      46.7237      46.7237 
  222000    131.36176   -10211.332   -9051.5184    -806.6104     102002.7      46.7237      46.7237      46.7237 
  223000     131.2412   -10168.206   -9009.4568   -812.24376     102002.7      46.7237      46.7237      46.7237 
  224000    127.78403   -10148.167   -9019.9413   -1002.0707     102002.7      46.7237      46.7237      46.7237 
  225000     130.7704   -10180.738   -9026.1456   -982.89187     102002.7      46.7237      46.7237      46.7237 
  226000    128.51389   -10161.148   -9026.4787    -793.7635     102002.7      46.7237      46.7237      46.7237 
  227000    128.47462   -10180.233     -9045.91   -732.64843     102002.7      46.7237      46.7237      46.7237 
  228000    129.61562   -10155.446   -9011.0486   -776.62719     102002.7      46.7237      46.7237      46.7237 
  229000    127.59583   -10191.663   -9065.0989   -1318.0423     102002.7      46.7237      46.7237      46.7237 
  230000    129.64004   -10161.492   -9016.8795   -839.31696     102002.7      46.7237      46.7237      46.7237 
  231000      129.497   -10177.462   -9034.1122   -1026.3308     102002.7      46.7237      46.7237      46.7237 
  232000    129.90115   -10174.447   -9027.5291   -794.40963     102002.7      46.7237      46.7237      46.7237 
  233000    128.63488   -10162.872   -9027.1345    -694.7446     102002.7      46.7237      46.7237      46.7237 
  234000    129.21148   -10180.276    -9039.447   -646.35233     102002.7      46.7237      46.7237      46.7237 
  235000    131.69212   -10180.876   -9018.1448   -1082.6942     102002.7      46.7237      46.7237      46.7237 
  236000    133.87148   -10171.279   -8989.3066   -871.15011     102002.7      46.7237      46.7237      46.7237 
  237000    131.02936   -10163.641   -9006.7617   -955.26311     102002.7      46.7237      46.7237      46.7237 
  238000    127.43476   -10182.462   -9057.3205   -923.04772     102002.7      46.7237      46.7237      46.7237 
  239000    129.73111   -10156.133   -9010.7162   -1170.4219     102002.7      46.7237      46.7237      46.7237 
  240000    126.86646   -10137.683   -9017.5589   -924.18285     102002.7      46.7237      46.7237      46.7237 
  241000    128.37467    -10178.66   -9045.2193    -971.4458     102002.7      46.7237      46.7237      46.7237 
  242000    129.37518    -10154.72   -9012.4464   -862.15262     102002.7      46.7237      46.7237      46.7237 
  243000    125.77523   -10149.777   -9039.2875   -743.87176     102002.7      46.7237      46.7237      46.7237 
  244000    131.75657   -10162.548   -8999.2485   -820.13212     102002.7      46.7237      46.7237      46.7237 
  245000    128.06478   -10202.131   -9071.4266   -838.68718     102002.7      46.7237      46.7237      46.7237 
  246000    133.24116   -10184.436   -9008.0287   -897.38826     102002.7      46.7237      46.7237      46.7237 
  247000    127.30394   -10192.888   -9068.9012   -968.04023     102002.7      46.7237      46.7237      46.7237 
  248000    129.66771   -10184.982   -9040.1253    -957.9502     102002.7      46.7237      46.7237      46.7237 
  249000    130.50523   -10155.025    -9002.774   -555.26244     102002.7      46.7237      46.7237      46.7237 
  250000    130.03671   -10179.204   -9031.0888   -924.15092     102002.7      46.7237      46.7237      46.7237 
  251000     130.0373   -10173.921   -9025.8006   -916.41871     102002.7      46.7237      46.7237      46.7237 
  252000    130.67758   -10169.251   -9015.4778   -994.73445     102002.7      46.7237      46.7237      46.7237 
  253000    129.20894   -10174.377   -9033.5705   -1008.8693     102002.7      46.7237      46.7237      46.7237 
  254000    131.08538   -10187.984   -9030.6104   -706.32262     102002.7      46.7237      46.7237      46.7237 
  255000    130.36437   -10148.593    -8997.585   -496.38511     102002.7      46.7237      46.7237      46.7237 
  256000     129.7785   -10212.211   -9066.3764   -891.78664     102002.7      46.7237      46.7237      46.7237 
  257000    128.69913   -10169.892   -9033.5866   -947.51529     102002.7      46.7237      46.7237      46.7237 
  258000    133.22312   -10174.154   -8997.9057   -823.02522     102002.7      46.7237      46.7237      46.7237 
  259000    130.16242   -10170.112   -9020.8875   -868.92315     102002.7      46.7237      46.7237      46.7237 
  260000    127.61072   -10192.813   -9066.1172   -1017.3411     102002.7      46.7237      46.7237      46.7237 
  261000    132.90595   -10181.628   -9008.1801   -933.28372     102002.7      46.7237      46.7237      46.7237 
  262000    128.78091   -10171.878   -9034.8506   -968.92348     102002.7      46.7237      46.7237      46.7237 
  263000    130.16047   -10150.327   -9001.1199   -776.55657     102002.7      46.7237      46.7237      46.7237 
  264000    125.82295   -10168.984   -9058.0735    -926.7835     102002.7      46.7237      46.7237      46.7237 
  265000    128.90326   -10165.197   -9027.0895   -953.45681     102002.7      46.7237      46.7237      46.7237 
  266000    129.34434   -10166.674    -9024.672   -509.93041     102002.7      46.7237      46.7237      46.7237 
  267000    131.27091   -10163.534   -9004.5224   -1019.4844     102002.7      46.7237      46.7237      46.7237 
  268000    131.97845   -10165.711   -9000.4519   -577.10553     102002.7      46.7237      46.7237      46.7237 
  269000    130.01126   -10168.304   -9020.4137   -937.71212     102002.7      46.7237      46.7237      46.7237 
  270000    133.99907   -10159.856   -8976.7571   -913.33227     102002.7      46.7237      46.7237      46.7237 
  271000    130.97357   -10156.776   -9000.3895   -541.20491     102002.7      46.7237      46.7237      46.7237 
  272000    133.98564   -10131.848   -8948.8678   -581.21992     102002.7      46.7237      46.7237      46.7237 
  273000    129.74136    -10161.62   -9016.1125   -484.63414     102002.7      46.7237      46.7237      46.7237 
  274000    128.38264   -10204.657   -9071.1466    -592.2965     102002.7      46.7237      46.7237      46.7237 
  275000    128.18373   -10156.536   -9024.7815   -798.48079     102002.7      46.7237      46.7237      46.7237 
  276000    129.75727   -10160.166   -9014.5184   -942.73134     102002.7      46.7237      46.7237      46.7237 
  277000     132.0345   -10155.381   -8989.6274   -814.59017     102002.7      46.7237      46.7237      46.7237 
  278000    131.31643   -10197.539   -9038.1255   -724.34945     102002.7      46.7237      46.7237      46.7237 
  279000    133.14715   -10155.439   -8979.8617   -759.00528     102002.7      46.7237      46.7237      46.7237 
  280000    131.32729   -10177.544   -9018.0348   -691.84567     102002.7      46.7237      46.7237      46.7237 
  281000    128.17307   -10193.622   -9061.9611   -933.50977     102002.7      46.7237      46.7237      46.7237 
  282000     129.2216    -10174.84   -9033.9214   -719.42974     102002.7      46.7237      46.7237      46.7237 
  283000    130.26077   -10175.776   -9025.6832   -997.48601     102002.7      46.7237      46.7237      46.7237 
  284000    130.59628   -10180.287   -9027.2315   -946.26469     102002.7      46.7237      46.7237      46.7237 
  285000    129.70459    -10143.42   -8998.2379   -717.19018     102002.7      46.7237      46.7237      46.7237 
  286000    131.85892   -10183.903      -9019.7   -1232.7164     102002.7      46.7237      46.7237      46.7237 
  287000    125.62472   -10172.206   -9063.0453   -1150.5517     102002.7      46.7237      46.7237      46.7237 
  288000    129.83778   -10145.469   -8999.1108   -896.04735     102002.7      46.7237      46.7237      46.7237 
  289000    128.34905   -10137.886   -9004.6718   -1072.5273     102002.7      46.7237      46.7237      46.7237 
  290000    129.63202   -10170.115   -9025.5728    -1185.594     102002.7      46.7237      46.7237      46.7237 
  291000    128.49572    -10176.51   -9042.0012   -1014.5321     102002.7      46.7237      46.7237      46.7237 
  292000    130.24658   -10169.301   -9019.3334   -648.93703     102002.7      46.7237      46.7237      46.7237 
  293000    125.73795   -10155.082   -9044.9218   -650.55824     102002.7      46.7237      46.7237      46.7237 
  294000    129.41275   -10171.021    -9028.415   -796.77465     102002.7      46.7237      46.7237      46.7237 
  295000     127.1142   -10173.641   -9051.3293     -1013.56     102002.7      46.7237      46.7237      46.7237 
  296000    130.16119   -10164.841   -9015.6275   -713.26608     102002.7      46.7237      46.7237      46.7237 
  297000    128.50383   -10186.774   -9052.1937   -631.35721     102002.7      46.7237      46.7237      46.7237 
  298000    128.51361   -10161.828   -9027.1604   -732.11181     102002.7      46.7237      46.7237      46.7237 
  299000    131.93893   -10163.704   -8998.7937   -976.53924     102002.7      46.7237      46.7237      46.7237 
  300000    131.08246   -10173.043   -9015.6949   -808.72403     102002.7      46.7237      46.7237      46.7237 
  301000    131.80959   -10176.967   -9013.1986    -973.4299     102002.7      46.7237      46.7237      46.7237 
  302000    129.32764   -10142.842   -9000.9881   -993.76416     102002.7      46.7237      46.7237      46.7237 
  303000    133.37747   -10187.256   -9009.6454   -794.35335     102002.7      46.7237      46.7237      46.7237 
  304000     129.1708   -10170.384   -9029.9144      -1066.1     102002.7      46.7237      46.7237      46.7237 
  305000    132.30626   -10175.059   -9006.9056   -937.48915     102002.7      46.7237      46.7237      46.7237 
  306000    129.90501   -10152.314   -9005.3624   -1085.3392     102002.7      46.7237      46.7237      46.7237 
  307000    129.95415   -10188.403   -9041.0173    -1290.045     102002.7      46.7237      46.7237      46.7237 
  308000    130.81551    -10161.38   -9006.3893   -825.73109     102002.7      46.7237      46.7237      46.7237 
  309000     129.6512    -10149.63   -9004.9184   -1077.0916     102002.7      46.7237      46.7237      46.7237 
  310000    128.62412   -10186.993   -9051.3506   -978.01564     102002.7      46.7237      46.7237      46.7237 
  311000    129.81757   -10148.669   -9002.4892   -649.94778     102002.7      46.7237      46.7237      46.7237 
  312000    129.73259   -10192.159   -9046.7297   -818.80302     102002.7      46.7237      46.7237      46.7237 
  313000    128.09763   -10157.899   -9026.9042   -859.64013     102002.7      46.7237      46.7237      46.7237 
  314000     132.5818   -10169.682   -8999.0964   -971.85466     102002.7      46.7237      46.7237      46.7237 
  315000    132.54169   -10168.124   -8997.8924   -695.05542     102002.7      46.7237      46.7237      46.7237 
  316000    129.45144   -10151.049   -9008.1021   -981.83774     102002.7      46.7237      46.7237      46.7237 
  317000    130.32297   -10174.897   -9024.2544   -651.35705     102002.7      46.7237      46.7237      46.7237 
  318000    128.56068   -10186.853   -9051.7704   -692.89064     102002.7      46.7237      46.7237      46.7237 
  319000    127.51781     -10172.7   -9046.8248   -1237.0126     102002.7      46.7237      46.7237      46.7237 
  320000     129.9585    -10184.47   -9037.0455   -671.53681     102002.7      46.7237      46.7237      46.7237 
  321000    129.16578   -10160.288   -9019.8626   -848.19524     102002.7      46.7237      46.7237      46.7237 
  322000    130.23684   -10163.053   -9013.1714   -597.34838     102002.7      46.7237      46.7237      46.7237 
  323000    128.87569   -10162.192   -9024.3275   -702.29539     102002.7      46.7237      46.7237      46.7237 
  324000    129.83802   -10179.331   -9032.9704   -795.50399     102002.7      46.7237      46.7237      46.7237 
  325000    132.03377   -10192.254   -9026.5066   -842.66417     102002.7      46.7237      46.7237      46.7237 
  326000    132.05142   -10180.638   -9014.7349   -1295.1818     102002.7      46.7237      46.7237      46.7237 
  327000    130.73842   -10179.335   -9025.0244    -888.6845     102002.7      46.7237      46.7237      46.7237 
  328000    130.87248    -10187.66   -9032.1664   -946.14244     102002.7      46.7237      46.7237      46.7237 
  329000    129.00959   -10185.049   -9046.0031   -774.02658     102002.7      46.7237      46.7237      46.7237 
  330000    131.06397    -10170.02   -9012.8354   -423.08729     102002.7      46.7237      46.7237      46.7237 
  331000    129.95092   -10174.097   -9026.7399   -962.82201     102002.7      46.7237      46.7237      46.7237 
  332000    132.95833   -10162.639   -8988.7283   -922.96382     102002.7      46.7237      46.7237      46.7237 
  333000    129.95028    -10174.58   -9027.2279   -920.74068     102002.7      46.7237      46.7237      46.7237 
  334000     129.4014   -10153.199   -9010.6933   -715.01521     102002.7      46.7237      46.7237      46.7237 
  335000    132.62081   -10183.558   -9012.6279   -743.73127     102002.7      46.7237      46.7237      46.7237 
  336000    129.73718   -10179.306   -9033.8361    -877.9521     102002.7      46.7237      46.7237      46.7237 
  337000    128.37741   -10163.529   -9030.0644   -815.89776     102002.7      46.7237      46.7237      46.7237 
  338000    128.51571   -10159.494   -9024.8088   -878.48966     102002.7      46.7237      46.7237      46.7237 
  339000    129.01083   -10131.215   -8992.1577   -1025.4271     102002.7      46.7237      46.7237      46.7237 
  340000    128.96209   -10183.455   -9044.8282   -1096.7694     102002.7      46.7237      46.7237      46.7237 
  341000    129.37718   -10137.767   -8995.4757   -1280.4598     102002.7      46.7237      46.7237      46.7237 
  342000    128.71619   -10171.031   -9034.5753   -1040.1416     102002.7      46.7237      46.7237      46.7237 
  343000    124.63137   -10177.433   -9077.0432   -797.24059     102002.7      46.7237      46.7237      46.7237 
  344000     128.9949   -10165.978   -9027.0619   -830.41821     102002.7      46.7237      46.7237      46.7237 
  345000    127.78841   -10182.809   -9054.5443   -821.15805     102002.7      46.7237      46.7237      46.7237 
  346000    131.83431   -10163.783   -8999.7969   -924.63686     102002.7      46.7237      46.7237      46.7237 
  347000    129.81762   -10178.612    -9032.432   -653.73354     102002.7      46.7237      46.7237      46.7237 
  348000    132.00372    -10168.75   -9003.2683   -960.73774     102002.7      46.7237      46.7237      46.7237 
  349000    126.94446   -10185.097   -9064.2841   -751.57584     102002.7      46.7237      46.7237      46.7237 
  350000    129.84626   -10182.671    -9036.238   -719.39447     102002.7      46.7237      46.7237      46.7237 
  351000    130.53041   -10173.427   -9020.9528   -871.26951     102002.7      46.7237      46.7237      46.7237 
  352000    134.38364   -10195.514   -9009.0191   -916.03386     102002.7      46.7237      46.7237      46.7237 
  353000     130.4584   -10174.023   -9022.1847   -783.83937     102002.7      46.7237      46.7237      46.7237 
  354000    130.89681    -10161.75   -9006.0416   -1075.5436     102002.7      46.7237      46.7237      46.7237 
  355000    130.28538   -10159.658    -9009.348   -841.91519     102002.7      46.7237      46.7237      46.7237 
  356000    131.93166   -10155.396   -8990.5502   -784.45482     102002.7      46.7237      46.7237      46.7237 
  357000     130.9696   -10149.897   -8993.5459   -577.09301     102002.7      46.7237      46.7237      46.7237 
  358000    129.51966   -10137.327   -8993.7772   -747.38652     102002.7      46.7237      46.7237      46.7237 
  359000    127.53379   -10154.168   -9028.1522   -831.48827     102002.7      46.7237      46.7237      46.7237 
  360000    126.82748     -10183.3     -9063.52   -680.97694     102002.7      46.7237      46.7237      46.7237 
  361000    129.65569   -10179.418   -9034.6673   -870.96342     102002.7      46.7237      46.7237      46.7237 
  362000    130.44828     -10167.9   -9016.1511   -1000.1155     102002.7      46.7237      46.7237      46.7237 
  363000    129.03863   -10181.872   -9042.5692   -645.58571     102002.7      46.7237      46.7237      46.7237 
  364000    135.86682   -10134.109   -8934.5194   -648.70354     102002.7      46.7237      46.7237      46.7237 
  365000    127.77117   -10190.337   -9062.2248   -901.10969     102002.7      46.7237      46.7237      46.7237 
  366000    129.07488   -10169.402   -9029.7792   -875.61709     102002.7      46.7237      46.7237      46.7237 
  367000    131.90766   -10154.863   -8990.2292   -828.81727     102002.7      46.7237      46.7237      46.7237 
  368000    131.14932   -10174.312   -9016.3736   -747.14906     102002.7      46.7237      46.7237      46.7237 
  369000    130.97161   -10171.196   -9014.8266   -900.66804     102002.7      46.7237      46.7237      46.7237 
  370000    130.17064   -10158.495    -9009.198   -728.22094     102002.7      46.7237      46.7237      46.7237 
  371000     128.4643   -10173.464   -9039.2321    -1079.474     102002.7      46.7237      46.7237      46.7237 
  372000    127.50614   -10175.663   -9049.8913   -666.89826     102002.7      46.7237      46.7237      46.7237 
  373000    130.62423   -10184.926   -9031.6238   -728.96538     102002.7      46.7237      46.7237      46.7237 
  374000    127.91667   -10171.135   -9041.7382   -886.91958     102002.7      46.7237      46.7237      46.7237 
  375000    131.10597   -10169.896   -9012.3401   -754.16384     102002.7      46.7237      46.7237      46.7237 
  376000    126.61833   -10147.836   -9029.9024    -1044.045     102002.7      46.7237      46.7237      46.7237 
  377000    131.74812   -10163.014   -8999.7887   -880.90586     102002.7      46.7237      46.7237      46.7237 
  378000     128.5053   -10173.184   -9038.5897   -986.01443     102002.7      46.7237      46.7237      46.7237 
  379000    131.65343   -10194.614   -9032.2246   -1132.6458     102002.7      46.7237      46.7237      46.7237 
  380000    129.30903   -10152.806   -9011.1164   -902.23901     102002.7      46.7237      46.7237      46.7237 
  381000    130.07031   -10199.111   -9050.6992   -773.40367     102002.7      46.7237      46.7237      46.7237 
  382000    129.61699   -10197.586   -9053.1767   -925.28216     102002.7      46.7237      46.7237      46.7237 
  383000    126.77742   -10192.607   -9073.2694   -1022.1694     102002.7      46.7237      46.7237      46.7237 
  384000    126.88556   -10158.758   -9038.4656   -944.16117     102002.7      46.7237      46.7237      46.7237 
  385000    128.06333   -10183.768   -9053.0762   -624.67199     102002.7      46.7237      46.7237      46.7237 
  386000    130.57623    -10165.49   -9012.6119   -858.47842     102002.7      46.7237      46.7237      46.7237 
  387000    129.13552   -10158.342   -9018.1837   -1152.8502     102002.7      46.7237      46.7237      46.7237 
  388000    131.79422   -10178.212   -9014.5796   -1028.1085     102002.7      46.7237      46.7237      46.7237 
  389000    131.40853   -10159.722   -8999.4948   -849.43927     102002.7      46.7237      46.7237      46.7237 
  390000    129.25312   -10190.662   -9049.4655   -646.57563     102002.7      46.7237      46.7237      46.7237 
  391000    132.32942   -10168.296   -8999.9386   -836.40979     102002.7      46.7237      46.7237      46.7237 
  392000    130.26276   -10170.154   -9020.0435   -663.63951     102002.7      46.7237      46.7237      46.7237 
  393000    131.68716   -10172.676   -9009.9889   -906.39456     102002.7      46.7237      46.7237      46.7237 
  394000    127.97183   -10173.681   -9043.7974   -1093.2751     102002.7      46.7237      46.7237      46.7237 
  395000    130.36363   -10165.182   -9014.1803   -1048.7787     102002.7      46.7237      46.7237      46.7237 
  396000     130.5323   -10141.853    -8989.363    -940.0222     102002.7      46.7237      46.7237      46.7237 
  397000    129.18196   -10144.889   -9004.3211   -1033.0244     102002.7      46.7237      46.7237      46.7237 
  398000    129.69422   -10150.168   -9005.0773    -887.2617     102002.7      46.7237      46.7237      46.7237 
  399000    129.22476   -10168.342   -9027.3957   -1203.9047     102002.7      46.7237      46.7237      46.7237 
  400000    129.20433   -10174.144   -9033.3785   -750.50571     102002.7      46.7237      46.7237      46.7237 
  401000    128.45056   -10193.616   -9059.5058   -723.09668     102002.7      46.7237      46.7237      46.7237 
  402000     129.6788    -10165.75   -9020.7954   -730.80606     102002.7      46.7237      46.7237      46.7237 
  403000    131.61634   -10180.674   -9018.6119   -1004.6781     102002.7      46.7237      46.7237      46.7237 
  404000    129.97443   -10185.397   -9037.8317   -1094.5207     102002.7      46.7237      46.7237      46.7237 
  405000    131.79758   -10173.524    -9009.862   -521.68574     102002.7      46.7237      46.7237      46.7237 
  406000    125.57194   -10170.245   -9061.5506   -875.32535     102002.7      46.7237      46.7237      46.7237 
  407000    131.34737    -10198.42   -9038.7337   -1038.7706     102002.7      46.7237      46.7237      46.7237 
  408000    131.73783   -10189.826   -9026.6922   -849.17425     102002.7      46.7237      46.7237      46.7237 
  409000    130.14117   -10145.087   -8996.0495   -888.60508     102002.7      46.7237      46.7237      46.7237 
  410000    127.35722   -10168.243   -9043.7856   -726.46407     102002.7      46.7237      46.7237      46.7237 
  411000     128.6997   -10184.339   -9048.0285   -745.41245     102002.7      46.7237      46.7237      46.7237 
  412000    131.51948   -10179.559   -9018.3525   -1303.7119     102002.7      46.7237      46.7237      46.7237 
  413000    130.90285   -10163.732   -9007.9697   -758.81538     102002.7      46.7237      46.7237      46.7237 
  414000    126.55811   -10169.499   -9052.0977   -1049.8169     102002.7      46.7237      46.7237      46.7237 
  415000    128.99517   -10160.161   -9021.2426   -860.18366     102002.7      46.7237      46.7237      46.7237 
  416000    128.91189    -10189.43   -9051.2464   -703.92754     102002.7      46.7237      46.7237      46.7237 
  417000    129.43596   -10182.372    -9039.561   -956.93247     102002.7      46.7237      46.7237      46.7237 
  418000    129.33019   -10138.575   -8996.6979   -781.03874     102002.7      46.7237      46.7237      46.7237 
  419000    129.66809   -10179.485   -9034.6247   -644.96806     102002.7      46.7237      46.7237      46.7237 
  420000    130.39423   -10217.151   -9065.8791   -590.76308     102002.7      46.7237      46.7237      46.7237 
  421000    129.32522   -10177.452   -9035.6192   -620.89146     102002.7      46.7237      46.7237      46.7237 
  422000     132.0775     -10171.4   -9005.2666   -775.76849     102002.7      46.7237      46.7237      46.7237 
  423000    129.21951   -10155.727   -9014.8272   -780.20156     102002.7      46.7237      46.7237      46.7237 
  424000     131.1554   -10142.559   -8984.5672    -896.0751     102002.7      46.7237      46.7237      46.7237 
  425000    134.49393   -10186.609   -8999.1407    -1082.343     102002.7      46.7237      46.7237      46.7237 
  426000    132.18875   -10187.418   -9020.3028   -632.69659     102002.7      46.7237      46.7237      46.7237 
  427000    131.36005   -10185.404   -9025.6054   -579.28041     102002.7      46.7237      46.7237      46.7237 
  428000    130.45664   -10204.786   -9052.9634   -1010.4186     102002.7      46.7237      46.7237      46.7237 
  429000    131.18179   -10162.112   -9003.8875   -621.63817     102002.7      46.7237      46.7237      46.7237 
  430000    127.65577   -10191.461   -9064.3674   -614.23749     102002.7      46.7237      46.7237      46.7237 
  431000    127.69324    -10166.32    -9038.896   -874.88778     102002.7      46.7237      46.7237      46.7237 
  432000    131.27861   -10167.563   -9008.4835   -889.85817     102002.7      46.7237      46.7237      46.7237 
  433000    130.07268   -10179.737    -9031.305   -833.20904     102002.7      46.7237      46.7237      46.7237 
  434000    130.41587   -10184.267   -9032.8048   -582.90309     102002.7      46.7237      46.7237      46.7237 
  435000    127.18375   -10173.438   -9050.5125    -996.6651     102002.7      46.7237      46.7237      46.7237 
  436000    131.89316   -10143.875   -8979.3692      -886.15     102002.7      46.7237      46.7237      46.7237 
  437000    133.08829   -10184.248   -9009.1901   -880.81244     102002.7      46.7237      46.7237      46.7237 
  438000    128.34237   -10200.769   -9067.6139   -1092.1268     102002.7      46.7237      46.7237      46.7237 
  439000    130.43542   -10178.794   -9027.1593   -790.16499     102002.7      46.7237      46.7237      46.7237 
  440000    131.17428   -10175.391   -9017.2327   -986.27588     102002.7      46.7237      46.7237      46.7237 
  441000    131.76949   -10175.585   -9012.1716   -617.74331     102002.7      46.7237      46.7237      46.7237 
  442000     128.8939   -10186.848   -9048.8231   -732.95315     102002.7      46.7237      46.7237      46.7237 
  443000    130.49329    -10187.33   -9035.1843   -946.49448     102002.7      46.7237      46.7237      46.7237 
  444000    130.81138   -10202.757   -9047.8028   -522.64669     102002.7      46.7237      46.7237      46.7237 
  445000    129.87418    -10190.24   -9043.5602   -871.78184     102002.7      46.7237      46.7237      46.7237 
  446000    133.63492   -10194.972   -9015.0884   -980.99221     102002.7      46.7237      46.7237      46.7237 
  447000    125.76835   -10163.506   -9053.0769   -972.88911     102002.7      46.7237      46.7237      46.7237 
  448000    130.93012   -10185.621   -9029.6186   -1021.8094     102002.7      46.7237      46.7237      46.7237 
  449000    131.58275   -10167.302   -9005.5371   -383.68347     102002.7      46.7237      46.7237      46.7237 
  450000    126.82942   -10163.411   -9043.6141   -423.54269     102002.7      46.7237      46.7237      46.7237 
  451000    127.14791   -10178.658   -9056.0491   -742.59943     102002.7      46.7237      46.7237      46.7237 
  452000    128.57066   -10172.405   -9037.2343   -921.69928     102002.7      46.7237      46.7237      46.7237 
  453000    130.38772   -10164.618   -9013.4037   -966.98686     102002.7      46.7237      46.7237      46.7237 
  454000    132.53841   -10157.085   -8986.8822   -670.01438     102002.7      46.7237      46.7237      46.7237 
  455000    130.57653   -10146.129   -8993.2475   -682.50786     102002.7      46.7237      46.7237      46.7237 
  456000    131.12381   -10186.045   -9028.3317    -761.1267     102002.7      46.7237      46.7237      46.7237 
  457000    126.13202    -10198.64   -9085.0006   -704.53796     102002.7      46.7237      46.7237      46.7237 
  458000    130.15543   -10172.546   -9023.3826   -894.02449     102002.7      46.7237      46.7237      46.7237 
  459000     127.8105   -10175.151   -9046.6918   -1098.9971     102002.7      46.7237      46.7237      46.7237 
  460000    135.25902   -10168.202   -8973.9784   -591.37321     102002.7      46.7237      46.7237      46.7237 
  461000    125.58831   -10163.949   -9055.1098   -767.42011     102002.7      46.7237      46.7237      46.7237 
  462000    131.46506    -10157.76   -8997.0339   -752.95803     102002.7      46.7237      46.7237      46.7237 
  463000    132.39254   -10183.613   -9014.6985   -616.18753     102002.7      46.7237      46.7237      46.7237 
  464000    130.02307   -10182.986   -9034.9918   -469.60528     102002.7      46.7237      46.7237      46.7237 
  465000    126.86719   -10166.025   -9045.8942   -500.68396     102002.7      46.7237      46.7237      46.7237 
  466000    133.09577   -10160.772   -8985.6483   -726.18642     102002.7      46.7237      46.7237      46.7237 
  467000     130.4318    -10168.29   -9016.6865    -833.2642     102002.7      46.7237      46.7237      46.7237 
  468000    130.09033   -10176.734    -9028.146   -732.05137     102002.7      46.7237      46.7237      46.7237 
  469000    132.20703   -10183.695   -9016.4181   -450.70112     102002.7      46.7237      46.7237      46.7237 
  470000    128.00181   -10151.959   -9021.8103   -940.79505     102002.7      46.7237      46.7237      46.7237 
  471000    130.02517   -10172.775   -9024.7616   -1014.6039     102002.7      46.7237      46.7237      46.7237 
  472000    132.55117   -10177.084   -9006.7689   -800.47357     102002.7      46.7237      46.7237      46.7237 
  473000    133.67238   -10177.375   -8997.1598   -1426.3565     102002.7      46.7237      46.7237      46.7237 
  474000    130.18537   -10157.094   -9007.6663   -844.94082     102002.7      46.7237      46.7237      46.7237 
  475000    133.34713   -10167.573   -8990.2304   -551.85529     102002.7      46.7237      46.7237      46.7237 
  476000    130.74348   -10167.914   -9013.5587   -702.75231     102002.7      46.7237      46.7237      46.7237 
  477000    127.96491   -10177.099   -9047.2769   -494.31284     102002.7      46.7237      46.7237      46.7237 
  478000    131.61265   -10161.112   -8999.0825   -918.09677     102002.7      46.7237      46.7237      46.7237 
  479000    130.34286    -10161.51    -9010.692   -1158.3202     102002.7      46.7237      46.7237      46.7237 
  480000    130.03387   -10194.512   -9046.4218   -500.36587     102002.7      46.7237      46.7237      46.7237 
  481000    129.00207    -10156.81   -9017.8302   -737.99194     102002.7      46.7237      46.7237      46.7237 
  482000    128.94766   -10159.684   -9021.1841   -879.45912     102002.7      46.7237      46.7237      46.7237 
  483000    130.82594   -10170.093   -9015.0102   -879.19849     102002.7      46.7237      46.7237      46.7237 
  484000    129.69886   -10172.233   -9027.1015   -1099.9697     102002.7      46.7237      46.7237      46.7237 
  485000    130.38269   -10180.242   -9029.0722   -662.94894     102002.7      46.7237      46.7237      46.7237 
  486000    129.73936   -10156.454   -9010.9644   -927.40415     102002.7      46.7237      46.7237      46.7237 
  487000    130.02428   -10194.948   -9046.9432   -965.41841     102002.7      46.7237      46.7237      46.7237 
  488000    128.64477   -10181.704   -9045.8783   -685.59933     102002.7      46.7237      46.7237      46.7237 
  489000    129.49609   -10183.438   -9040.0968   -913.26122     102002.7      46.7237      46.7237      46.7237 
  490000    130.85994   -10169.523   -9014.1398   -647.03851     102002.7      46.7237      46.7237      46.7237 
  491000    132.54529   -10167.815   -8997.5518   -757.80645     102002.7      46.7237      46.7237      46.7237 
  492000    133.71997   -10137.733   -8957.0984   -787.76745     102002.7      46.7237      46.7237      46.7237 
  493000    130.56832    -10189.69   -9036.8811   -887.38057     102002.7      46.7237      46.7237      46.7237 
  494000    128.66443   -10173.024   -9037.0255   -778.75307     102002.7      46.7237      46.7237      46.7237 
  495000    130.49133   -10178.009   -9025.8806   -772.42583     102002.7      46.7237      46.7237      46.7237 
  496000    130.69528    -10161.33   -9007.4006    -473.5722     102002.7      46.7237      46.7237      46.7237 
  497000    131.23875   -10182.328   -9023.6005   -830.47544     102002.7      46.7237      46.7237      46.7237 
  498000    127.35168   -10196.592   -9072.1836   -670.62506     102002.7      46.7237      46.7237      46.7237 
  499000    129.49952   -10163.468   -9020.0966   -682.16878     102002.7      46.7237      46.7237      46.7237 
  500000    130.52098   -10153.232   -9000.8411   -653.60921     102002.7      46.7237      46.7237      46.7237 
  500500    133.66616   -10167.382   -8987.2217   -960.34331     102002.7      46.7237      46.7237      46.7237 
Loop time of 1848.42 on 16 procs for 500000 steps with 2963 atoms

Performance: 23.371 ns/day, 1.027 hours/ns, 270.501 timesteps/s
99.8% CPU use with 16 MPI tasks x no OpenMP threads

MPI task timing breakdown:
Section |  min time  |  avg time  |  max time  |%varavg| %total
---------------------------------------------------------------
Pair    | 705.69     | 1060.5     | 1404.4     | 850.2 | 57.37
Bond    | 123.74     | 174.26     | 223.02     | 324.9 |  9.43
Neigh   | 16.321     | 16.348     | 16.381     |   0.4 |  0.88
Comm    | 190.76     | 580.87     | 969.9      |1316.9 | 31.43
Output  | 0.021378   | 0.021906   | 0.025399   |   0.6 |  0.00
Modify  | 8.7181     | 9.8398     | 10.52      |  18.9 |  0.53
Other   |            | 6.575      |            |       |  0.36

Nlocal:    185.188 ave 217 max 141 min
Histogram: 1 1 0 1 1 4 3 3 0 2
Nghost:    3765.19 ave 3807 max 3732 min
Histogram: 2 1 1 2 4 1 3 0 1 1
Neighs:    11453.7 ave 18115 max 4868 min
Histogram: 2 1 1 4 0 1 2 2 1 2

Total # of neighbors = 183259
Ave neighs/atom = 61.8491
Ave special neighs/atom = 3.88795
Neighbor list builds = 5217
Dangerous builds = 0
Neighbor list info ...
  update every 1 steps, delay 10 steps, check yes
  max neighbors/atom: 2000, page size: 100000
  master list distance cutoff = 16
  ghost atom cutoff = 16
  binsize = 8, bins = 6 6 6
  3 neighbor lists, perpetual/occasional/extra = 3 0 0
  (1) pair buck6d/coul/gauss/dsf, perpetual, skip from (3)
      attributes: half, newton on
      pair build: skip
      stencil: none
      bin: none
  (2) pair lj/cut, perpetual, skip from (3)
      attributes: half, newton on
      pair build: skip
      stencil: none
      bin: none
  (3) neighbor class addition, perpetual
      attributes: half, newton on
      pair build: half/bin/newton
      stencil: half/bin/3d/newton
      bin: standard
Setting up Verlet run ...
  Unit style    : real
  Current step  : 500500
  Time step     : 1
WARNING: Inconsistent image flags (../domain.cpp:786)
Per MPI rank memory allocation (min/avg/max) = 22.77 | 23.27 | 23.42 Mbytes
Step Time TotEng KinEng PotEng E_mol E_pair Temp Pxx Pyy Pzz Pxy Pxz Pyz Cella Cellb Cellc CellAlpha CellBeta CellGamma Volume Press 
  500500       500000   -8987.2217    1180.1599   -10167.382    4374.8196   -14542.201    133.66616   -1118.6497   -774.72398   -987.65627   -161.74394    12.933141    203.94942      46.7237      46.7237      46.7237           90           90           90     102002.7   -960.34331 
  501000       500500   -9009.1452    1176.9783   -10186.123    4366.9969    -14553.12    133.30581   -857.64583   -599.37275    -946.4824    102.34727    96.852771   -201.27109      46.7237      46.7237      46.7237           90           90           90     102002.7   -801.16699 
  502000       501500    -9042.205    1140.9803   -10183.185     4389.054   -14572.239    129.22865   -879.36073   -960.25695   -1044.5632    126.93705    3.7932711    1.5976195      46.7237      46.7237      46.7237           90           90           90     102002.7   -961.39364 
  503000       502500   -8984.5849     1144.028   -10128.613    4417.5326   -14546.146    129.57383   -696.66791   -989.19718   -475.08437    196.86118    242.66588    177.02978      46.7237      46.7237      46.7237           90           90           90     102002.7   -720.31649 
  504000       503500   -9039.9154    1155.2607   -10195.176    4356.5791   -14551.755    130.84606   -665.06173   -1308.2201   -1039.8755    198.70277   -95.732194   -324.01647      46.7237      46.7237      46.7237           90           90           90     102002.7   -1004.3858 
  505000       504500   -8997.1547     1169.859   -10167.014    4369.5504   -14536.564    132.49948   -531.90714   -808.72167   -358.35919    50.679257    105.54809    190.98595      46.7237      46.7237      46.7237           90           90           90     102002.7   -566.32933 
  506000       505500    -9026.534    1138.7229   -10165.257    4398.0313   -14563.288    128.97297   -806.87426   -980.34808   -454.14462   -210.99227    90.021913    96.202277      46.7237      46.7237      46.7237           90           90           90     102002.7   -747.12232 
  507000       506500   -9008.2342    1159.2992   -10167.533    4390.5956   -14558.129    131.30346   -1158.1823   -1269.2786   -831.66684    31.963112   -243.39642    113.90264      46.7237      46.7237      46.7237           90           90           90     102002.7   -1086.3759 
  508000       507500   -9044.8193    1136.3947   -10181.214    4388.5233   -14569.737    128.70928     -673.078    -834.7987   -902.40189    292.57175   -287.28108    98.238604      46.7237      46.7237      46.7237           90           90           90     102002.7    -803.4262 
  509000       508500   -8995.6154     1158.285     -10153.9    4385.3874   -14539.288     131.1886   -603.11621   -449.64319   -944.63795    191.05987    -75.54424      48.0779      46.7237      46.7237      46.7237           90           90           90     102002.7   -665.79912 
  510000       509500   -9035.8572    1160.6689   -10196.526     4379.369   -14575.895     131.4586   -518.29466    -730.1856   -730.86573    90.613416    248.40914    187.17337      46.7237      46.7237      46.7237           90           90           90     102002.7     -659.782 
  511000       510500   -9027.4156    1143.5673   -10170.983    4384.6338   -14555.617    129.52165   -1159.8668   -432.71284   -895.60384     72.40764    -1.457378    93.371067      46.7237      46.7237      46.7237           90           90           90     102002.7   -829.39449 
  512000       511500   -8991.0331    1173.2214   -10164.254     4402.369   -14566.624     132.8803   -806.12173   -918.66664   -678.29431   -187.94814   -126.50093   -148.32496      46.7237      46.7237      46.7237           90           90           90     102002.7   -801.02756 
  513000       512500   -9019.3521    1147.5358   -10166.888    4389.1746   -14556.062    129.97113   -950.76519    -766.3874   -1071.1687   -242.55622   -159.84496    147.56634      46.7237      46.7237      46.7237           90           90           90     102002.7   -929.44042 
  514000       513500   -9051.5347    1149.4342   -10200.969     4374.397   -14575.366    130.18614   -1115.7021   -797.59341   -1151.3756   -143.27949   -16.621859   -114.16322      46.7237      46.7237      46.7237           90           90           90     102002.7    -1021.557 
  515000       514500   -9024.0631    1144.3571    -10168.42      4386.53    -14554.95    129.61111   -737.40082   -508.13772   -785.28013    116.65198   -71.252839    103.02642      46.7237      46.7237      46.7237           90           90           90     102002.7   -676.93956 
  516000       515500     -9030.18    1142.6057   -10172.786    4368.4357   -14541.221    129.41274   -1346.2517   -1017.8092   -1047.7151   -246.90489   -139.71243   -26.967225      46.7237      46.7237      46.7237           90           90           90     102002.7   -1137.2587 
  517000       516500   -9044.0028    1124.4217   -10168.424    4394.9813   -14563.406     127.3532   -952.16344   -1230.4996   -606.32659    103.42325    33.194891   -30.740926      46.7237      46.7237      46.7237           90           90           90     102002.7    -929.6632 
  518000       517500   -9040.2476    1132.2738   -10172.521    4390.7435   -14563.265    128.24254   -1165.7764    -1052.223   -877.96229   -13.881786   -22.398431   -161.53224      46.7237      46.7237      46.7237           90           90           90     102002.7   -1031.9872 
  519000       518500   -9076.1198    1133.7127   -10209.832    4373.9725   -14583.805    128.40551   -896.44701   -724.82317   -238.29114    196.34352    17.494393   -215.63103      46.7237      46.7237      46.7237           90           90           90     102002.7   -619.85378 
  520000       519500   -9001.2528    1156.5256   -10157.778     4392.113   -14549.891    130.98932   -807.87174   -924.25922   -726.89335    322.25691     20.41054     194.7497      46.7237      46.7237      46.7237           90           90           90     102002.7   -819.67477 
  521000       520500   -9008.8887    1164.2897   -10173.178    4399.6955   -14572.874    131.86869   -914.19965   -1451.6326   -1057.4744   -392.22954     83.67868   -200.86938      46.7237      46.7237      46.7237           90           90           90     102002.7   -1141.1022 
  522000       521500   -9019.4748    1144.5465   -10164.021    4377.5657   -14541.587    129.63255   -1153.0344   -963.54809   -980.02991    124.76312    82.222407   -91.875554      46.7237      46.7237      46.7237           90           90           90     102002.7   -1032.2041 
  523000       522500   -9041.6577    1133.5148   -10175.173    4376.1565   -14551.329     128.3831    -1280.462   -1275.5301   -597.80557   -114.03435   -20.700816    4.4479158      46.7237      46.7237      46.7237           90           90           90     102002.7   -1051.2659 
  524000       523500   -8991.1874    1172.9165   -10164.104    4398.6708   -14562.775    132.84577   -1046.0379   -582.57276   -1000.2851   -104.46721    -39.77887   -22.048922      46.7237      46.7237      46.7237           90           90           90     102002.7   -876.29859 
  525000       524500   -9091.6956    1089.1752   -10180.871    4367.0466   -14547.917    123.36115   -976.66983   -1275.2721   -936.05738    19.965767   -7.1734967    -156.3107      46.7237      46.7237      46.7237           90           90           90     102002.7   -1062.6664 
  526000       525500   -9000.2881    1153.7351   -10154.023    4372.6093   -14526.632    130.67327   -1174.2055   -539.52835   -1186.7558    126.04488    332.08509    247.70124      46.7237      46.7237      46.7237           90           90           90     102002.7   -966.82987 
  527000       526500    -8997.374    1181.6208   -10178.995    4368.2091   -14547.204    133.83164   -646.41727   -973.09556   -1183.9735    315.69045     43.23396    151.15164      46.7237      46.7237      46.7237           90           90           90     102002.7   -934.49544 
  528000       527500   -9033.7515    1125.9448   -10159.696    4388.3537    -14548.05     127.5257   -953.08424   -939.10839   -1243.6918    -175.8995   -212.35696    166.87943      46.7237      46.7237      46.7237           90           90           90     102002.7   -1045.2948 
  529000       528500   -8981.4793     1185.277   -10166.756    4389.6447   -14556.401    134.24574   -919.45254   -652.42519   -210.94747    160.15102   -64.400474    12.651659      46.7237      46.7237      46.7237           90           90           90     102002.7   -594.27507 
  530000       529500   -9015.1612     1174.393   -10189.554    4373.3457     -14562.9    133.01301   -893.48099   -1048.6259   -908.64675    118.79249   -50.076298   -168.55512      46.7237      46.7237      46.7237           90           90           90     102002.7    -950.2512 
  531000       530500     -9024.25    1142.4849   -10166.735    4399.9526   -14566.687    129.39905   -920.19929   -1197.6469   -655.00773   -59.648773    101.47764   -87.241758      46.7237      46.7237      46.7237           90           90           90     102002.7   -924.28463 
  532000       531500    -9009.645     1146.429   -10156.074    4397.2027   -14553.277    129.84577   -812.01019   -982.69131   -960.11466    259.20366   -36.525663    96.787139      46.7237      46.7237      46.7237           90           90           90     102002.7   -918.27205 
  533000       532500   -8992.1253    1176.8717   -10168.997     4381.488   -14550.485    133.29375   -856.61587   -686.77693   -837.75235    35.748688    98.631256    101.72507      46.7237      46.7237      46.7237           90           90           90     102002.7   -793.71505 
  534000       533500   -9041.7502    1129.7022   -10171.452    4416.0426   -14587.495    127.95128   -628.89706    -1185.813    -851.8153    -177.0984     17.97073   -254.16162      46.7237      46.7237      46.7237           90           90           90     102002.7    -888.8418 
  535000       534500   -9021.2116    1151.5965   -10172.808    4389.2675   -14562.076    130.43105   -830.46721   -930.84326    -1141.618   -36.454382   -169.69324   -40.467337      46.7237      46.7237      46.7237           90           90           90     102002.7   -967.64281 
  536000       535500   -9014.8524     1171.623   -10186.475    4364.4862   -14550.962    132.69927   -1382.5529    -634.6635   -704.23059   -86.168329   -375.05438    236.54414      46.7237      46.7237      46.7237           90           90           90     102002.7     -907.149 
  537000       536500   -9037.9826    1152.9778    -10190.96    4370.8947   -14561.855     130.5875   -886.30666   -1389.9667   -1089.2025   -65.903969    122.08016    349.93314      46.7237      46.7237      46.7237           90           90           90     102002.7   -1121.8253 
  538000       537500   -9028.6337    1176.2386   -10204.872    4353.2051   -14558.077    133.22204   -920.82764   -919.96144   -1042.5714    215.01186    30.160636    123.14964      46.7237      46.7237      46.7237           90           90           90     102002.7   -961.12016 
  539000       538500   -9003.6539    1150.6971   -10154.351    4392.3953   -14546.746    130.32918    -636.0681   -772.25367   -901.94942      129.479   -349.94345   -187.03696      46.7237      46.7237      46.7237           90           90           90     102002.7    -770.0904 
  540000       539500   -9067.0048    1116.5778   -10183.583    4372.1516   -14555.734    126.46479   -1181.4128   -798.83941   -1012.8972   -102.25995    16.948292    138.90862      46.7237      46.7237      46.7237           90           90           90     102002.7   -997.71647 
  541000       540500   -9022.1204     1136.557   -10158.677     4383.633    -14542.31    128.72766   -1309.3193   -1455.8919   -916.47572    91.600174    74.638137    171.32906      46.7237      46.7237      46.7237           90           90           90     102002.7    -1227.229 
  542000       541500   -8968.1271    1192.2754   -10160.403    4367.0675    -14527.47    135.03838    -1350.455   -456.31608   -983.94195   -146.35639   -188.76895    -88.59522      46.7237      46.7237      46.7237           90           90           90     102002.7   -930.23767 
  543000       542500   -8995.6343    1171.8806   -10167.515    4348.9233   -14516.438    132.72845   -1051.9803   -1249.7973   -937.82395    -290.3491    131.91108    207.92116      46.7237      46.7237      46.7237           90           90           90     102002.7   -1079.8672 
  544000       543500   -8963.1904    1168.3752   -10131.566    4403.6689   -14535.234    132.33142   -1230.0567   -586.77142    -497.3797     132.3178    211.58149    111.74106      46.7237      46.7237      46.7237           90           90           90     102002.7   -771.40261 
  545000       544500   -9038.5666    1128.4124   -10166.979    4400.4348   -14567.414     127.8052   -781.91182   -1393.7279   -895.19479    35.054111    117.11509    73.950652      46.7237      46.7237      46.7237           90           90           90     102002.7   -1023.6115 
  546000       545500   -9027.8092    1122.6014   -10150.411    4389.1656   -14539.576    127.14703    -957.4643   -401.55622   -630.66544   -300.43145   -71.704834   -27.747048      46.7237      46.7237      46.7237           90           90           90     102002.7   -663.22866 
  547000       546500   -8995.9694    1169.9127   -10165.882    4382.1842   -14548.066    132.50556   -346.60794   -1206.3415   -935.84251    28.110183    159.08566    134.58958      46.7237      46.7237      46.7237           90           90           90     102002.7   -829.59732 
  548000       547500   -9026.5277    1140.4193   -10166.947    4379.1118   -14546.059    129.16511   -277.83396   -725.26306   -1133.8621    239.52073    -9.267946   -192.42474      46.7237      46.7237      46.7237           90           90           90     102002.7   -712.31969 
  549000       548500   -8985.0655    1161.9994   -10147.065    4385.6095   -14532.674    131.60929   -1223.6378   -1187.3681   -1192.7545   -78.891471    37.854088   -240.54954      46.7237      46.7237      46.7237           90           90           90     102002.7   -1201.2535 
  550000       549500   -8990.2856     1139.956   -10130.242    4404.8955   -14535.137    129.11263    -511.4727   -1008.8777   -742.93412    113.62382    4.4574237    -226.8617      46.7237      46.7237      46.7237           90           90           90     102002.7   -754.42817 
  551000       550500   -9000.8841    1157.7683   -10158.652    4383.5282   -14542.181    131.13007   -915.66733   -666.84952   -827.60389    37.861055    61.099743    106.30396      46.7237      46.7237      46.7237           90           90           90     102002.7   -803.37358 
  552000       551500   -9053.8424     1149.761   -10203.603    4354.8753   -14558.479    130.22315   -647.55326   -1153.8564    -505.0298   -55.961401   -35.570976   -41.491365      46.7237      46.7237      46.7237           90           90           90     102002.7   -768.81316 
  553000       552500   -9006.7723    1156.3175    -10163.09    4383.9433   -14547.033    130.96576    -782.0899   -297.23422   -1012.1275     -361.062   -29.220069   -200.76871      46.7237      46.7237      46.7237           90           90           90     102002.7   -697.15053 
  554000       553500   -9017.0651    1142.5109   -10159.576    4385.6891   -14545.265      129.402   -530.65313   -532.55392   -473.31368    59.980187   -75.170687    296.98492      46.7237      46.7237      46.7237           90           90           90     102002.7   -512.17358 
  555000       554500   -8981.6386    1188.5007   -10170.139    4365.2478   -14535.387    134.61086   -1231.7744   -344.58781   -1385.2945   -101.40804    31.179496   -20.157509      46.7237      46.7237      46.7237           90           90           90     102002.7   -987.21891 
[...]
  936000       935500    -9018.003    1152.9681   -10170.971     4386.494   -14557.465     130.5864   -472.21276   -426.15552   -696.11943    239.28065    164.41409   -341.86564      46.7237      46.7237      46.7237           90           90           90     102002.7   -531.49591 
  937000       936500   -8973.4285    1159.0304   -10132.459    4398.2826   -14530.741    131.27301   -776.24937   -769.02576   -796.80067     83.99308   -96.749652   -14.635259      46.7237      46.7237      46.7237           90           90           90     102002.7   -780.69194 
  938000       937500   -9014.9268    1144.4081   -10159.335    4399.7586   -14559.094    129.61688   -1303.6847   -763.52643   -647.59733   -2.0621258   -77.877022   -195.70159      46.7237      46.7237      46.7237           90           90           90     102002.7   -904.93614 
  939000       938500   -9031.9278    1158.6839   -10190.612    4371.7998   -14562.412    131.23377   -806.44562   -762.58482   -1469.3491     279.0082   -78.233044   -277.97088      46.7237      46.7237      46.7237           90           90           90     102002.7   -1012.7932 
  940000       939500   -8973.9422    1176.6729   -10150.615    4388.4812   -14539.096    133.27123   -895.41577   -344.40429   -831.53576    75.296317   -127.85332    46.049933      46.7237      46.7237      46.7237           90           90           90     102002.7   -690.45194 
  941000       940500    -9041.234    1129.7936   -10171.028     4377.488   -14548.516    127.96163   -1050.3565   -780.74329   -475.01836    128.17669   -218.54332   -27.859307      46.7237      46.7237      46.7237           90           90           90     102002.7   -768.70606 
  942000       941500   -9013.8769    1153.0612   -10166.938     4377.381   -14544.319    130.59694    -749.8751   -616.53948   -1416.0565    -247.1102   -227.36112   -110.30549      46.7237      46.7237      46.7237           90           90           90     102002.7   -927.49036 
  943000       942500   -8997.9727    1161.1782   -10159.151    4382.4454   -14541.596    131.51628   -1067.6064   -1445.6163   -697.81943    314.40962   -91.499981   -73.213799      46.7237      46.7237      46.7237           90           90           90     102002.7   -1070.3474 
  944000       943500   -9013.3757    1142.9126   -10156.288    4378.4826   -14534.771     129.4475   -1173.3007    142.04704   -672.70331    64.424674    64.990473   -41.488445      46.7237      46.7237      46.7237           90           90           90     102002.7   -567.98567 
  945000       944500   -8999.6848     1142.729   -10142.414    4380.7454   -14523.159     129.4267   -842.28493   -252.68296    -266.8511   -117.23684    46.519261    130.51801      46.7237      46.7237      46.7237           90           90           90     102002.7   -453.93966 
  946000       945500   -9052.8844    1119.5872   -10172.472    4365.2683    -14537.74    126.80564   -758.41564   -375.11579   -633.35285   -131.78358    208.31694    168.30986      46.7237      46.7237      46.7237           90           90           90     102002.7   -588.96143 
  947000       946500   -9039.4649    1122.5906   -10162.055    4395.9598   -14558.015    127.14581   -880.03901   -269.65511   -781.02097    52.942729   -16.454111   -144.36841      46.7237      46.7237      46.7237           90           90           90     102002.7    -643.5717 
  948000       947500   -9013.7712    1163.9585    -10177.73    4390.4525   -14568.182    131.83118   -883.68766     -479.244   -941.20469   -5.7162675    -126.4837    17.873966      46.7237      46.7237      46.7237           90           90           90     102002.7   -768.04545 
  949000       948500   -9091.6218    1111.0762   -10202.698    4363.1016     -14565.8    125.84167   -354.59058   -1323.5506   -774.80817   -11.689687    34.938258   -490.61633      46.7237      46.7237      46.7237           90           90           90     102002.7   -817.64978 
  950000       949500   -9021.6561    1172.4309   -10194.087    4353.9016   -14547.989    132.79078   -297.24216   -942.35746   -172.54432    4.3733258    428.72211   -178.91774      46.7237      46.7237      46.7237           90           90           90     102002.7   -470.71465 
  951000       950500   -9058.5051    1140.9626   -10199.468    4352.2772   -14551.745    129.22664   -294.53015   -1243.4454    -694.1394    15.844575   -97.256737    178.00947      46.7237      46.7237      46.7237           90           90           90     102002.7   -744.03833 
  952000       951500   -8994.2761    1161.2504   -10155.526    4392.3411   -14547.868    131.52446   -854.33487   -521.24449   -771.91147   -155.99109   -208.98025   -132.27381      46.7237      46.7237      46.7237           90           90           90     102002.7   -715.83028 
  953000       952500   -9030.3751    1153.0065   -10183.382    4379.3649   -14562.747    130.59074   -740.42879   -882.95505   -510.37207   -179.34168   -88.659452   -187.48098      46.7237      46.7237      46.7237           90           90           90     102002.7   -711.25197 
  954000       953500   -9006.8134    1150.6161    -10157.43    4381.4451   -14538.875    130.32001   -1062.2818   -1466.6641   -1325.9772    121.63869    128.09867   -35.418261      46.7237      46.7237      46.7237           90           90           90     102002.7   -1284.9744 
  955000       954500   -9043.2941     1147.942   -10191.236     4356.774    -14548.01    130.01714   -467.98256   -1294.1425   -742.46455   -32.280473   -212.29591   -31.735933      46.7237      46.7237      46.7237           90           90           90     102002.7   -834.86322 
  956000       955500   -9004.1463    1149.5421   -10153.688    4386.6807   -14540.369    130.19836   -1011.2898    -927.8041   -916.85525   -67.697858   -288.94601   -71.844161      46.7237      46.7237      46.7237           90           90           90     102002.7   -951.98306 
  957000       956500   -9021.4255       1128.4   -10149.825    4389.4118   -14539.237    127.80378   -1072.7086   -1256.2237   -1023.3519   -17.114844    230.50622    217.63114      46.7237      46.7237      46.7237           90           90           90     102002.7   -1117.4281 
  958000       957500   -8998.2312    1171.6456   -10169.877    4381.4707   -14551.348    132.70183   -842.48508   -704.79631   -928.70461    99.093438    1.9823594   -13.546045      46.7237      46.7237      46.7237           90           90           90     102002.7   -825.32866 
  959000       958500    -8988.959    1174.0472   -10163.006    4377.6449   -14540.651    132.97384   -887.34218   -366.95103   -1176.2117     191.0098     66.61441     67.17442      46.7237      46.7237      46.7237           90           90           90     102002.7   -810.16831 
  960000       959500   -9030.3015    1141.8898   -10172.191    4355.4632   -14527.654    129.33165   -1324.1006   -446.65515   -810.63211    417.93728   -32.250307    92.117202      46.7237      46.7237      46.7237           90           90           90     102002.7   -860.46261 
  961000       960500   -8992.5231    1170.2584   -10162.781    4383.6034   -14546.385    132.54471   -868.35946   -984.72286   -499.99576   -358.76782    -105.0238     108.9324      46.7237      46.7237      46.7237           90           90           90     102002.7   -784.35936 
  962000       961500    -9007.971    1144.4828   -10152.454    4370.6591   -14523.113    129.62534   -813.52492   -737.77969   -590.45054    -90.72099   -192.13924    272.01569      46.7237      46.7237      46.7237           90           90           90     102002.7   -713.91839 
  963000       962500   -9044.1187    1131.7472   -10175.866    4363.7179   -14539.584     128.1829   -579.37797   -569.75936   -734.08764   -67.435368   -247.82108    20.279687      46.7237      46.7237      46.7237           90           90           90     102002.7   -627.74166 
  964000       963500   -9023.0114    1147.5865   -10170.598    4370.6424    -14541.24    129.97687   -435.39353   -201.78528   -217.08346    490.31877    39.804527    -270.0353      46.7237      46.7237      46.7237           90           90           90     102002.7   -284.75409 
  965000       964500   -9059.9488     1129.173   -10189.122    4359.0857   -14548.208    127.89134   -608.91153    -904.3775   -684.62823   -122.51871   -147.62659   -251.99274      46.7237      46.7237      46.7237           90           90           90     102002.7   -732.63908 
  966000       965500   -9027.5799    1149.1668   -10176.747    4367.2697   -14544.016    130.15586   -670.98133   -659.78189   -627.37771   -74.143632   -40.113222   -10.237295      46.7237      46.7237      46.7237           90           90           90     102002.7   -652.71364 
  967000       966500    -9033.648    1166.5835   -10200.232    4367.6843   -14567.916    132.12849   -309.72585   -1046.2933   -934.59185   -54.575262   -25.445358    -20.45714      46.7237      46.7237      46.7237           90           90           90     102002.7   -763.53701 
  968000       967500   -9004.4469      1163.79   -10168.237    4377.9398   -14546.177     131.8121   -1095.1896   -1066.6769   -445.82396   -106.39421   -163.66333   -148.56714      46.7237      46.7237      46.7237           90           90           90     102002.7   -869.23017 
  969000       968500   -9029.2716    1144.4072   -10173.679    4358.7603   -14532.439    129.61678   -361.86464   -1111.2556   -500.10825    155.46399   -117.84136   -328.87791      46.7237      46.7237      46.7237           90           90           90     102002.7   -657.74283 
  970000       969500   -9055.1248    1140.9594   -10196.084     4350.086    -14546.17    129.22627   -977.02445   -570.10717   -171.79485   -31.594722    22.820797    57.243271      46.7237      46.7237      46.7237           90           90           90     102002.7   -572.97549 
  971000       970500   -9012.1321    1178.9849   -10191.117    4359.5549   -14550.672    133.53309   -598.89388   -549.14582   -64.433687    71.961037   -143.55959   -12.071135      46.7237      46.7237      46.7237           90           90           90     102002.7   -404.15779 
  972000       971500   -9005.5472    1171.0123   -10176.559    4385.1283   -14561.688     132.6301   -636.02704   -1099.0914    -382.3228    92.747753   -28.011161    145.50585      46.7237      46.7237      46.7237           90           90           90     102002.7   -705.81373 
  973000       972500   -9031.8917    1151.3103   -10183.202     4372.046   -14555.248    130.39863   -606.37554   -139.20998   -533.44773     228.0774    243.35501   -24.453703      46.7237      46.7237      46.7237           90           90           90     102002.7   -426.34442 
  974000       973500   -9018.0331    1137.7947   -10155.828    4396.8388   -14552.667    128.86784    -1152.001   -818.84128    -688.4916   -161.77404   -69.902486   -244.43316      46.7237      46.7237      46.7237           90           90           90     102002.7   -886.44463 
  975000       974500    -9046.432    1146.6092   -10193.041      4359.56   -14552.601    129.86618   -732.47335   -1107.6615   -637.01754   -230.62177   -57.391662    188.43987      46.7237      46.7237      46.7237           90           90           90     102002.7   -825.71747 
  976000       975500   -8997.2006    1166.3838   -10163.584    4376.8002   -14540.385    132.10587   -942.91385   -965.96805   -647.85774   -234.24699    83.732775    62.793699      46.7237      46.7237      46.7237           90           90           90     102002.7   -852.24655 
  977000       976500   -9044.2163    1139.1776   -10183.394    4361.5567   -14544.951    129.02447   -1398.1925   -1366.3518   -937.85488   -117.07483    271.33706   -224.74198      46.7237      46.7237      46.7237           90           90           90     102002.7   -1234.1331 
  978000       977500   -9032.4946       1138.5   -10170.995    4371.4534   -14542.448    128.94772   -1170.0567   -755.03595   -404.03678    202.46474     189.8067    32.575468      46.7237      46.7237      46.7237           90           90           90     102002.7   -776.37647 
  979000       978500   -9065.9241    1125.2515   -10191.176    4363.1778   -14554.353    127.44719   -868.70053   -1062.5482   -528.21856   -46.386775   -32.775383    122.45201      46.7237      46.7237      46.7237           90           90           90     102002.7   -819.82242 
  980000       979500    -9021.109    1148.6793   -10169.788    4377.4358   -14547.224    130.10065   -1157.1033   -1261.7816   -678.49316   -114.76174    398.64725    232.70601      46.7237      46.7237      46.7237           90           90           90     102002.7   -1032.4594 
  981000       980500    -9005.734    1180.5362    -10186.27    4388.2411   -14574.511    133.70879    -801.3776   -974.21591   -944.11919   -56.706715    167.77142    86.778881      46.7237      46.7237      46.7237           90           90           90     102002.7    -906.5709 
  982000       981500   -9026.1728    1146.8779   -10173.051    4356.7655   -14529.816    129.89661   -935.18276   -764.46398   -483.44901   -140.20182   -77.695505   -19.049716      46.7237      46.7237      46.7237           90           90           90     102002.7   -727.69858 
  983000       982500   -9052.8703    1131.0361   -10183.906    4329.9341   -14513.841    128.10235   -775.12397   -927.69684   -388.18016    24.483012    53.730898    55.376428      46.7237      46.7237      46.7237           90           90           90     102002.7   -697.00033 
  984000       983500   -9010.7668    1133.9506   -10144.717    4405.2715   -14549.989    128.43245    -626.7884   -459.17057   -609.15694   -365.06643    195.11079    300.71909      46.7237      46.7237      46.7237           90           90           90     102002.7   -565.03864 
  985000       984500   -9018.8755    1163.3012   -10182.177    4360.6808   -14542.858    131.75674   -1043.0438    -22.41024   -717.27358    263.39835    93.795771   -30.153976      46.7237      46.7237      46.7237           90           90           90     102002.7   -594.24253 
  986000       985500   -9006.1288    1148.4018   -10154.531    4381.8544   -14536.385    130.06921   -867.08822   -543.28373   -659.51747    18.439502   -87.947418   -134.36131      46.7237      46.7237      46.7237           90           90           90     102002.7   -689.96314 
  987000       986500   -9035.8631    1143.2947   -10179.158    4397.9206   -14577.078    129.49078   -707.16637   -988.54409   -312.47695   -186.15576    139.46648     47.12974      46.7237      46.7237      46.7237           90           90           90     102002.7    -669.3958 
  988000       987500    -9045.657    1144.3947   -10190.052    4345.1607   -14535.212    129.61536   -384.31719   -972.05834   -964.89726   -131.29694    131.60033    -28.10254      46.7237      46.7237      46.7237           90           90           90     102002.7    -773.7576 
  989000       988500   -9002.3323     1165.224   -10167.556    4372.0841    -14539.64    131.97452   -637.66361   -682.07174   -530.53556    355.69255    6.9872026   -300.96612      46.7237      46.7237      46.7237           90           90           90     102002.7   -616.75697 
  990000       989500   -9016.4307    1153.9999   -10170.431    4366.7872   -14537.218    130.70326   -1093.3064   -555.25275   -878.90932   -129.73594    64.743355    94.954482      46.7237      46.7237      46.7237           90           90           90     102002.7   -842.48949 
  991000       990500   -9071.1664    1114.6539    -10185.82    4371.0086   -14556.829    126.24689   -619.64499   -888.80357    -393.5612   -141.76775    326.08374    170.71758      46.7237      46.7237      46.7237           90           90           90     102002.7   -634.00326 
  992000       991500   -9069.0036    1141.1697   -10210.173    4372.8587   -14583.032     129.2501   -991.08172   -617.50451   -722.53504   -41.983926    111.32672   -180.02363      46.7237      46.7237      46.7237           90           90           90     102002.7   -777.04042 
  993000       992500   -8997.2797    1164.0301    -10161.31    4372.7381   -14534.048    131.83929   -766.10584   -804.22151   -600.75876     139.7816    5.6384822    215.78344      46.7237      46.7237      46.7237           90           90           90     102002.7   -723.69537 
  994000       993500   -9014.6585    1147.5264   -10162.185    4376.4841   -14538.669    129.97007   -791.78358   -450.68376   -682.41355   -60.117716    -190.4979    -10.73254      46.7237      46.7237      46.7237           90           90           90     102002.7   -641.62696 
  995000       994500   -9054.0136     1116.234   -10170.248    4377.2874   -14547.535    126.42585   -943.45787   -443.26785   -527.72197    56.324296   -12.062441    63.837832      46.7237      46.7237      46.7237           90           90           90     102002.7   -638.14923 
  996000       995500   -9023.5145    1148.3852     -10171.9    4386.4373   -14558.337    130.06733   -804.54631    -894.4593   -866.18299    211.79725   -12.092758   -44.815922      46.7237      46.7237      46.7237           90           90           90     102002.7   -855.06287 
  997000       996500   -9009.0188    1156.5442   -10165.563    4379.4585   -14545.022    130.99143   -818.48948   -1100.9807   -123.53738    312.20255    244.04086   -516.36641      46.7237      46.7237      46.7237           90           90           90     102002.7   -681.00254 
  998000       997500   -9008.5947    1156.7477   -10165.342    4383.6441   -14548.987    131.01448   -1259.7149   -1101.4298    -983.2185    15.069606   -224.65362    99.952827      46.7237      46.7237      46.7237           90           90           90     102002.7   -1114.7877 
  999000       998500   -9060.5975    1131.1416   -10191.739    4368.0296   -14559.769     128.1143   -641.23285   -717.85551   -654.30972    21.178518    91.445913   -17.536937      46.7237      46.7237      46.7237           90           90           90     102002.7    -671.1327 
 1000000       999500   -9001.8379    1170.9127   -10172.751     4359.774   -14532.525    132.61882   -518.85126    -1319.754   -446.41863    5.1411463   -242.30334   -306.97234      46.7237      46.7237      46.7237           90           90           90     102002.7   -761.67463 
 1000500      1000000   -8999.4912    1155.9613   -10155.453    4386.1372    -14541.59    130.92541   -143.86897    -527.4974   -466.21102    -249.9319   -173.49633    186.69434      46.7237      46.7237      46.7237           90           90           90     102002.7   -379.19247 
Loop time of 2211.97 on 16 procs for 500000 steps with 2963 atoms

Performance: 19.530 ns/day, 1.229 hours/ns, 226.042 timesteps/s
99.8% CPU use with 16 MPI tasks x no OpenMP threads

MPI task timing breakdown:
Section |  min time  |  avg time  |  max time  |%varavg| %total
---------------------------------------------------------------
Pair    | 934.49     | 1324.8     | 1710.9     | 840.5 | 59.89
Bond    | 134.89     | 183.55     | 232.36     | 313.8 |  8.30
Neigh   | 16.321     | 16.352     | 16.379     |   0.4 |  0.74
Comm    | 225.15     | 656.13     | 1080.3     |1352.4 | 29.66
Output  | 0.12697    | 0.13366    | 0.13426    |   0.5 |  0.01
Modify  | 23.353     | 24.465     | 25.046     |  12.3 |  1.11
Other   |            | 6.596      |            |       |  0.30

Nlocal:    185.188 ave 211 max 157 min
Histogram: 4 1 3 0 0 0 1 0 0 7
Nghost:    3779.81 ave 3808 max 3759 min
Histogram: 3 2 2 0 2 2 2 2 0 1
Neighs:    11456.6 ave 16914 max 5813 min
Histogram: 4 4 0 0 0 0 0 0 4 4

Total # of neighbors = 183306
Ave neighs/atom = 61.865
Ave special neighs/atom = 3.88795
Neighbor list builds = 5198
Dangerous builds = 0
Total wall time: 1:07:44
