LAMMPS (30 Mar 2018)
Reading data file ...
  orthogonal box = (0 0 0) to (46.7237 46.7237 46.7237)
  2 by 2 by 4 MPI processor grid
  reading atoms ...
  3317 atoms
  scanning bonds ...
  5 = max bonds/atom
  scanning angles ...
  10 = max angles/atom
  scanning dihedrals ...
  32 = max dihedrals/atom
  scanning impropers ...
  3 = max impropers/atom
  reading bonds ...
  2064 bonds
  reading angles ...
  3696 angles
  reading dihedrals ...
  6240 dihedrals
  reading impropers ...
  1008 impropers
Finding 1-2 1-3 1-4 neighbors ...
  special bond factors lj:   0          0          0         
  special bond factors coul: 0          0          0         
  5 = max # of 1-2 neighbors
  8 = max # of 1-3 neighbors
  20 = max # of 1-4 neighbors
  19 = max # of special neighbors
Finding 1-2 1-3 1-4 neighbors ...
  special bond factors lj:   0          0          1         
  special bond factors coul: 1          1          1         
  5 = max # of 1-2 neighbors
  8 = max # of 1-3 neighbors
  19 = max # of special neighbors
WARNING: Using 'neigh_modify every 1 delay 0 check yes' setting during minimization (../min.cpp:168)
Neighbor list info ...
  update every 1 steps, delay 0 steps, check yes
  max neighbors/atom: 2000, page size: 100000
  master list distance cutoff = 16
  ghost atom cutoff = 16
  binsize = 8, bins = 6 6 6
  3 neighbor lists, perpetual/occasional/extra = 3 0 0
  (1) pair buck6d/coul/gauss/dsf, perpetual, skip from (3)
      attributes: half, newton on
      pair build: skip
      stencil: none
      bin: none
  (2) pair lj/cut, perpetual, skip from (3)
      attributes: half, newton on
      pair build: skip
      stencil: none
      bin: none
  (3) neighbor class addition, perpetual
      attributes: half, newton on
      pair build: half/bin/newton
      stencil: half/bin/3d/newton
      bin: standard
Setting up cg style minimization ...
  Unit style    : real
  Current step  : 0
WARNING: Inconsistent image flags (../domain.cpp:786)
Per MPI rank memory allocation (min/avg/max) = 23.03 | 23.48 | 23.92 Mbytes
Step Temp E_pair E_mol TotEng Press 
       0            0   -15962.195    6482.8914   -9479.3032    6668.4772 
     500            0   -16349.864    3799.6363   -12550.227   -1252.5934 
Loop time of 4.60007 on 16 procs for 500 steps with 3317 atoms

99.9% CPU use with 16 MPI tasks x no OpenMP threads

Minimization stats:
  Stopping criterion = max force evaluations
  Energy initial, next-to-last, final = 
        -9479.30320806     -12550.1500663     -12550.2273237
  Force two-norm initial, final = 2575.04 12.2648
  Force max component initial, final = 152.01 2.33843
  Final line search alpha, max atom move = 0.00672527 0.0157266
  Iterations, force evaluations = 500 1000

MPI task timing breakdown:
Section |  min time  |  avg time  |  max time  |%varavg| %total
---------------------------------------------------------------
Pair    | 2.5517     | 3.1253     | 3.7663     |  19.7 | 67.94
Bond    | 0.2772     | 0.36045    | 0.42028    |   6.3 |  7.84
Neigh   | 0.028988   | 0.02913    | 0.029261   |   0.0 |  0.63
Comm    | 0.36814    | 1.0393     | 1.6666     |  35.8 | 22.59
Output  | 0          | 0          | 0          |   0.0 |  0.00
Modify  | 0          | 0          | 0          |   0.0 |  0.00
Other   |            | 0.04586    |            |       |  1.00

Nlocal:    207.312 ave 228 max 180 min
Histogram: 1 1 2 1 1 3 0 0 6 1
Nghost:    4136.19 ave 4162 max 4114 min
Histogram: 2 1 2 2 1 5 0 0 2 1
Neighs:    11500.4 ave 15975 max 7513 min
Histogram: 2 2 1 2 1 2 2 1 1 2

Total # of neighbors = 184006
Ave neighs/atom = 55.4736
Ave special neighs/atom = 3.47302
Neighbor list builds = 8
Dangerous builds = 0
Neighbor list info ...
  update every 1 steps, delay 10 steps, check yes
  max neighbors/atom: 2000, page size: 100000
  master list distance cutoff = 16
  ghost atom cutoff = 16
  binsize = 8, bins = 6 6 6
  3 neighbor lists, perpetual/occasional/extra = 3 0 0
  (1) pair buck6d/coul/gauss/dsf, perpetual, skip from (3)
      attributes: half, newton on
      pair build: skip
      stencil: none
      bin: none
  (2) pair lj/cut, perpetual, skip from (3)
      attributes: half, newton on
      pair build: skip
      stencil: none
      bin: none
  (3) neighbor class addition, perpetual
      attributes: half, newton on
      pair build: half/bin/newton
      stencil: half/bin/3d/newton
      bin: standard
Setting up Verlet run ...
  Unit style    : real
  Current step  : 500
  Time step     : 1
WARNING: Inconsistent image flags (../domain.cpp:786)
Per MPI rank memory allocation (min/avg/max) = 22.67 | 22.76 | 23.02 Mbytes
Step Temp PotEng TotEng Press Volume Lx Ly Lz 
     500           91   -12550.227    -11650.75   -849.49468     102002.7      46.7237      46.7237      46.7237 
    1000    75.867904   -11798.142   -11048.236    280.20505     102002.7      46.7237      46.7237      46.7237 
    2000     90.85395   -11646.808   -10748.774      170.168     102002.7      46.7237      46.7237      46.7237 
    3000    92.113464   -11714.857   -10804.374    366.75263     102002.7      46.7237      46.7237      46.7237 
    4000     90.88306    -11674.96   -10776.639     630.4605     102002.7      46.7237      46.7237      46.7237 
    5000      90.2664   -11683.106    -10790.88    266.89245     102002.7      46.7237      46.7237      46.7237 
    6000    91.873399   -11691.713   -10783.602    392.26886     102002.7      46.7237      46.7237      46.7237 
    7000    90.441733   -11712.099    -10818.14    456.49081     102002.7      46.7237      46.7237      46.7237 
    8000    90.947226   -11676.252   -10777.296    504.48439     102002.7      46.7237      46.7237      46.7237 
    9000    88.161555   -11697.832    -10826.41    435.13218     102002.7      46.7237      46.7237      46.7237 
   10000    89.959698    -11685.06   -10795.865    587.22902     102002.7      46.7237      46.7237      46.7237 
   11000     93.09945   -11686.796   -10766.567    524.31334     102002.7      46.7237      46.7237      46.7237 
   12000    91.308377   -11694.707   -10792.181    661.31056     102002.7      46.7237      46.7237      46.7237 
   13000    89.955726   -11718.181   -10829.026    793.78937     102002.7      46.7237      46.7237      46.7237 
   14000    91.675175   -11716.717   -10810.566    588.12005     102002.7      46.7237      46.7237      46.7237 
   15000    89.692562   -11710.736   -10824.182    629.46148     102002.7      46.7237      46.7237      46.7237 
   16000    90.980134   -11697.789   -10798.508    536.77027     102002.7      46.7237      46.7237      46.7237 
   17000    89.071795   -11720.304   -10839.886    631.94186     102002.7      46.7237      46.7237      46.7237 
   18000    93.773003   -11710.141   -10783.255    710.48097     102002.7      46.7237      46.7237      46.7237 
   19000    91.915678   -11703.908    -10795.38    376.13527     102002.7      46.7237      46.7237      46.7237 
   20000     92.14632   -11713.256   -10802.448     245.5197     102002.7      46.7237      46.7237      46.7237 
   21000    89.833866   -11694.601    -10806.65    322.70038     102002.7      46.7237      46.7237      46.7237 
   22000    89.172779   -11740.006    -10858.59    401.19346     102002.7      46.7237      46.7237      46.7237 
   23000     92.26588   -11690.317   -10778.327    576.34359     102002.7      46.7237      46.7237      46.7237 
   24000    92.220887   -11720.907   -10809.362    694.33836     102002.7      46.7237      46.7237      46.7237 
   25000    91.276833   -11695.878   -10793.664    830.27572     102002.7      46.7237      46.7237      46.7237 
   26000      89.8222   -11736.363   -10848.527     726.5586     102002.7      46.7237      46.7237      46.7237 
   27000    92.500466    -11713.55   -10799.242    582.08859     102002.7      46.7237      46.7237      46.7237 
   28000     90.65887   -11701.784   -10805.679    620.19489     102002.7      46.7237      46.7237      46.7237 
   29000    89.939499   -11711.169   -10822.174    554.55485     102002.7      46.7237      46.7237      46.7237 
   30000    89.249173   -11710.976   -10828.805     276.7012     102002.7      46.7237      46.7237      46.7237 
   31000    90.925283   -11719.259    -10820.52    499.52217     102002.7      46.7237      46.7237      46.7237 
   32000    90.902512    -11734.53   -10836.016    437.25236     102002.7      46.7237      46.7237      46.7237 
   33000    91.053218   -11703.777   -10803.773    501.60698     102002.7      46.7237      46.7237      46.7237 
   34000     90.18866   -11730.856   -10839.398    519.72893     102002.7      46.7237      46.7237      46.7237 
   35000    87.376106    -11712.06   -10848.402    416.03156     102002.7      46.7237      46.7237      46.7237 
   36000    89.829867   -11720.294   -10832.383    592.92216     102002.7      46.7237      46.7237      46.7237 
   37000    91.697489   -11740.301   -10833.929    553.09099     102002.7      46.7237      46.7237      46.7237 
   38000    91.002271   -11725.892   -10826.393    859.21749     102002.7      46.7237      46.7237      46.7237 
   39000    90.189145   -11719.077   -10827.614    730.67107     102002.7      46.7237      46.7237      46.7237 
   40000    91.386006   -11724.664   -10821.372    718.81942     102002.7      46.7237      46.7237      46.7237 
   41000    90.107154   -11724.348   -10833.696    683.09318     102002.7      46.7237      46.7237      46.7237 
   42000    89.363635   -11712.845   -10829.542    438.84027     102002.7      46.7237      46.7237      46.7237 
   43000    90.939425   -11737.545   -10838.667    365.16581     102002.7      46.7237      46.7237      46.7237 
   44000    90.374129   -11699.664   -10806.373    597.02924     102002.7      46.7237      46.7237      46.7237 
   45000    87.999738   -11739.409   -10869.587     628.6408     102002.7      46.7237      46.7237      46.7237 
   46000    94.466468   -11703.236   -10769.495    724.68882     102002.7      46.7237      46.7237      46.7237 
   47000    91.131406    -11728.57   -10827.794    553.68543     102002.7      46.7237      46.7237      46.7237 
   48000    91.234442   -11712.687   -10810.892     702.2045     102002.7      46.7237      46.7237      46.7237 
   49000    90.929464   -11731.843   -10833.063    676.32785     102002.7      46.7237      46.7237      46.7237 
   50000    88.553969   -11695.135   -10819.835    667.15762     102002.7      46.7237      46.7237      46.7237 
   51000    89.529812   -11729.796   -10844.851    334.52722     102002.7      46.7237      46.7237      46.7237 
   52000     92.65615   -11707.572   -10791.725      452.247     102002.7      46.7237      46.7237      46.7237 
   53000      90.2238   -11732.832   -10841.027    401.94147     102002.7      46.7237      46.7237      46.7237 
   54000    92.146471   -11720.778   -10809.969    615.72615     102002.7      46.7237      46.7237      46.7237 
   55000    87.835472   -11714.583   -10846.385    196.56158     102002.7      46.7237      46.7237      46.7237 
   56000    93.750517   -11702.402   -10775.738    711.61563     102002.7      46.7237      46.7237      46.7237 
   57000    90.472233   -11730.021    -10835.76    590.16238     102002.7      46.7237      46.7237      46.7237 
   58000    92.158997   -11702.327   -10791.394    667.41729     102002.7      46.7237      46.7237      46.7237 
   59000     92.07517   -11730.384    -10820.28    607.79108     102002.7      46.7237      46.7237      46.7237 
   60000    91.868131   -11709.657   -10801.599    579.12435     102002.7      46.7237      46.7237      46.7237 
   61000    90.469467   -11728.716   -10834.483    170.30754     102002.7      46.7237      46.7237      46.7237 
   62000    89.918504   -11714.634   -10825.847    358.14511     102002.7      46.7237      46.7237      46.7237 
   63000    90.967201   -11738.863    -10839.71    230.67619     102002.7      46.7237      46.7237      46.7237 
   64000    91.421684   -11721.787   -10818.142    580.20862     102002.7      46.7237      46.7237      46.7237 
   65000    88.771155   -11724.395   -10846.948    546.51037     102002.7      46.7237      46.7237      46.7237 
   66000    92.958043   -11721.927   -10803.095    370.88551     102002.7      46.7237      46.7237      46.7237 
   67000    88.959681   -11740.886   -10861.576    465.36762     102002.7      46.7237      46.7237      46.7237 
   68000    90.877402    -11712.03   -10813.764    626.12279     102002.7      46.7237      46.7237      46.7237 
   69000    93.723189   -11717.619   -10791.225    741.00617     102002.7      46.7237      46.7237      46.7237 
   70000       92.659   -11689.933   -10774.057    635.90296     102002.7      46.7237      46.7237      46.7237 
   71000    89.102275   -11717.651   -10836.932    527.75078     102002.7      46.7237      46.7237      46.7237 
   72000    90.386692   -11710.218   -10816.803    319.52586     102002.7      46.7237      46.7237      46.7237 
   73000    91.095334   -11715.946   -10815.527    447.76842     102002.7      46.7237      46.7237      46.7237 
   74000    89.192864   -11716.309   -10834.694     349.3067     102002.7      46.7237      46.7237      46.7237 
   75000    91.053468   -11716.179   -10816.173     828.4607     102002.7      46.7237      46.7237      46.7237 
   76000    93.154544   -11730.268   -10809.494    645.62197     102002.7      46.7237      46.7237      46.7237 
   77000    91.995534   -11732.126   -10822.808    467.23763     102002.7      46.7237      46.7237      46.7237 
   78000    90.034102   -11749.925   -10859.994    365.92694     102002.7      46.7237      46.7237      46.7237 
   79000    89.510178   -11736.512    -10851.76     495.2661     102002.7      46.7237      46.7237      46.7237 
   80000    89.922278   -11703.648   -10814.823    731.51412     102002.7      46.7237      46.7237      46.7237 
   81000    95.036608   -11740.878   -10801.501    654.71393     102002.7      46.7237      46.7237      46.7237 
   82000    91.711533   -11713.229   -10806.719    616.50179     102002.7      46.7237      46.7237      46.7237 
   83000    90.128433   -11723.112   -10832.249    601.25889     102002.7      46.7237      46.7237      46.7237 
   84000    91.675892   -11743.768    -10837.61    649.91947     102002.7      46.7237      46.7237      46.7237 
   85000    90.963961   -11731.913   -10832.792    744.86713     102002.7      46.7237      46.7237      46.7237 
   86000    89.442436   -11721.648   -10837.566    813.10356     102002.7      46.7237      46.7237      46.7237 
   87000    89.608285   -11737.623   -10851.902    339.46054     102002.7      46.7237      46.7237      46.7237 
   88000    91.767917   -11734.111   -10827.044    484.27722     102002.7      46.7237      46.7237      46.7237 
   89000    90.742141   -11722.356   -10825.428    627.66794     102002.7      46.7237      46.7237      46.7237 
   90000    90.100615   -11742.897    -10852.31    317.66995     102002.7      46.7237      46.7237      46.7237 
   91000    89.936578    -11721.66   -10832.694    384.37586     102002.7      46.7237      46.7237      46.7237 
   92000    92.692563   -11721.965   -10805.757     514.7602     102002.7      46.7237      46.7237      46.7237 
   93000    92.002207   -11744.691   -10835.308    747.19156     102002.7      46.7237      46.7237      46.7237 
   94000    91.852943   -11735.667   -10827.759      310.361     102002.7      46.7237      46.7237      46.7237 
   95000     89.89638   -11740.516   -10851.947    488.80085     102002.7      46.7237      46.7237      46.7237 
   96000    89.594517    -11736.56   -10850.975     573.4509     102002.7      46.7237      46.7237      46.7237 
   97000    91.678283   -11730.976   -10824.794    502.07699     102002.7      46.7237      46.7237      46.7237 
   98000    87.041511   -11736.306   -10875.956     500.9176     102002.7      46.7237      46.7237      46.7237 
   99000    91.987039   -11750.295   -10841.062    573.91167     102002.7      46.7237      46.7237      46.7237 
  100000    91.889715   -11739.376   -10831.104    736.76272     102002.7      46.7237      46.7237      46.7237 
  101000    91.156719   -11740.362   -10839.335    330.91987     102002.7      46.7237      46.7237      46.7237 
  102000    93.557619   -11739.139   -10814.382    697.48596     102002.7      46.7237      46.7237      46.7237 
  103000    95.336937   -11741.938   -10799.593    773.02551     102002.7      46.7237      46.7237      46.7237 
  104000    92.030013   -11726.491   -10816.832    595.03965     102002.7      46.7237      46.7237      46.7237 
  105000    90.557431    -11719.59   -10824.488    429.10003     102002.7      46.7237      46.7237      46.7237 
  106000    92.589598   -11732.143   -10816.954    592.54218     102002.7      46.7237      46.7237      46.7237 
  107000    91.218213   -11745.633   -10843.999    695.42604     102002.7      46.7237      46.7237      46.7237 
  108000    90.894571   -11745.047   -10846.612    433.53482     102002.7      46.7237      46.7237      46.7237 
  109000    92.315089   -11758.281   -10845.804    491.56965     102002.7      46.7237      46.7237      46.7237 
  110000    90.403259   -11735.994   -10842.415    413.97224     102002.7      46.7237      46.7237      46.7237 
  111000     89.91449   -11732.308    -10843.56    689.21584     102002.7      46.7237      46.7237      46.7237 
  112000    92.483732    -11743.77   -10829.627    713.21167     102002.7      46.7237      46.7237      46.7237 
  113000    91.482935   -11718.787   -10814.536    809.50471     102002.7      46.7237      46.7237      46.7237 
  114000    91.500361   -11734.157   -10829.734    556.04273     102002.7      46.7237      46.7237      46.7237 
  115000    90.763766   -11734.667   -10837.524    472.82712     102002.7      46.7237      46.7237      46.7237 
  116000    92.337501   -11755.035   -10842.338    641.83506     102002.7      46.7237      46.7237      46.7237 
  117000     90.07715   -11724.331   -10833.976    590.61684     102002.7      46.7237      46.7237      46.7237 
  118000    89.059222   -11722.566   -10842.272    457.32626     102002.7      46.7237      46.7237      46.7237 
  119000    90.780345   -11737.978   -10840.671    381.19589     102002.7      46.7237      46.7237      46.7237 
  120000    90.345934   -11736.087   -10843.075    172.76769     102002.7      46.7237      46.7237      46.7237 
  121000    91.775768   -11731.257   -10824.112    625.97198     102002.7      46.7237      46.7237      46.7237 
  122000    91.909654   -11727.534   -10819.065    668.68178     102002.7      46.7237      46.7237      46.7237 
  123000    89.066177   -11726.375   -10846.012    693.40564     102002.7      46.7237      46.7237      46.7237 
  124000    91.353266   -11755.176   -10852.207     593.4534     102002.7      46.7237      46.7237      46.7237 
  125000     89.80149    -11731.62   -10843.989     710.3996     102002.7      46.7237      46.7237      46.7237 
  126000    89.801685   -11744.535   -10856.902    541.27379     102002.7      46.7237      46.7237      46.7237 
  127000    92.433008   -11728.233   -10814.591    472.43303     102002.7      46.7237      46.7237      46.7237 
  128000    92.555769   -11747.901   -10833.046    512.70353     102002.7      46.7237      46.7237      46.7237 
  129000    89.624607   -11713.384   -10827.501    359.84618     102002.7      46.7237      46.7237      46.7237 
  130000    89.496539   -11728.116     -10843.5    408.67985     102002.7      46.7237      46.7237      46.7237 
  131000    93.833452     -11726.2   -10798.716    304.04998     102002.7      46.7237      46.7237      46.7237 
  132000     93.01692   -11742.636   -10823.223    293.11107     102002.7      46.7237      46.7237      46.7237 
  133000    92.237499   -11746.188   -10834.479    434.80684     102002.7      46.7237      46.7237      46.7237 
  134000    90.428666   -11764.275   -10870.445    476.27401     102002.7      46.7237      46.7237      46.7237 
  135000     90.11429   -11739.548   -10848.825     500.8577     102002.7      46.7237      46.7237      46.7237 
  136000    92.827573     -11719.6   -10802.058    445.42214     102002.7      46.7237      46.7237      46.7237 
  137000    89.050853   -11750.995   -10870.784    576.69557     102002.7      46.7237      46.7237      46.7237 
  138000    91.755295   -11751.664   -10844.721    459.99661     102002.7      46.7237      46.7237      46.7237 
  139000    91.367811   -11729.658   -10826.545    734.08402     102002.7      46.7237      46.7237      46.7237 
  140000    92.275637   -11734.844   -10822.758    764.10182     102002.7      46.7237      46.7237      46.7237 
  141000    90.490927   -11723.134   -10828.689     553.3938     102002.7      46.7237      46.7237      46.7237 
  142000    90.778639   -11730.135   -10832.846    609.73284     102002.7      46.7237      46.7237      46.7237 
  143000    92.236295   -11728.228   -10816.531    523.56397     102002.7      46.7237      46.7237      46.7237 
  144000    91.191499   -11738.367   -10836.997    500.02498     102002.7      46.7237      46.7237      46.7237 
  145000    90.414699   -11754.373   -10860.681    721.57068     102002.7      46.7237      46.7237      46.7237 
  146000     91.42115   -11736.981   -10833.341    336.67521     102002.7      46.7237      46.7237      46.7237 
  147000    90.063731    -11724.39   -10834.167    362.69033     102002.7      46.7237      46.7237      46.7237 
  148000    90.498985   -11740.531   -10846.006    765.22232     102002.7      46.7237      46.7237      46.7237 
  149000    89.157976   -11751.735   -10870.465    511.37658     102002.7      46.7237      46.7237      46.7237 
  150000    93.958971   -11748.371   -10819.646    520.15844     102002.7      46.7237      46.7237      46.7237 
  151000    90.150977   -11747.655    -10856.57    477.74262     102002.7      46.7237      46.7237      46.7237 
  152000    89.930468   -11726.157   -10837.252    707.97646     102002.7      46.7237      46.7237      46.7237 
  153000    94.051383   -11720.596   -10790.958    855.83359     102002.7      46.7237      46.7237      46.7237 
  154000    94.617346   -11762.832     -10827.6    545.96879     102002.7      46.7237      46.7237      46.7237 
  155000    89.928226   -11738.807   -10849.924    313.62635     102002.7      46.7237      46.7237      46.7237 
  156000    88.010398   -11743.144   -10873.217    398.40407     102002.7      46.7237      46.7237      46.7237 
  157000    90.360219   -11718.687   -10825.533    455.66725     102002.7      46.7237      46.7237      46.7237 
  158000    89.952809   -11740.625   -10851.498    801.75669     102002.7      46.7237      46.7237      46.7237 
  159000    91.734807   -11747.613   -10840.872    595.48757     102002.7      46.7237      46.7237      46.7237 
  160000    91.194723    -11723.04   -10821.638    505.11009     102002.7      46.7237      46.7237      46.7237 
  161000    91.136663   -11759.901   -10859.073    343.07053     102002.7      46.7237      46.7237      46.7237 
  162000    93.240705   -11748.611   -10826.986    627.05874     102002.7      46.7237      46.7237      46.7237 
  163000    89.729204   -11761.727   -10874.811    475.13582     102002.7      46.7237      46.7237      46.7237 
  164000    88.727594   -11753.681   -10876.665    463.29223     102002.7      46.7237      46.7237      46.7237 
  165000    90.418356   -11735.343   -10841.615    535.22126     102002.7      46.7237      46.7237      46.7237 
  166000    92.459886   -11754.762   -10840.854    515.01101     102002.7      46.7237      46.7237      46.7237 
  167000    90.377036   -11758.867   -10865.547    349.75754     102002.7      46.7237      46.7237      46.7237 
  168000    90.684853    -11742.21   -10845.848    581.51131     102002.7      46.7237      46.7237      46.7237 
  169000    89.821602   -11764.185   -10876.355    504.88692     102002.7      46.7237      46.7237      46.7237 
  170000    91.157604   -11743.224   -10842.189    627.25656     102002.7      46.7237      46.7237      46.7237 
  171000    90.378224   -11735.944   -10842.612     768.8162     102002.7      46.7237      46.7237      46.7237 
  172000    90.645699   -11760.341   -10864.366    386.37901     102002.7      46.7237      46.7237      46.7237 
  173000    90.341512   -11757.784   -10864.816    410.23882     102002.7      46.7237      46.7237      46.7237 
  174000    92.444321   -11732.807   -10819.054    563.31461     102002.7      46.7237      46.7237      46.7237 
  175000    91.359151   -11750.134   -10847.107    531.05009     102002.7      46.7237      46.7237      46.7237 
  176000      92.8785   -11753.627   -10835.582    222.30581     102002.7      46.7237      46.7237      46.7237 
  177000    92.572716   -11736.161   -10821.139    659.91828     102002.7      46.7237      46.7237      46.7237 
  178000     90.11091   -11738.722   -10848.033    669.52492     102002.7      46.7237      46.7237      46.7237 
  179000    90.306337   -11746.613   -10853.992    861.31707     102002.7      46.7237      46.7237      46.7237 
  180000    91.789945   -11736.713   -10829.428     552.3366     102002.7      46.7237      46.7237      46.7237 
  181000    89.814349   -11768.139   -10880.381    467.83797     102002.7      46.7237      46.7237      46.7237 
  182000    89.078179    -11746.76   -10866.279     677.3993     102002.7      46.7237      46.7237      46.7237 
  183000    91.225552   -11734.167    -10832.46    464.42163     102002.7      46.7237      46.7237      46.7237 
  184000     90.54494   -11732.864   -10837.884    288.37248     102002.7      46.7237      46.7237      46.7237 
  185000    89.234098   -11752.211   -10870.188     246.2606     102002.7      46.7237      46.7237      46.7237 
  186000    91.228953   -11731.831    -10830.09    342.63792     102002.7      46.7237      46.7237      46.7237 
  187000    91.220164   -11785.865   -10884.212    282.58924     102002.7      46.7237      46.7237      46.7237 
  188000    92.462984    -11761.96   -10848.022    351.59356     102002.7      46.7237      46.7237      46.7237 
  189000    91.493206   -11721.908   -10817.556    434.00745     102002.7      46.7237      46.7237      46.7237 
  190000    89.968587   -11759.964   -10870.681     455.0734     102002.7      46.7237      46.7237      46.7237 
  191000    89.299268   -11750.167     -10867.5     747.8636     102002.7      46.7237      46.7237      46.7237 
  192000    89.047429   -11754.839   -10874.662     446.0307     102002.7      46.7237      46.7237      46.7237 
  193000    90.726372   -11758.617   -10861.845    751.05607     102002.7      46.7237      46.7237      46.7237 
  194000    91.431387   -11748.963   -10845.222     666.3473     102002.7      46.7237      46.7237      46.7237 
  195000    89.304843   -11730.912    -10848.19    432.18852     102002.7      46.7237      46.7237      46.7237 
  196000    89.069636   -11766.689   -10886.292    619.83122     102002.7      46.7237      46.7237      46.7237 
  197000    91.420034   -11749.496   -10845.867    400.05344     102002.7      46.7237      46.7237      46.7237 
  198000    89.162185   -11759.483   -10878.172    490.78762     102002.7      46.7237      46.7237      46.7237 
  199000    88.532868   -11723.684   -10848.592    685.29738     102002.7      46.7237      46.7237      46.7237 
  200000    90.415174   -11729.339   -10835.642     776.5728     102002.7      46.7237      46.7237      46.7237 
  201000    90.876463   -11742.232   -10843.976    585.19316     102002.7      46.7237      46.7237      46.7237 
  202000    90.567011   -11747.963   -10852.766    376.37603     102002.7      46.7237      46.7237      46.7237 
  203000    90.015524   -11749.193   -10859.447    325.45949     102002.7      46.7237      46.7237      46.7237 
  204000    93.061697   -11783.532   -10863.677    361.68987     102002.7      46.7237      46.7237      46.7237 
  205000    90.535446   -11758.441   -10863.556    656.35814     102002.7      46.7237      46.7237      46.7237 
  206000    89.806383   -11750.296   -10862.617    584.61909     102002.7      46.7237      46.7237      46.7237 
  207000    88.423526   -11738.142   -10864.131    306.88069     102002.7      46.7237      46.7237      46.7237 
  208000    89.853245   -11763.896   -10875.754     360.9717     102002.7      46.7237      46.7237      46.7237 
  209000    88.484381   -11732.706   -10858.094    555.42501     102002.7      46.7237      46.7237      46.7237 
  210000    91.401072    -11746.34   -10842.898    305.18663     102002.7      46.7237      46.7237      46.7237 
  211000    91.373382   -11743.338    -10840.17    430.93551     102002.7      46.7237      46.7237      46.7237 
  212000     90.77992   -11771.118   -10873.816    523.97175     102002.7      46.7237      46.7237      46.7237 
  213000    91.629327   -11749.345   -10843.647    640.16454     102002.7      46.7237      46.7237      46.7237 
  214000    90.126585   -11756.133   -10865.289    433.05478     102002.7      46.7237      46.7237      46.7237 
  215000    91.709471   -11748.365   -10841.875    548.58225     102002.7      46.7237      46.7237      46.7237 
  216000    90.532842   -11744.131   -10849.271    541.21193     102002.7      46.7237      46.7237      46.7237 
  217000    90.479286   -11755.762   -10861.432    614.16219     102002.7      46.7237      46.7237      46.7237 
  218000    89.181531   -11760.772   -10879.269    403.72386     102002.7      46.7237      46.7237      46.7237 
  219000     91.04014   -11767.302   -10867.428    297.51218     102002.7      46.7237      46.7237      46.7237 
  220000    90.736121   -11757.594   -10860.725    471.52212     102002.7      46.7237      46.7237      46.7237 
  221000    89.719137   -11758.803   -10871.986    687.48238     102002.7      46.7237      46.7237      46.7237 
  222000    90.135574    -11753.36   -10862.427    663.10597     102002.7      46.7237      46.7237      46.7237 
  223000     91.41537   -11752.038   -10848.455    799.20731     102002.7      46.7237      46.7237      46.7237 
  224000    91.124103   -11781.635   -10880.931    794.13572     102002.7      46.7237      46.7237      46.7237 
  225000     89.33534   -11749.567   -10866.543    536.05772     102002.7      46.7237      46.7237      46.7237 
  226000    92.899714   -11728.389   -10810.135    545.63152     102002.7      46.7237      46.7237      46.7237 
  227000    89.672853   -11728.953   -10842.594    777.44964     102002.7      46.7237      46.7237      46.7237 
  228000    92.913002   -11763.364   -10844.978    433.38697     102002.7      46.7237      46.7237      46.7237 
  229000    91.624553   -11766.778   -10861.127    514.24138     102002.7      46.7237      46.7237      46.7237 
  230000    91.602714    -11744.78   -10839.345    478.95405     102002.7      46.7237      46.7237      46.7237 
  231000    91.328824   -11754.133   -10851.405    649.87919     102002.7      46.7237      46.7237      46.7237 
  232000    93.947854   -11735.564   -10806.949    572.85523     102002.7      46.7237      46.7237      46.7237 
  233000    90.499488   -11760.363   -10865.833    423.68731     102002.7      46.7237      46.7237      46.7237 
  234000    90.868131   -11729.722   -10831.548    551.46072     102002.7      46.7237      46.7237      46.7237 
  235000     92.14737   -11717.302   -10806.484    701.78302     102002.7      46.7237      46.7237      46.7237 
  236000     89.94104   -11751.514   -10862.504    650.39627     102002.7      46.7237      46.7237      46.7237 
  237000    89.990516   -11766.539    -10877.04    504.90045     102002.7      46.7237      46.7237      46.7237 
  238000    92.181025   -11747.312   -10836.161    442.05873     102002.7      46.7237      46.7237      46.7237 
  239000     92.32766   -11767.979   -10855.378    359.97729     102002.7      46.7237      46.7237      46.7237 
  240000    92.322757   -11758.993   -10846.441    698.38231     102002.7      46.7237      46.7237      46.7237 
  241000    90.038162     -11752.2    -10862.23    623.03645     102002.7      46.7237      46.7237      46.7237 
  242000    89.246014   -11741.869   -10859.729    539.00443     102002.7      46.7237      46.7237      46.7237 
  243000    89.075081   -11751.652   -10871.201    795.69875     102002.7      46.7237      46.7237      46.7237 
  244000    91.568925   -11744.579   -10839.478    739.89447     102002.7      46.7237      46.7237      46.7237 
  245000    90.853774   -11746.926   -10848.894     450.0557     102002.7      46.7237      46.7237      46.7237 
  246000    93.228673   -11768.129   -10846.623    654.33834     102002.7      46.7237      46.7237      46.7237 
  247000    90.828944   -11764.173   -10866.386     817.5835     102002.7      46.7237      46.7237      46.7237 
  248000    90.788777   -11763.289   -10865.899    720.48785     102002.7      46.7237      46.7237      46.7237 
  249000    90.572451   -11735.044   -10839.793    612.44695     102002.7      46.7237      46.7237      46.7237 
  250000    90.142614   -11768.924   -10877.922     234.3167     102002.7      46.7237      46.7237      46.7237 
  251000    90.332906   -11756.655   -10863.771    281.56095     102002.7      46.7237      46.7237      46.7237 
  252000     88.63143   -11753.505    -10877.44    410.44139     102002.7      46.7237      46.7237      46.7237 
  253000    92.876256   -11769.626   -10851.604    552.04661     102002.7      46.7237      46.7237      46.7237 
  254000    91.210918   -11774.159   -10872.597    675.77118     102002.7      46.7237      46.7237      46.7237 
  255000    90.625174   -11762.947   -10867.174    469.62613     102002.7      46.7237      46.7237      46.7237 
  256000    89.127792   -11740.298   -10859.326     540.4668     102002.7      46.7237      46.7237      46.7237 
  257000    93.847752   -11776.992   -10849.366     352.2703     102002.7      46.7237      46.7237      46.7237 
  258000    89.953205   -11760.758   -10871.627    496.35032     102002.7      46.7237      46.7237      46.7237 
  259000    91.167619   -11760.046   -10858.912    256.67494     102002.7      46.7237      46.7237      46.7237 
  260000    92.175812    -11743.45   -10832.351    625.48952     102002.7      46.7237      46.7237      46.7237 
  261000    88.994304   -11769.055   -10889.402    467.46164     102002.7      46.7237      46.7237      46.7237 
  262000    89.791131   -11744.045   -10856.516    466.01876     102002.7      46.7237      46.7237      46.7237 
  263000    90.113163   -11744.684   -10853.973    646.98268     102002.7      46.7237      46.7237      46.7237 
  264000    91.864236   -11756.962   -10848.942    491.33399     102002.7      46.7237      46.7237      46.7237 
  265000    90.180258   -11767.487   -10876.113    663.57697     102002.7      46.7237      46.7237      46.7237 
  266000    91.881953    -11765.08   -10856.885    480.02359     102002.7      46.7237      46.7237      46.7237 
  267000    91.653161   -11755.956   -10850.023    455.91577     102002.7      46.7237      46.7237      46.7237 
  268000     91.14985   -11754.581   -10853.622    440.68311     102002.7      46.7237      46.7237      46.7237 
  269000    90.227201   -11742.827   -10850.989    310.02139     102002.7      46.7237      46.7237      46.7237 
  270000    88.691347   -11778.699   -10902.041    542.99678     102002.7      46.7237      46.7237      46.7237 
  271000    91.116636   -11738.793   -10838.163    963.75811     102002.7      46.7237      46.7237      46.7237 
  272000    91.972249   -11779.573   -10870.486    339.15278     102002.7      46.7237      46.7237      46.7237 
  273000    92.885156   -11756.804   -10838.693    359.72568     102002.7      46.7237      46.7237      46.7237 
  274000    90.521262   -11756.641   -10861.895    525.56471     102002.7      46.7237      46.7237      46.7237 
  275000    92.892958   -11747.115   -10828.927    177.34241     102002.7      46.7237      46.7237      46.7237 
  276000    89.769015   -11753.971   -10866.661    526.98446     102002.7      46.7237      46.7237      46.7237 
  277000    90.473338   -11771.234   -10876.963    572.75965     102002.7      46.7237      46.7237      46.7237 
  278000    90.836421    -11762.33   -10864.469    260.06117     102002.7      46.7237      46.7237      46.7237 
  279000    90.037507   -11764.627   -10874.663    596.09743     102002.7      46.7237      46.7237      46.7237 
  280000    92.762169   -11751.759   -10834.864    667.40819     102002.7      46.7237      46.7237      46.7237 
  281000    88.363937   -11723.267   -10849.845    426.22161     102002.7      46.7237      46.7237      46.7237 
  282000    90.855256   -11774.632   -10876.586    512.95176     102002.7      46.7237      46.7237      46.7237 
  283000    92.007893   -11758.343   -10848.903    536.07623     102002.7      46.7237      46.7237      46.7237 
  284000    89.752384   -11762.541   -10875.396    286.75905     102002.7      46.7237      46.7237      46.7237 
  285000    92.156913   -11753.906   -10842.994    551.93069     102002.7      46.7237      46.7237      46.7237 
  286000    90.466087   -11754.678   -10860.478    371.26223     102002.7      46.7237      46.7237      46.7237 
  287000    90.525182   -11745.196   -10850.412    391.21792     102002.7      46.7237      46.7237      46.7237 
  288000    91.472013   -11760.687   -10856.544    574.58406     102002.7      46.7237      46.7237      46.7237 
  289000    89.311727   -11755.016   -10872.226    594.41892     102002.7      46.7237      46.7237      46.7237 
  290000    91.664157   -11720.746   -10814.704    581.78497     102002.7      46.7237      46.7237      46.7237 
  291000    90.136541   -11757.873   -10866.931    358.41049     102002.7      46.7237      46.7237      46.7237 
  292000     90.36537   -11770.125   -10876.921    321.11272     102002.7      46.7237      46.7237      46.7237 
  293000    89.411884   -11743.675   -10859.895    367.66376     102002.7      46.7237      46.7237      46.7237 
  294000    89.208247   -11756.355   -10874.588    438.51742     102002.7      46.7237      46.7237      46.7237 
  295000    91.242828   -11761.443   -10859.565    682.38955     102002.7      46.7237      46.7237      46.7237 
  296000    90.215215   -11745.374   -10853.654    531.51061     102002.7      46.7237      46.7237      46.7237 
  297000    89.175013   -11742.449    -10861.01    669.73284     102002.7      46.7237      46.7237      46.7237 
  298000    89.868453    -11760.36   -10872.067    542.50754     102002.7      46.7237      46.7237      46.7237 
  299000    92.528137   -11725.105   -10810.523    594.51157     102002.7      46.7237      46.7237      46.7237 
  300000    90.702633   -11765.759   -10869.221    490.05854     102002.7      46.7237      46.7237      46.7237 
  301000    89.883378   -11765.855   -10877.415    487.78317     102002.7      46.7237      46.7237      46.7237 
  302000    90.987942   -11733.176   -10833.818    451.86868     102002.7      46.7237      46.7237      46.7237 
  303000    91.300178   -11758.868   -10856.423    569.56062     102002.7      46.7237      46.7237      46.7237 
  304000    89.535153   -11744.105   -10859.107    782.63046     102002.7      46.7237      46.7237      46.7237 
  305000    91.251011   -11762.462   -10860.504     753.4488     102002.7      46.7237      46.7237      46.7237 
  306000    88.944054   -11764.806   -10885.651    704.73435     102002.7      46.7237      46.7237      46.7237 
  307000    89.573635   -11751.283   -10865.904    519.50101     102002.7      46.7237      46.7237      46.7237 
  308000    93.161925   -11756.469   -10835.622    407.32324     102002.7      46.7237      46.7237      46.7237 
  309000    91.909467   -11746.684   -10838.218    797.91589     102002.7      46.7237      46.7237      46.7237 
  310000    91.913516   -11756.493   -10847.986    523.76525     102002.7      46.7237      46.7237      46.7237 
  311000    89.085732    -11759.19   -10878.634    250.56333     102002.7      46.7237      46.7237      46.7237 
  312000    92.163903   -11772.759   -10861.777    645.29156     102002.7      46.7237      46.7237      46.7237 
  313000     90.46942    -11753.16   -10858.927    782.51828     102002.7      46.7237      46.7237      46.7237 
  314000    89.825163    -11759.51   -10871.645    708.16939     102002.7      46.7237      46.7237      46.7237 
  315000    90.439344   -11765.572   -10871.636    631.17533     102002.7      46.7237      46.7237      46.7237 
  316000    89.979121   -11746.482   -10857.096    711.34669     102002.7      46.7237      46.7237      46.7237 
  317000    89.279895   -11754.775     -10872.3    424.17026     102002.7      46.7237      46.7237      46.7237 
  318000    89.976995   -11737.967   -10848.601    427.79752     102002.7      46.7237      46.7237      46.7237 
  319000    93.330675   -11760.954    -10838.44    494.75051     102002.7      46.7237      46.7237      46.7237 
  320000    92.564882   -11737.755    -10822.81    474.64609     102002.7      46.7237      46.7237      46.7237 
  321000    91.376025   -11757.588   -10854.394     539.6387     102002.7      46.7237      46.7237      46.7237 
  322000    89.514132   -11748.196   -10863.406    475.74366     102002.7      46.7237      46.7237      46.7237 
  323000    92.930092   -11744.671   -10826.116    469.56282     102002.7      46.7237      46.7237      46.7237 
  324000    91.005245   -11750.205   -10850.676    780.18209     102002.7      46.7237      46.7237      46.7237 
  325000    90.024816   -11775.586   -10885.748     757.1391     102002.7      46.7237      46.7237      46.7237 
  326000    89.050773   -11739.007   -10858.797    460.70027     102002.7      46.7237      46.7237      46.7237 
  327000    90.729636   -11750.792   -10853.987     411.7075     102002.7      46.7237      46.7237      46.7237 
  328000    90.178866   -11762.381    -10871.02    479.84631     102002.7      46.7237      46.7237      46.7237 
  329000    91.647362   -11752.024   -10846.148    523.70873     102002.7      46.7237      46.7237      46.7237 
  330000    91.311552   -11761.491   -10858.934    568.53405     102002.7      46.7237      46.7237      46.7237 
  331000    89.570374   -11755.285   -10869.938    543.07781     102002.7      46.7237      46.7237      46.7237 
  332000    88.609647   -11753.226   -10877.376    629.80715     102002.7      46.7237      46.7237      46.7237 
  333000    92.030403   -11743.676   -10834.014    787.98517     102002.7      46.7237      46.7237      46.7237 
  334000    92.821755   -11761.622   -10844.137     473.8372     102002.7      46.7237      46.7237      46.7237 
  335000    89.715085   -11777.052   -10890.276    688.25633     102002.7      46.7237      46.7237      46.7237 
  336000    93.642969   -11743.603   -10818.001    421.74151     102002.7      46.7237      46.7237      46.7237 
  337000    92.523841   -11755.859   -10841.319    595.26271     102002.7      46.7237      46.7237      46.7237 
  338000    91.207839    -11743.97   -10842.438      566.887     102002.7      46.7237      46.7237      46.7237 
  339000    89.059097   -11741.509   -10861.216    589.46882     102002.7      46.7237      46.7237      46.7237 
  340000    90.281763   -11742.918    -10850.54    752.38864     102002.7      46.7237      46.7237      46.7237 
  341000     90.41114   -11744.894   -10851.237    563.04277     102002.7      46.7237      46.7237      46.7237 
  342000    89.762177   -11745.079   -10857.837    538.20142     102002.7      46.7237      46.7237      46.7237 
  343000    92.865648   -11765.842   -10847.924    448.10439     102002.7      46.7237      46.7237      46.7237 
  344000    91.243751   -11750.121   -10848.234    238.33029     102002.7      46.7237      46.7237      46.7237 
  345000    90.859023   -11748.416   -10850.332    381.27267     102002.7      46.7237      46.7237      46.7237 
  346000    91.786536   -11739.557   -10832.305     478.7225     102002.7      46.7237      46.7237      46.7237 
  347000    91.735953   -11733.887   -10827.135    622.52401     102002.7      46.7237      46.7237      46.7237 
  348000    92.405248   -11726.969   -10813.602     642.9866     102002.7      46.7237      46.7237      46.7237 
  349000    91.378257   -11748.663   -10845.447    846.89385     102002.7      46.7237      46.7237      46.7237 
  350000    89.693733   -11739.434   -10852.868    561.54956     102002.7      46.7237      46.7237      46.7237 
  351000    89.027208   -11756.894   -10876.917    496.46522     102002.7      46.7237      46.7237      46.7237 
  352000     90.68672   -11753.117   -10856.736    373.33371     102002.7      46.7237      46.7237      46.7237 
  353000     90.64322   -11756.394   -10860.443    582.42901     102002.7      46.7237      46.7237      46.7237 
  354000    90.965926   -11756.135   -10856.995    364.86127     102002.7      46.7237      46.7237      46.7237 
  355000    91.884168   -11747.749   -10839.532    503.37453     102002.7      46.7237      46.7237      46.7237 
  356000    92.975175   -11759.128   -10840.127    686.22397     102002.7      46.7237      46.7237      46.7237 
  357000    92.602893   -11725.677   -10810.356    584.85415     102002.7      46.7237      46.7237      46.7237 
  358000    90.152802   -11749.735   -10858.632    750.31626     102002.7      46.7237      46.7237      46.7237 
  359000    92.057096   -11744.015   -10834.089    783.41358     102002.7      46.7237      46.7237      46.7237 
  360000    92.486619   -11727.691   -10813.519    409.71679     102002.7      46.7237      46.7237      46.7237 
  361000    89.846257    -11753.65   -10865.577    425.95508     102002.7      46.7237      46.7237      46.7237 
  362000    91.618349   -11756.063   -10850.474    416.37925     102002.7      46.7237      46.7237      46.7237 
  363000    91.861751   -11742.531   -10834.536    443.22914     102002.7      46.7237      46.7237      46.7237 
  364000     90.10534   -11748.827   -10858.193    655.96429     102002.7      46.7237      46.7237      46.7237 
  365000    93.339862   -11747.622   -10825.017    498.74805     102002.7      46.7237      46.7237      46.7237 
  366000    89.823508   -11756.486   -10868.637    283.22717     102002.7      46.7237      46.7237      46.7237 
  367000    90.581174   -11747.249   -10851.911    515.62261     102002.7      46.7237      46.7237      46.7237 
  368000    89.888137   -11762.255   -10873.768    705.39531     102002.7      46.7237      46.7237      46.7237 
  369000    91.762291   -11764.768   -10857.756    474.26443     102002.7      46.7237      46.7237      46.7237 
  370000    91.415073   -11734.597   -10831.016    456.73412     102002.7      46.7237      46.7237      46.7237 
  371000    90.235576   -11759.019   -10867.098    461.89599     102002.7      46.7237      46.7237      46.7237 
  372000    88.188394   -11750.876    -10879.19    571.43409     102002.7      46.7237      46.7237      46.7237 
  373000    91.361936   -11744.224   -10841.169    610.22203     102002.7      46.7237      46.7237      46.7237 
  374000     90.79791   -11752.732   -10855.252    630.76555     102002.7      46.7237      46.7237      46.7237 
  375000    92.514148   -11758.381   -10843.937    189.24666     102002.7      46.7237      46.7237      46.7237 
  376000    92.172254   -11762.609   -10851.545    718.73883     102002.7      46.7237      46.7237      46.7237 
  377000    90.300795   -11750.949   -10858.383    627.69848     102002.7      46.7237      46.7237      46.7237 
  378000    91.501106   -11766.574   -10862.143    516.89574     102002.7      46.7237      46.7237      46.7237 
  379000    91.042267   -11760.644   -10860.748      436.047     102002.7      46.7237      46.7237      46.7237 
  380000    89.768467   -11759.172   -10871.868     616.7637     102002.7      46.7237      46.7237      46.7237 
  381000    89.870831   -11756.275   -10867.958    729.75903     102002.7      46.7237      46.7237      46.7237 
  382000    91.174693   -11752.078   -10850.874    614.85314     102002.7      46.7237      46.7237      46.7237 
  383000    92.310935   -11749.842   -10837.406    434.72478     102002.7      46.7237      46.7237      46.7237 
  384000    91.233167   -11756.126   -10854.344    685.00069     102002.7      46.7237      46.7237      46.7237 
  385000    91.089381   -11737.758   -10837.397    235.83996     102002.7      46.7237      46.7237      46.7237 
  386000     92.56736   -11769.292   -10854.322    376.14155     102002.7      46.7237      46.7237      46.7237 
  387000    91.214274   -11727.292   -10825.697    386.18939     102002.7      46.7237      46.7237      46.7237 
  388000    91.484325   -11739.417   -10835.152    769.09848     102002.7      46.7237      46.7237      46.7237 
  389000    90.248326   -11744.574   -10852.527    741.53928     102002.7      46.7237      46.7237      46.7237 
  390000    91.722598   -11782.352   -10875.732    562.30055     102002.7      46.7237      46.7237      46.7237 
  391000    90.032076   -11776.691   -10886.781    619.34116     102002.7      46.7237      46.7237      46.7237 
  392000    89.409335   -11755.643   -10871.889    673.79085     102002.7      46.7237      46.7237      46.7237 
  393000    91.608483   -11759.945   -10854.453    466.53501     102002.7      46.7237      46.7237      46.7237 
  394000    90.008559   -11733.526   -10843.848    655.04328     102002.7      46.7237      46.7237      46.7237 
  395000    88.995074   -11738.071   -10858.411    587.89561     102002.7      46.7237      46.7237      46.7237 
  396000    89.887195   -11759.273   -10870.796     740.4504     102002.7      46.7237      46.7237      46.7237 
  397000    91.202527   -11746.015   -10844.536    606.77001     102002.7      46.7237      46.7237      46.7237 
  398000    91.113014   -11761.758   -10861.164    349.87659     102002.7      46.7237      46.7237      46.7237 
  399000     91.65198    -11740.69   -10834.768    513.12849     102002.7      46.7237      46.7237      46.7237 
  400000     91.32041   -11744.739   -10842.095     622.5702     102002.7      46.7237      46.7237      46.7237 
  401000    89.314285   -11756.251   -10873.436    343.93355     102002.7      46.7237      46.7237      46.7237 
  402000     92.04967   -11761.062   -10851.209    416.56806     102002.7      46.7237      46.7237      46.7237 
  403000    91.222893   -11744.405   -10842.725    701.60366     102002.7      46.7237      46.7237      46.7237 
  404000    91.746748   -11740.543   -10833.685    688.26892     102002.7      46.7237      46.7237      46.7237 
  405000    92.090441   -11756.823   -10846.567    650.82739     102002.7      46.7237      46.7237      46.7237 
  406000    91.342385   -11754.436   -10851.574    702.85529     102002.7      46.7237      46.7237      46.7237 
  407000    89.316193   -11762.764    -10879.93    685.34848     102002.7      46.7237      46.7237      46.7237 
  408000    88.457196   -11733.162   -10858.819    436.98338     102002.7      46.7237      46.7237      46.7237 
  409000    90.733217   -11741.847   -10845.007    470.54795     102002.7      46.7237      46.7237      46.7237 
  410000    88.724754     -11754.8   -10877.812    503.93375     102002.7      46.7237      46.7237      46.7237 
  411000    88.911278   -11736.829   -10857.998    393.79468     102002.7      46.7237      46.7237      46.7237 
  412000    90.843474   -11750.979   -10853.049    470.38845     102002.7      46.7237      46.7237      46.7237 
  413000    89.751345   -11774.659   -10887.524    513.45812     102002.7      46.7237      46.7237      46.7237 
  414000    90.594446   -11734.473   -10839.004    575.23524     102002.7      46.7237      46.7237      46.7237 
  415000    90.278734   -11747.131   -10854.783    526.95423     102002.7      46.7237      46.7237      46.7237 
  416000    92.673411    -11722.38   -10806.362    583.68228     102002.7      46.7237      46.7237      46.7237 
  417000    92.031542   -11753.565   -10843.892    573.63465     102002.7      46.7237      46.7237      46.7237 
  418000    92.188872   -11756.708    -10845.48     504.9303     102002.7      46.7237      46.7237      46.7237 
  419000    88.988425   -11754.648   -10875.054    597.36561     102002.7      46.7237      46.7237      46.7237 
  420000    89.566946   -11775.758   -10890.446    321.28643     102002.7      46.7237      46.7237      46.7237 
  421000    91.847581   -11752.991   -10845.136    613.00947     102002.7      46.7237      46.7237      46.7237 
  422000    90.566632   -11743.333   -10848.139    533.33832     102002.7      46.7237      46.7237      46.7237 
  423000    89.141842    -11752.48    -10871.37    409.32037     102002.7      46.7237      46.7237      46.7237 
  424000    92.834439   -11757.602   -10839.993     392.1397     102002.7      46.7237      46.7237      46.7237 
  425000    90.636501   -11761.205   -10865.321    659.17043     102002.7      46.7237      46.7237      46.7237 
  426000     90.00195   -11734.064   -10844.452    594.92487     102002.7      46.7237      46.7237      46.7237 
  427000    93.204999   -11757.363   -10836.091    805.61232     102002.7      46.7237      46.7237      46.7237 
  428000    89.074239   -11754.707   -10874.264    415.96888     102002.7      46.7237      46.7237      46.7237 
  429000    92.012035    -11765.22    -10855.74    240.88065     102002.7      46.7237      46.7237      46.7237 
  430000     92.69694    -11750.28    -10834.03    705.47249     102002.7      46.7237      46.7237      46.7237 
  431000    91.451238   -11767.143   -10863.206    378.04184     102002.7      46.7237      46.7237      46.7237 
  432000    92.231609   -11755.446   -10843.795    903.26292     102002.7      46.7237      46.7237      46.7237 
  433000    90.483176   -11758.065   -10863.696    746.73634     102002.7      46.7237      46.7237      46.7237 
  434000    89.638219   -11738.629   -10852.612      300.498     102002.7      46.7237      46.7237      46.7237 
  435000    88.550674   -11771.745   -10896.478    493.26373     102002.7      46.7237      46.7237      46.7237 
  436000    90.598992   -11749.437   -10853.924     674.6881     102002.7      46.7237      46.7237      46.7237 
  437000     88.54586   -11732.729   -10857.509    394.11052     102002.7      46.7237      46.7237      46.7237 
  438000    88.930769   -11752.949   -10873.925    245.60914     102002.7      46.7237      46.7237      46.7237 
  439000    88.198397   -11731.006   -10859.221    581.70253     102002.7      46.7237      46.7237      46.7237 
  440000    92.638999     -11749.7   -10834.022    502.04442     102002.7      46.7237      46.7237      46.7237 
  441000    93.126696   -11756.846   -10836.348    505.21635     102002.7      46.7237      46.7237      46.7237 
  442000    89.694232   -11756.894   -10870.323    363.05517     102002.7      46.7237      46.7237      46.7237 
  443000    90.582241   -11736.797   -10841.449    362.77744     102002.7      46.7237      46.7237      46.7237 
  444000    90.378189   -11757.262   -10863.931    162.99414     102002.7      46.7237      46.7237      46.7237 
  445000    89.060403   -11741.119   -10860.813    505.15404     102002.7      46.7237      46.7237      46.7237 
  446000    88.447483   -11749.985   -10875.738    644.10598     102002.7      46.7237      46.7237      46.7237 
  447000    91.053392   -11752.697   -10852.692    453.40256     102002.7      46.7237      46.7237      46.7237 
  448000    92.734789   -11758.013   -10841.388    293.20292     102002.7      46.7237      46.7237      46.7237 
  449000    90.813398   -11761.046   -10863.413     519.3483     102002.7      46.7237      46.7237      46.7237 
  450000    89.540965   -11750.003   -10864.947    131.30577     102002.7      46.7237      46.7237      46.7237 
  451000    93.233584   -11744.181   -10822.626    533.05674     102002.7      46.7237      46.7237      46.7237 
  452000    92.691304   -11759.104   -10842.909      470.835     102002.7      46.7237      46.7237      46.7237 
  453000     90.12386   -11779.444   -10888.627    412.00573     102002.7      46.7237      46.7237      46.7237 
  454000    92.000446   -11777.128   -10867.762    469.34426     102002.7      46.7237      46.7237      46.7237 
  455000    87.509284   -11772.177   -10907.203    581.97936     102002.7      46.7237      46.7237      46.7237 
  456000    91.037525   -11751.035   -10851.187     606.9983     102002.7      46.7237      46.7237      46.7237 
  457000    90.133105   -11751.351   -10860.442    503.76742     102002.7      46.7237      46.7237      46.7237 
  458000     90.68685   -11775.411   -10879.029    535.97359     102002.7      46.7237      46.7237      46.7237 
  459000    92.916722    -11762.07   -10843.648     619.5495     102002.7      46.7237      46.7237      46.7237 
  460000    89.604808   -11736.822   -10851.135    536.24166     102002.7      46.7237      46.7237      46.7237 
  461000    92.777802   -11738.725   -10821.676    610.91645     102002.7      46.7237      46.7237      46.7237 
  462000    91.316709   -11743.588    -10840.98    487.20441     102002.7      46.7237      46.7237      46.7237 
  463000    90.457003   -11788.057   -10893.947    396.92022     102002.7      46.7237      46.7237      46.7237 
  464000    89.871876   -11748.611   -10860.284    359.23647     102002.7      46.7237      46.7237      46.7237 
  465000    92.115678   -11756.012   -10845.507    407.79439     102002.7      46.7237      46.7237      46.7237 
  466000     93.36641   -11742.238    -10819.37    626.60193     102002.7      46.7237      46.7237      46.7237 
  467000    91.786182   -11755.471   -10848.223    464.78798     102002.7      46.7237      46.7237      46.7237 
  468000     90.56584   -11763.012   -10867.826    500.81494     102002.7      46.7237      46.7237      46.7237 
  469000    91.623343   -11740.635   -10834.996    508.96751     102002.7      46.7237      46.7237      46.7237 
  470000    90.224509   -11754.509   -10862.697    242.28274     102002.7      46.7237      46.7237      46.7237 
  471000     91.08337   -11785.835   -10885.534    754.10907     102002.7      46.7237      46.7237      46.7237 
  472000    90.750979   -11752.416     -10855.4    543.76361     102002.7      46.7237      46.7237      46.7237 
  473000    90.420928    -11763.63   -10869.877    430.99623     102002.7      46.7237      46.7237      46.7237 
  474000    92.130778   -11772.987   -10862.333    357.14739     102002.7      46.7237      46.7237      46.7237 
  475000    90.273087   -11783.879   -10891.587    321.14235     102002.7      46.7237      46.7237      46.7237 
  476000    92.013123   -11753.335   -10843.843    493.57757     102002.7      46.7237      46.7237      46.7237 
  477000    92.432374   -11750.656    -10837.02    723.56799     102002.7      46.7237      46.7237      46.7237 
  478000    91.725484   -11767.429   -10860.781    324.73966     102002.7      46.7237      46.7237      46.7237 
  479000    91.109179   -11752.545   -10851.988    673.23815     102002.7      46.7237      46.7237      46.7237 
  480000    91.340767   -11758.741   -10855.896    581.52484     102002.7      46.7237      46.7237      46.7237 
  481000    91.882661   -11745.689   -10837.487    535.85486     102002.7      46.7237      46.7237      46.7237 
  482000    91.531331   -11771.022   -10866.293    428.40249     102002.7      46.7237      46.7237      46.7237 
  483000    91.457757   -11769.839   -10865.837    366.61912     102002.7      46.7237      46.7237      46.7237 
  484000     91.03669   -11755.472   -10855.632    248.49494     102002.7      46.7237      46.7237      46.7237 
  485000    92.137777   -11760.343   -10849.619    561.94992     102002.7      46.7237      46.7237      46.7237 
  486000    90.404978   -11766.696     -10873.1    664.08964     102002.7      46.7237      46.7237      46.7237 
  487000    91.791453    -11762.84    -10855.54    682.34523     102002.7      46.7237      46.7237      46.7237 
  488000    91.414006   -11744.662   -10841.092    431.47048     102002.7      46.7237      46.7237      46.7237 
  489000    90.577268   -11775.169    -10879.87    402.74635     102002.7      46.7237      46.7237      46.7237 
  490000    90.773151    -11746.68   -10849.445    719.40704     102002.7      46.7237      46.7237      46.7237 
  491000    91.478109   -11765.864    -10861.66    623.79268     102002.7      46.7237      46.7237      46.7237 
  492000    91.310635   -11739.757    -10837.21    357.95696     102002.7      46.7237      46.7237      46.7237 
  493000    93.336978   -11757.632   -10835.055    340.42721     102002.7      46.7237      46.7237      46.7237 
  494000    91.768483   -11761.098   -10854.025    617.71904     102002.7      46.7237      46.7237      46.7237 
  495000    92.126446   -11763.518   -10852.906    591.76056     102002.7      46.7237      46.7237      46.7237 
  496000    90.499667   -11776.478   -10881.946    459.35187     102002.7      46.7237      46.7237      46.7237 
  497000    94.663229   -11754.153   -10818.467    492.89488     102002.7      46.7237      46.7237      46.7237 
  498000    90.295174   -11744.933   -10852.423    436.46004     102002.7      46.7237      46.7237      46.7237 
  499000    90.390038   -11775.776   -10882.328      548.506     102002.7      46.7237      46.7237      46.7237 
  500000    91.392577   -11751.007   -10847.649    661.24771     102002.7      46.7237      46.7237      46.7237 
  500500    90.178328   -11726.074   -10834.718    596.44599     102002.7      46.7237      46.7237      46.7237 
Loop time of 1846.88 on 16 procs for 500000 steps with 3317 atoms

Performance: 23.391 ns/day, 1.026 hours/ns, 270.727 timesteps/s
99.8% CPU use with 16 MPI tasks x no OpenMP threads

MPI task timing breakdown:
Section |  min time  |  avg time  |  max time  |%varavg| %total
---------------------------------------------------------------
Pair    | 1007.4     | 1216.1     | 1447.2     | 373.3 | 65.85
Bond    | 143.81     | 174.86     | 205.18     | 115.7 |  9.47
Neigh   | 14.796     | 14.857     | 14.923     |   1.0 |  0.80
Comm    | 193.13     | 423.34     | 645.92     | 637.3 | 22.92
Output  | 0.02154    | 0.022478   | 0.027079   |   0.9 |  0.00
Modify  | 9.6491     | 10.528     | 11.445     |  17.5 |  0.57
Other   |            | 7.157      |            |       |  0.39

Nlocal:    207.312 ave 238 max 184 min
Histogram: 3 1 1 1 3 2 3 1 0 1
Nghost:    4171.75 ave 4198 max 4138 min
Histogram: 1 0 1 2 3 4 0 2 1 2
Neighs:    11453.3 ave 15125 max 7942 min
Histogram: 1 1 1 2 4 3 1 0 2 1

Total # of neighbors = 183253
Ave neighs/atom = 55.2466
Ave special neighs/atom = 3.47302
Neighbor list builds = 4120
Dangerous builds = 0
Neighbor list info ...
  update every 1 steps, delay 10 steps, check yes
  max neighbors/atom: 2000, page size: 100000
  master list distance cutoff = 16
  ghost atom cutoff = 16
  binsize = 8, bins = 6 6 6
  3 neighbor lists, perpetual/occasional/extra = 3 0 0
  (1) pair buck6d/coul/gauss/dsf, perpetual, skip from (3)
      attributes: half, newton on
      pair build: skip
      stencil: none
      bin: none
  (2) pair lj/cut, perpetual, skip from (3)
      attributes: half, newton on
      pair build: skip
      stencil: none
      bin: none
  (3) neighbor class addition, perpetual
      attributes: half, newton on
      pair build: half/bin/newton
      stencil: half/bin/3d/newton
      bin: standard
Setting up Verlet run ...
  Unit style    : real
  Current step  : 500500
  Time step     : 1
WARNING: Inconsistent image flags (../domain.cpp:786)
Per MPI rank memory allocation (min/avg/max) = 22.67 | 23.21 | 23.45 Mbytes
Step Time TotEng KinEng PotEng E_mol E_pair Temp Pxx Pyy Pzz Pxy Pxz Pyz Cella Cellb Cellc CellAlpha CellBeta CellGamma Volume Press 
  500500       500000   -10834.718    891.35561   -11726.074    4182.6537   -15908.727    90.178328     637.9994    670.16171    481.17685    195.74696   -221.05619   -33.902982      46.7237      46.7237      46.7237           90           90           90     102002.7    596.44599 
  501000       500500   -10867.625    898.33121   -11765.956    4157.9249   -15923.881    90.884049   -33.978817    321.84106    303.44646   -47.757943   -96.132654    20.195879      46.7237      46.7237      46.7237           90           90           90     102002.7     197.1029 
  502000       501500   -10850.268    912.58525   -11762.853    4143.5145   -15906.368    92.326128    860.84721    269.53504    269.72608   -3.0969778    117.90288    6.1263229      46.7237      46.7237      46.7237           90           90           90     102002.7    466.70278 
  503000       502500   -10860.367    900.13905   -11760.506    4156.5132    -15917.02    91.066947    404.42874    476.38147    276.55223    -215.7733   -203.55152     186.2079      46.7237      46.7237      46.7237           90           90           90     102002.7    385.78748 
  504000       503500    -10881.68    880.71948   -11762.399    4148.2232   -15910.623    89.102272    248.67104    812.00073    500.37509   -33.146236    4.7446179    -10.22007      46.7237      46.7237      46.7237           90           90           90     102002.7    520.34895 
  505000       504500   -10849.368    901.58292   -11750.951    4148.9389    -15899.89    91.213023    806.79701    693.65456    75.358838    148.99193    149.27117   -27.891491      46.7237      46.7237      46.7237           90           90           90     102002.7    525.27013 
  506000       505500   -10843.365    920.56708   -11763.932     4163.636   -15927.568    93.133648    254.88861   -78.446751    326.38556    8.4627013    85.709765   -164.85699      46.7237      46.7237      46.7237           90           90           90     102002.7    167.60914 
  507000       506500   -10862.998     907.3925    -11770.39    4152.1144   -15922.505    91.800778    551.62004    71.957097    275.59121   -20.029223    21.632689     98.56401      46.7237      46.7237      46.7237           90           90           90     102002.7    299.72278 
  508000       507500   -10851.768    892.63237   -11744.401    4144.4003   -15888.801    90.307498    24.833725    461.23337     327.0472   -26.195841   -13.098779     29.26384      46.7237      46.7237      46.7237           90           90           90     102002.7     271.0381 
  509000       508500   -10828.848    905.72061   -11734.569    4164.9559   -15899.525    91.631633    648.78636    579.69486    831.11999    87.491874    178.35419    218.58619      46.7237      46.7237      46.7237           90           90           90     102002.7    686.53374 
  510000       509500   -10864.925    898.84691   -11763.772    4156.4213   -15920.194    90.936222    420.19768     489.4824    599.74497    149.77515   -56.546974   -146.47079      46.7237      46.7237      46.7237           90           90           90     102002.7    503.14168 
  511000       510500   -10862.858    910.03351   -11772.892    4140.8968   -15913.788    92.067969    440.79529    211.27355    411.93051    96.603267   -53.205499    25.637144      46.7237      46.7237      46.7237           90           90           90     102002.7    354.66645 
  512000       511500   -10854.275    899.64238   -11753.917    4160.3202   -15914.238    91.016699    509.14942    376.66764    409.82817    222.47161    23.507668    106.53025      46.7237      46.7237      46.7237           90           90           90     102002.7    431.88174 
  513000       512500   -10881.166    881.70979   -11762.876    4152.5508   -15915.427    89.202462    999.06728    514.02143    933.75955    46.431513    34.210101   -124.36535      46.7237      46.7237      46.7237           90           90           90     102002.7    815.61609 
  514000       513500   -10873.446       893.14   -11766.586    4146.8831   -15913.469    90.358854    874.97693    398.30489    732.64109     13.76603    48.889292    181.23319      46.7237      46.7237      46.7237           90           90           90     102002.7    668.64097 
  515000       514500   -10857.049    910.64578   -11767.695    4135.0411   -15902.736    92.129912    581.22156    687.00676     465.3343    59.130059    78.127965    4.9357594      46.7237      46.7237      46.7237           90           90           90     102002.7    577.85421 
  516000       515500   -10820.182    910.78712   -11730.969    4169.0707    -15900.04    92.144212    699.05778    613.90879    765.31168     11.91811   -1.1541877   -208.98254      46.7237      46.7237      46.7237           90           90           90     102002.7    692.75942 
  517000       516500   -10853.473    901.37589   -11754.849    4151.6686   -15906.518    91.192079    747.27992    138.11498    712.80898    62.524416   -154.88876   -340.13188      46.7237      46.7237      46.7237           90           90           90     102002.7    532.73463 
  518000       517500   -10861.208     910.7151   -11771.923    4146.1952   -15918.118    92.136925    664.34505    613.16392    424.69614   -182.21691    62.672854    8.4844907      46.7237      46.7237      46.7237           90           90           90     102002.7     567.4017 
  519000       518500   -10851.213    919.58056   -11770.794    4141.6382   -15912.432    93.033843    386.42704    490.68503    556.75947   -174.21729    113.99121    147.25915      46.7237      46.7237      46.7237           90           90           90     102002.7    477.95718 
  520000       519500   -10881.997    895.89618   -11777.893    4156.1402   -15934.033    90.637697    190.49865    348.93884   -124.86032    208.96829   -14.521602   -137.46947      46.7237      46.7237      46.7237           90           90           90     102002.7    138.19239 
  521000       520500   -10862.215    895.57797   -11757.793    4164.2246   -15922.018    90.605503    295.33905    358.92336    277.08533   -119.80132   -289.64318   -172.97238      46.7237      46.7237      46.7237           90           90           90     102002.7    310.44924 
  522000       521500   -10860.013    910.52171   -11770.535    4155.1624   -15925.697     92.11736     891.4547    345.70254    721.32605    149.61556   -46.528836   -66.330692      46.7237      46.7237      46.7237           90           90           90     102002.7    652.82776 
  523000       522500   -10832.482    905.10124   -11737.583     4164.465   -15902.048    91.568972    338.19122    290.01821    337.31008    -166.6772   -0.9547891   -252.64265      46.7237      46.7237      46.7237           90           90           90     102002.7    321.83984 
  524000       523500   -10836.669     905.6254   -11742.294     4153.106     -15895.4       91.622    731.67906    629.76661    824.75483   -177.42442    83.720433   -80.137829      46.7237      46.7237      46.7237           90           90           90     102002.7     728.7335 
  525000       524500   -10871.199    893.70085     -11764.9    4160.4287   -15925.328    90.415596    453.19376    635.88165    517.00429    31.261735    57.633345   -93.421766      46.7237      46.7237      46.7237           90           90           90     102002.7     535.3599 
  526000       525500    -10879.91    887.05588   -11766.966      4157.33   -15924.296    89.743325    344.17614    383.88044    505.47107    3.9632838    -108.4063   -113.21107      46.7237      46.7237      46.7237           90           90           90     102002.7    411.17588 
  527000       526500   -10863.248     895.2701   -11758.518    4158.6949   -15917.213    90.574356    351.38675    325.16473    117.73842    47.626815    -143.1879   -10.371114      46.7237      46.7237      46.7237           90           90           90     102002.7     264.7633 
  528000       527500   -10859.062    895.11845    -11754.18    4149.3002    -15903.48    90.559014    541.80857    735.30356    669.16607     53.88157    36.536382   -62.209262      46.7237      46.7237      46.7237           90           90           90     102002.7     648.7594 
  529000       528500   -10858.872    898.07882   -11756.951    4160.6044   -15917.555    90.858514    634.61225    245.61158    207.31203   -68.583249    244.38016    -220.8401      46.7237      46.7237      46.7237           90           90           90     102002.7    362.51195 
  530000       529500   -10832.325    918.33406   -11750.659    4155.7083   -15906.367    92.907734    713.10334    564.77809    595.89417    206.02083   -115.17074    -191.3934      46.7237      46.7237      46.7237           90           90           90     102002.7    624.59187 
  531000       530500     -10854.1    921.16804   -11775.268    4136.8843   -15912.153    93.194448    731.46358    548.39965    342.77257   -170.75851    -54.45629   -150.34514      46.7237      46.7237      46.7237           90           90           90     102002.7     540.8786 
  532000       531500    -10863.66    890.62657   -11754.287    4136.4378   -15890.725    90.104571     564.0967    172.00715    415.65385    114.80318    33.063061     67.64468      46.7237      46.7237      46.7237           90           90           90     102002.7    383.91923 
  533000       532500   -10847.436    907.57807   -11755.014    4145.2939   -15900.308    91.819552    520.11696    649.41687    388.15899     29.11989   -22.232058   -195.93172      46.7237      46.7237      46.7237           90           90           90     102002.7    519.23094 
  534000       533500   -10861.056    898.79767   -11759.854     4153.347   -15913.201     90.93124    550.95639    465.99034    522.57863   -80.429907   -5.2624982   -49.065943      46.7237      46.7237      46.7237           90           90           90     102002.7    513.17512 
  535000       534500   -10851.296    901.11626   -11752.412    4168.0165   -15920.428    91.165812    151.53125    657.40403    557.02281   -96.879025   -255.93037    136.29056      46.7237      46.7237      46.7237           90           90           90     102002.7    455.31936 
  536000       535500   -10870.206      902.207   -11772.413    4138.3353   -15910.749    91.276162    496.90649    322.98115    322.80067    161.91018    143.59986   -174.30471      46.7237      46.7237      46.7237           90           90           90     102002.7     380.8961 
  537000       536500   -10865.709    887.49477   -11753.203    4143.3012   -15896.505    89.787727    617.75037    616.26512    780.90811    82.917916    9.3882732    242.51179      46.7237      46.7237      46.7237           90           90           90     102002.7     671.6412 
  538000       537500   -10837.384    920.98919   -11758.373    4162.2386   -15920.612    93.176354    1055.2445     222.9286    386.22748    231.20771   -116.75252    111.07181      46.7237      46.7237      46.7237           90           90           90     102002.7    554.80018 
  539000       538500    -10850.04    920.81727   -11770.857    4140.6756   -15911.533     93.15896    245.83052    632.79868    358.37233   -150.41427   -94.366365    254.91248      46.7237      46.7237      46.7237           90           90           90     102002.7    412.33384 
  540000       539500   -10856.903    893.33603   -11750.239    4150.1926   -15900.431    90.378687    359.49908   -9.6623578    874.65107   -51.129663   -117.69989   -157.33996      46.7237      46.7237      46.7237           90           90           90     102002.7     408.1626 
  541000       540500   -10842.154    912.21039   -11754.364    4155.5224   -15909.887    92.288203    469.92548    209.00342    535.81977    298.35457   -67.494684   -38.038243      46.7237      46.7237      46.7237           90           90           90     102002.7    404.91622 
  542000       541500    -10900.88    869.30011    -11770.18    4142.9881   -15913.168    87.946976    373.74759    377.08067   -37.882346   -2.5027049    128.79819   -137.64821      46.7237      46.7237      46.7237           90           90           90     102002.7    237.64864 
  543000       542500   -10844.262    923.85868   -11768.121    4139.2393    -15907.36    93.466659    531.93812    253.22839    295.08903   -47.661052   -73.990979   -265.64288      46.7237      46.7237      46.7237           90           90           90     102002.7    360.08518 
  544000       543500   -10871.019    876.98707   -11748.006     4151.565   -15899.571    88.724664    458.30669    713.76859    193.36546    188.79577   -148.16484   -142.78339      46.7237      46.7237      46.7237           90           90           90     102002.7    455.14692 
  545000       544500   -10846.303    914.17721    -11760.48    4151.2674   -15911.748    92.487186    782.03384    565.75769    856.06516     163.2898   -96.405229    12.476072      46.7237      46.7237      46.7237           90           90           90     102002.7     734.6189 
  546000       545500    -10837.04     905.9633   -11743.003    4176.8316   -15919.834    91.656186    65.283703  -0.26268564    203.97384   -129.01826   -93.616042   -37.483655      46.7237      46.7237      46.7237           90           90           90     102002.7    89.664953 
  547000       546500   -10869.271    892.30977   -11761.581    4155.3096    -15916.89     90.27486    492.04076    135.83249    49.443092    30.119956    12.298669    28.950938      46.7237      46.7237      46.7237           90           90           90     102002.7    225.77211 
  548000       547500   -10842.489    896.84095   -11739.329    4159.4544   -15898.784    90.733279    561.43757    529.70554     219.0627    29.619354    203.71868   -282.14399      46.7237      46.7237      46.7237           90           90           90     102002.7    436.73527 
  549000       548500   -10872.154    874.67672   -11746.831    4163.4437   -15910.274    88.490927     449.1842    425.90495     408.4844    58.083178   -63.058311    103.59507      46.7237      46.7237      46.7237           90           90           90     102002.7    427.85785 
  550000       549500   -10840.001    904.52027   -11744.522    4164.5458   -15909.067    91.510195    530.66096    337.96081    325.44332    60.514754   -169.28471   -59.438031      46.7237      46.7237      46.7237           90           90           90     102002.7     398.0217 
  551000       550500   -10867.758    896.65581   -11764.414    4140.3075   -15904.722    90.714549    781.52627    628.85316    178.34859    118.39887    63.825112   -80.235293      46.7237      46.7237      46.7237           90           90           90     102002.7    529.57601 
  552000       551500   -10846.738    904.95563   -11751.694    4158.8161    -15910.51     91.55424    463.04662    388.45787    430.51781   -131.89167    250.04539    11.553404      46.7237      46.7237      46.7237           90           90           90     102002.7    427.34076 
  553000       552500   -10848.976     914.5123   -11763.489    4156.8594   -15920.348    92.521087    479.43395    110.04067    345.92286   -225.40887    94.200935   -176.63526      46.7237      46.7237      46.7237           90           90           90     102002.7    311.79916 
  554000       553500    -10872.05    897.60015    -11769.65    4155.4738   -15925.124    90.810087    817.76585     508.3607    685.60661   -202.82631   -206.91013   -386.78522      46.7237      46.7237      46.7237           90           90           90     102002.7    670.57772 
  555000       554500   -10825.339    906.09412   -11731.433    4161.0277   -15892.461    91.669421    644.60939    603.42845    475.17656    190.48513   -12.993139   -161.26964      46.7237      46.7237      46.7237           90           90           90     102002.7     574.4048 
[...]
  936000       935500   -10806.416    927.87632   -11734.292    4166.5718   -15900.864    93.873124    389.73458    964.49321    705.92774   -182.15042    22.415909   -167.30436      46.7237      46.7237      46.7237           90           90           90     102002.7    686.71851 
  937000       936500   -10846.497     912.4005   -11758.898    4148.1303   -15907.028    92.307437    328.23659    178.59963    519.91471   -37.639096    119.30752   -19.603178      46.7237      46.7237      46.7237           90           90           90     102002.7    342.25031 
  938000       937500   -10850.472    915.24975   -11765.722    4160.1184    -15925.84    92.595695    400.71432    642.52022    489.87837    -125.6436    50.269691     11.74446      46.7237      46.7237      46.7237           90           90           90     102002.7    511.03764 
  939000       938500   -10854.297    893.23507   -11747.532    4149.0004   -15896.532    90.368472    292.50781    252.20957    548.22166    174.34043   -20.801873   -156.06759      46.7237      46.7237      46.7237           90           90           90     102002.7    364.31301 
  940000       939500    -10847.03    893.22898   -11740.259     4150.686   -15890.945    90.367857    635.07168     319.2723    525.80626    32.205005    38.847645   -125.46606      46.7237      46.7237      46.7237           90           90           90     102002.7    493.38341 
  941000       940500   -10859.244    907.96209   -11767.206    4153.9137   -15921.119    91.858403    1002.9055    703.95785    440.01447     173.5725     71.19608    29.788876      46.7237      46.7237      46.7237           90           90           90     102002.7    715.62593 
  942000       941500   -10829.916    907.88777   -11737.804    4173.9528   -15911.757    91.850884    1130.3712    474.15477    333.91702   -81.158829    181.74801   -109.55759      46.7237      46.7237      46.7237           90           90           90     102002.7    646.14766 
  943000       942500   -10852.457    905.21677   -11757.673    4152.8638   -15910.537     91.58066    540.07903    566.47996    438.60318     139.6718   -67.722959   -17.552557      46.7237      46.7237      46.7237           90           90           90     102002.7    515.05406 
  944000       943500   -10876.101    903.21887    -11779.32    4145.0612   -15924.381    91.378532    448.48485    666.33609    759.77003    56.647784   -144.41901   -37.234924      46.7237      46.7237      46.7237           90           90           90     102002.7    624.86366 
  945000       944500   -10859.246    889.07189   -11748.318    4148.7521    -15897.07    89.947284    634.13948    330.40201    583.81939    27.598274   -14.325669    232.78972      46.7237      46.7237      46.7237           90           90           90     102002.7    516.12029 
  946000       945500   -10841.324    915.07577     -11756.4    4137.6855   -15894.085    92.578093     792.2855    584.91632    683.92279    50.837178   -117.98358     135.2614      46.7237      46.7237      46.7237           90           90           90     102002.7    687.04154 
  947000       946500   -10834.315    907.70989   -11742.025    4153.3275   -15895.353    91.832888    451.80994    739.80438    508.70095    98.631518   -197.54033  -0.30074267      46.7237      46.7237      46.7237           90           90           90     102002.7    566.77176 
  948000       947500   -10833.969    907.80074    -11741.77     4161.382   -15903.152     91.84208    334.83804    435.44759    434.70057    100.38095    220.41818   -58.772026      46.7237      46.7237      46.7237           90           90           90     102002.7    401.66206 
  949000       948500   -10868.375    888.76204   -11757.137    4144.2292   -15901.367    89.915937    817.26838    1056.6319    89.643445   -209.32571    67.710439    122.98721      46.7237      46.7237      46.7237           90           90           90     102002.7    654.51459 
  950000       949500    -10839.86    912.91408   -11752.774    4162.1626   -15914.936    92.359395    427.81947    331.11634    388.91438    44.671092   -86.536839    63.610029      46.7237      46.7237      46.7237           90           90           90     102002.7    382.61673 
  951000       950500    -10876.75    886.98591   -11763.736    4142.0901   -15905.826    89.736246    530.95074    666.20071    788.76101    134.64637    28.098194    133.04646      46.7237      46.7237      46.7237           90           90           90     102002.7    661.97082 
  952000       951500   -10861.391    903.90493   -11765.296     4160.429   -15925.725    91.447941    692.63318    473.80054    742.68781    102.22293    32.674247   -46.046757      46.7237      46.7237      46.7237           90           90           90     102002.7    636.37385 
  953000       952500   -10857.573    898.91575   -11756.489    4141.2541   -15897.743    90.943186    667.78547    447.73872     504.5693    98.855639    30.284268   -158.96003      46.7237      46.7237      46.7237           90           90           90     102002.7    540.03116 
  954000       953500   -10870.108    896.22104   -11766.329    4134.8417   -15901.171    90.670563    691.34291    552.60101    620.54143   -48.215244   -39.719291    196.38518      46.7237      46.7237      46.7237           90           90           90     102002.7    621.49512 
  955000       954500   -10853.941    900.21017   -11754.151    4138.7223   -15892.873    91.074143    414.99766    825.82472    254.67949   -7.7184768   -109.21866    49.276194      46.7237      46.7237      46.7237           90           90           90     102002.7    498.50062 
  956000       955500   -10859.614    901.92999   -11761.544    4148.7642   -15910.308    91.248136     791.3451    298.15394    690.31589    149.41938    -257.3696   -58.422735      46.7237      46.7237      46.7237           90           90           90     102002.7    593.27164 
  957000       956500   -10858.076    899.64555   -11757.722    4153.2255   -15910.947     91.01702    678.06858    433.75346    560.27999    121.37042    174.45211    53.594976      46.7237      46.7237      46.7237           90           90           90     102002.7    557.36734 
  958000       957500   -10821.961    916.11449   -11738.076    4160.1282   -15898.204    92.683181    374.08867   -87.285023    342.95238   -219.60133   -29.610725   -189.48722      46.7237      46.7237      46.7237           90           90           90     102002.7    209.91868 
  959000       958500   -10874.021    900.81712   -11774.838    4137.7412    -15912.58    91.135547    690.99054    410.12326    411.86826   -58.546976   -280.18536     44.51253      46.7237      46.7237      46.7237           90           90           90     102002.7    504.32735 
  960000       959500   -10838.155    894.40314   -11732.558    4163.6944   -15896.253    90.486646    913.03312    312.56027    540.11268    215.56538   -223.14219    107.59469      46.7237      46.7237      46.7237           90           90           90     102002.7    588.56869 
  961000       960500   -10844.671    929.45887    -11774.13    4136.2528   -15910.382     94.03323    400.50715    555.63964    422.90686    85.046236   -221.69626   -297.50382      46.7237      46.7237      46.7237           90           90           90     102002.7    459.68455 
  962000       961500   -10858.462    894.73986   -11753.202    4137.5003   -15890.702    90.520712    454.28202    584.92234    395.40494    137.67184   -117.62034   -96.844394      46.7237      46.7237      46.7237           90           90           90     102002.7     478.2031 
  963000       962500   -10876.669    896.53003   -11773.199    4142.3477   -15915.547    90.701824    1051.5244    886.60603    598.65761   -314.10066   -152.12836    98.392779      46.7237      46.7237      46.7237           90           90           90     102002.7    845.59601 
  964000       963500   -10871.662    892.83804     -11764.5    4145.0923   -15909.592    90.328305    892.93244    717.62942     480.9158    228.11838    -266.5906     119.4945      46.7237      46.7237      46.7237           90           90           90     102002.7    697.15922 
  965000       964500   -10887.613    885.51026   -11773.123    4151.3083   -15924.432    89.586954     75.05429    584.48403    282.83499    32.302024   -101.44776   -230.45567      46.7237      46.7237      46.7237           90           90           90     102002.7    314.12444 
  966000       965500   -10862.276    894.23916   -11756.515    4149.5948    -15906.11    90.470056    679.31486    486.25482    494.57206    19.010051   -67.530929    61.346282      46.7237      46.7237      46.7237           90           90           90     102002.7    553.38058 
  967000       966500   -10919.426    850.88963   -11770.316    4140.8553   -15911.171     86.08439    327.86796    306.04781    414.13875   -22.047831    32.016209   -57.181757      46.7237      46.7237      46.7237           90           90           90     102002.7    349.35151 
  968000       967500   -10852.992    910.96057   -11763.952    4157.7402   -15921.692    92.161759    329.33451    464.46906    652.64944    37.384318   -83.517166    1.1936457      46.7237      46.7237      46.7237           90           90           90     102002.7      482.151 
  969000       968500   -10872.239    877.82594   -11750.065    4157.1642   -15907.229    88.809533    323.74441    565.29362    226.09398    108.48399   -86.485237   -18.527665      46.7237      46.7237      46.7237           90           90           90     102002.7    371.71067 
  970000       969500    -10819.67    930.16972    -11749.84    4134.1776   -15884.018    94.105146    61.966736    817.65825    555.77636   -128.10528   -363.62802    18.303485      46.7237      46.7237      46.7237           90           90           90     102002.7    478.46712 
  971000       970500   -10895.115    877.19379   -11772.309    4148.0204   -15920.329    88.745578   -46.754384    132.43435    276.80511   -127.83946    172.52127    170.05761      46.7237      46.7237      46.7237           90           90           90     102002.7    120.82836 
  972000       971500   -10848.571    905.92824   -11754.499    4155.6287   -15910.128    91.652639    422.13282    516.06211    585.77897   -149.05139   -13.542668   -191.18558      46.7237      46.7237      46.7237           90           90           90     102002.7     507.9913 
  973000       972500   -10870.514    907.77574   -11778.289    4153.3001   -15931.589     91.83955    540.40245     429.1781    680.33788   -76.974908   -13.190324   -146.49001      46.7237      46.7237      46.7237           90           90           90     102002.7    549.97281 
  974000       973500   -10843.304    903.92847   -11747.232    4155.9061   -15903.138    91.450323    520.17899    267.32794    48.474611      93.9413    -165.7401    111.96102      46.7237      46.7237      46.7237           90           90           90     102002.7    278.66052 
  975000       974500   -10894.568     860.4942   -11755.062    4148.6225   -15903.685    87.056083    388.39033    424.29016     759.0004    241.36187    83.459897   -20.938202      46.7237      46.7237      46.7237           90           90           90     102002.7    523.89363 
  976000       975500   -10856.282    897.37194   -11753.653    4139.1254   -15892.779    90.786999    548.57789    845.37915    529.66967    251.65986      254.033   -197.69257      46.7237      46.7237      46.7237           90           90           90     102002.7     641.2089 
  977000       976500   -10844.356    929.56329   -11773.919    4146.1087   -15920.028    94.043794    524.51908    366.78431    156.63703    245.63684    49.846197   -93.808048      46.7237      46.7237      46.7237           90           90           90     102002.7    349.31347 
  978000       977500   -10887.573    877.48509   -11765.058    4140.0958   -15905.154    88.775049    753.50841    709.06142    661.51741   -98.082358    37.521562   -29.032188      46.7237      46.7237      46.7237           90           90           90     102002.7    708.02908 
  979000       978500    -10858.55    900.54369   -11759.094    4168.9078   -15928.002    91.107884    413.91416     546.5846      773.544    203.99351    10.165279    65.862299      46.7237      46.7237      46.7237           90           90           90     102002.7    578.01425 
  980000       979500    -10858.09    900.63494   -11758.725    4142.4264   -15901.151    91.117116    751.34329    425.41326    352.62844    131.82497    -77.72738   -118.46575      46.7237      46.7237      46.7237           90           90           90     102002.7    509.79499 
  981000       980500    -10835.19    902.97471   -11738.164    4160.7627   -15898.927    91.353831    930.32868    191.98931    1007.4875    151.21402    165.52347    -171.8043      46.7237      46.7237      46.7237           90           90           90     102002.7    709.93517 
  982000       981500   -10844.017    892.37586   -11736.393    4159.0142   -15895.407    90.281547    538.15716    479.53203    322.27098   -21.192048    104.10106    119.33137      46.7237      46.7237      46.7237           90           90           90     102002.7    446.65339 
  983000       982500   -10907.288    881.64956   -11788.937    4141.9933    -15930.93    89.196368     277.8348    39.579375    95.080105   -236.65874   -302.39869    136.20719      46.7237      46.7237      46.7237           90           90           90     102002.7    137.49809 
  984000       983500    -10865.69    892.11771   -11757.808     4156.393   -15914.201    90.255429    765.06631    522.11511      497.342    83.588941    128.46445   -84.326117      46.7237      46.7237      46.7237           90           90           90     102002.7    594.84114 
  985000       984500    -10872.15    895.86599   -11768.016    4154.6886   -15922.704    90.634643    650.36863    580.57776    617.81836    187.71938    159.24692    84.150396      46.7237      46.7237      46.7237           90           90           90     102002.7    616.25491 
  986000       985500    -10846.95    901.79494   -11748.745    4162.7171   -15911.462    91.234474    541.81786   -305.41378    299.12747    62.336629    93.448845   -355.24694      46.7237      46.7237      46.7237           90           90           90     102002.7    178.51052 
  987000       986500   -10864.323    901.88242   -11766.205    4152.6553    -15918.86    91.243324    179.56775    699.93304    718.20965    58.731908    451.04115   -109.86464      46.7237      46.7237      46.7237           90           90           90     102002.7    532.57015 
  988000       987500   -10870.203      891.431   -11761.634    4139.1082   -15900.742    90.185955    636.76063    690.32124    500.66226    300.34719   -100.73476   -13.356373      46.7237      46.7237      46.7237           90           90           90     102002.7    609.24804 
  989000       988500   -10850.464     903.8753   -11754.339    4152.8398   -15907.179    91.444944    322.33282    558.24486    19.456861    212.77703    81.353255   -105.19624      46.7237      46.7237      46.7237           90           90           90     102002.7    300.01151 
  990000       989500   -10849.374    895.06363   -11744.437    4165.5514   -15909.989    90.553468     286.2299    753.62656    594.69957    142.60452    132.86223    135.30259      46.7237      46.7237      46.7237           90           90           90     102002.7    544.85201 
  991000       990500   -10841.522    904.02806    -11745.55    4183.4196    -15928.97    91.460398    382.20954    706.58276    351.92395   -250.15936   -326.95057   -164.39021      46.7237      46.7237      46.7237           90           90           90     102002.7    480.23875 
  992000       991500   -10888.866    890.13304   -11778.999    4134.1808   -15913.179    90.054641    520.13627    180.02639    928.65112   -260.09303   -114.06964    45.260458      46.7237      46.7237      46.7237           90           90           90     102002.7    542.93793 
  993000       992500   -10853.032    885.84919   -11738.881    4171.7908   -15910.672    89.621244    927.77305    622.53481    816.78207   -220.21553    -99.99704    228.02649      46.7237      46.7237      46.7237           90           90           90     102002.7    789.02998 
  994000       993500   -10864.618    905.03419   -11769.652    4127.0216   -15896.673    91.562188    725.26998    579.12608    498.98968     8.691401    18.753778    299.34011      46.7237      46.7237      46.7237           90           90           90     102002.7    601.12858 
  995000       994500   -10851.909     896.7481   -11748.657    4131.3015   -15879.958    90.723885    664.91966    470.43855    431.87689     93.13042    -133.3919    64.919542      46.7237      46.7237      46.7237           90           90           90     102002.7     522.4117 
  996000       995500   -10840.452     912.5142   -11752.966    4154.2455   -15907.211     92.31894    1099.0667     657.0566    854.56429   -136.65547   -276.47485     77.35828      46.7237      46.7237      46.7237           90           90           90     102002.7    870.22919 
  997000       996500   -10859.557    896.53361    -11756.09    4140.3234   -15896.414    90.702185    454.26071    315.51253    170.35483   -72.692127   -24.343742   -30.303805      46.7237      46.7237      46.7237           90           90           90     102002.7    313.37602 
  998000       997500   -10887.753    882.25523   -11770.009    4147.9755   -15917.984    89.257644    538.19616    514.10438    220.26397    31.219476    212.06639    107.89254      46.7237      46.7237      46.7237           90           90           90     102002.7    424.18817 
  999000       998500   -10842.359    925.31569   -11767.675    4150.6988   -15918.373    93.614065    463.26362    499.34269    472.76981   -67.112039   -200.05367    52.389907      46.7237      46.7237      46.7237           90           90           90     102002.7    478.45871 
 1000000       999500   -10841.377    917.93355   -11759.311    4151.9741   -15911.285    92.867215    621.83266    524.26167    502.78115   -64.282826   -231.86564    2.4220137      46.7237      46.7237      46.7237           90           90           90     102002.7    549.62516 
 1000500      1000000   -10865.606    896.88202   -11762.488    4150.3355   -15912.824    90.737434     247.1582    509.30595    769.58726   -41.419955    88.602829    88.575411      46.7237      46.7237      46.7237           90           90           90     102002.7    508.68381 
Loop time of 2205.91 on 16 procs for 500000 steps with 3317 atoms

Performance: 19.584 ns/day, 1.226 hours/ns, 226.664 timesteps/s
99.8% CPU use with 16 MPI tasks x no OpenMP threads

MPI task timing breakdown:
Section |  min time  |  avg time  |  max time  |%varavg| %total
---------------------------------------------------------------
Pair    | 1298.6     | 1541.9     | 1746.7     | 355.8 | 69.90
Bond    | 122.61     | 184.29     | 231.71     | 215.6 |  8.35
Neigh   | 14.802     | 14.859     | 14.9       |   0.7 |  0.67
Comm    | 181.09     | 432.51     | 737.89     | 717.6 | 19.61
Output  | 0.13537    | 0.14402    | 0.14481    |   0.6 |  0.01
Modify  | 24.329     | 25.16      | 26.037     |  11.4 |  1.14
Other   |            | 7.082      |            |       |  0.32

Nlocal:    207.312 ave 239 max 185 min
Histogram: 3 2 2 2 1 1 1 1 2 1
Nghost:    4171.25 ave 4195 max 4145 min
Histogram: 1 3 2 0 1 0 2 3 2 2
Neighs:    11459.2 ave 17588 max 7774 min
Histogram: 4 0 2 3 4 0 1 1 0 1

Total # of neighbors = 183348
Ave neighs/atom = 55.2752
Ave special neighs/atom = 3.47302
Neighbor list builds = 4073
Dangerous builds = 0
Total wall time: 1:07:37
