LAMMPS (30 Mar 2018)
Reading data file ...
  orthogonal box = (0 0 0) to (46.7237 46.7237 46.7237)
  2 by 2 by 4 MPI processor grid
  reading atoms ...
  2044 atoms
  scanning bonds ...
  5 = max bonds/atom
  scanning angles ...
  10 = max angles/atom
  scanning dihedrals ...
  32 = max dihedrals/atom
  scanning impropers ...
  3 = max impropers/atom
  reading bonds ...
  2064 bonds
  reading angles ...
  3696 angles
  reading dihedrals ...
  6240 dihedrals
  reading impropers ...
  1008 impropers
Finding 1-2 1-3 1-4 neighbors ...
  special bond factors lj:   0          0          0         
  special bond factors coul: 0          0          0         
  5 = max # of 1-2 neighbors
  8 = max # of 1-3 neighbors
  20 = max # of 1-4 neighbors
  19 = max # of special neighbors
Finding 1-2 1-3 1-4 neighbors ...
  special bond factors lj:   0          0          1         
  special bond factors coul: 1          1          1         
  5 = max # of 1-2 neighbors
  8 = max # of 1-3 neighbors
  19 = max # of special neighbors
WARNING: Using 'neigh_modify every 1 delay 0 check yes' setting during minimization (../min.cpp:168)
Neighbor list info ...
  update every 1 steps, delay 0 steps, check yes
  max neighbors/atom: 2000, page size: 100000
  master list distance cutoff = 16
  ghost atom cutoff = 16
  binsize = 8, bins = 6 6 6
  3 neighbor lists, perpetual/occasional/extra = 3 0 0
  (1) pair buck6d/coul/gauss/dsf, perpetual, skip from (3)
      attributes: half, newton on
      pair build: skip
      stencil: none
      bin: none
  (2) pair lj/cut, perpetual, skip from (3)
      attributes: half, newton on
      pair build: skip
      stencil: none
      bin: none
  (3) neighbor class addition, perpetual
      attributes: half, newton on
      pair build: half/bin/newton
      stencil: half/bin/3d/newton
      bin: standard
Setting up cg style minimization ...
  Unit style    : real
  Current step  : 0
WARNING: Inconsistent image flags (../domain.cpp:786)
Per MPI rank memory allocation (min/avg/max) = 22.91 | 23.37 | 23.81 Mbytes
Step Temp E_pair E_mol TotEng Press 
       0            0   -12537.747    6482.8914   -6054.8555    6131.7049 
     502            0   -12629.454    3722.3875   -8907.0662   -597.97979 
Loop time of 3.29518 on 16 procs for 502 steps with 2044 atoms

99.9% CPU use with 16 MPI tasks x no OpenMP threads

Minimization stats:
  Stopping criterion = max force evaluations
  Energy initial, next-to-last, final = 
        -6054.85550476     -8907.04786534     -8907.06617282
  Force two-norm initial, final = 2574.39 6.05689
  Force max component initial, final = 151.999 0.752687
  Final line search alpha, max atom move = 0.00654338 0.00492512
  Iterations, force evaluations = 502 1001

MPI task timing breakdown:
Section |  min time  |  avg time  |  max time  |%varavg| %total
---------------------------------------------------------------
Pair    | 1.395      | 1.8532     | 2.5746     |  23.7 | 56.24
Bond    | 0.26637    | 0.36002    | 0.42408    |   7.5 | 10.93
Neigh   | 0.022067   | 0.022281   | 0.022613   |   0.1 |  0.68
Comm    | 0.252      | 1.0196     | 1.5267     |  32.7 | 30.94
Output  | 0          | 0          | 0          |   0.0 |  0.00
Modify  | 0          | 0          | 0          |   0.0 |  0.00
Other   |            | 0.04013    |            |       |  1.22

Nlocal:    127.75 ave 145 max 109 min
Histogram: 1 1 1 1 3 3 2 2 0 2
Nghost:    2489.12 ave 2506 max 2468 min
Histogram: 2 1 1 1 1 2 2 2 1 3
Neighs:    11450.4 ave 15975 max 7020 min
Histogram: 1 1 3 2 0 2 3 2 1 1

Total # of neighbors = 183207
Ave neighs/atom = 89.6316
Ave special neighs/atom = 5.63601
Neighbor list builds = 13
Dangerous builds = 0
Neighbor list info ...
  update every 1 steps, delay 10 steps, check yes
  max neighbors/atom: 2000, page size: 100000
  master list distance cutoff = 16
  ghost atom cutoff = 16
  binsize = 8, bins = 6 6 6
  3 neighbor lists, perpetual/occasional/extra = 3 0 0
  (1) pair buck6d/coul/gauss/dsf, perpetual, skip from (3)
      attributes: half, newton on
      pair build: skip
      stencil: none
      bin: none
  (2) pair lj/cut, perpetual, skip from (3)
      attributes: half, newton on
      pair build: skip
      stencil: none
      bin: none
  (3) neighbor class addition, perpetual
      attributes: half, newton on
      pair build: half/bin/newton
      stencil: half/bin/3d/newton
      bin: standard
Setting up Verlet run ...
  Unit style    : real
  Current step  : 502
  Time step     : 1
WARNING: Inconsistent image flags (../domain.cpp:786)
Per MPI rank memory allocation (min/avg/max) = 22.56 | 22.65 | 22.88 Mbytes
Step Temp PotEng TotEng Press Volume Lx Ly Lz 
     502           91   -8907.0662   -8352.8948   -349.62918     102002.7      46.7237      46.7237      46.7237 
    1000    80.170224   -8427.0116   -7938.7914   -395.75505     102002.7      46.7237      46.7237      46.7237 
    2000    97.156021   -8346.6144   -7754.9541     -566.706     102002.7      46.7237      46.7237      46.7237 
    3000    87.040539   -8303.7366   -7773.6775   -786.53678     102002.7      46.7237      46.7237      46.7237 
    4000    89.685115    -8320.364   -7774.2001   -385.46238     102002.7      46.7237      46.7237      46.7237 
    5000    90.300183   -8313.0935   -7763.1839   -873.71224     102002.7      46.7237      46.7237      46.7237 
    6000    92.223591   -8330.2808   -7768.6581   -659.75265     102002.7      46.7237      46.7237      46.7237 
    7000    89.417228   -8316.6146   -7772.0821   -506.22829     102002.7      46.7237      46.7237      46.7237 
    8000    88.134416   -8332.2352   -7795.5147   -1064.6651     102002.7      46.7237      46.7237      46.7237 
    9000    90.293737   -8318.2869   -7768.4165   -650.06661     102002.7      46.7237      46.7237      46.7237 
   10000    90.739669   -8314.3123   -7761.7263   -707.76518     102002.7      46.7237      46.7237      46.7237 
   11000     90.97363   -8324.9841   -7770.9734   -552.64607     102002.7      46.7237      46.7237      46.7237 
   12000    89.944206   -8332.2575   -7784.5158   -550.96673     102002.7      46.7237      46.7237      46.7237 
   13000    91.316148    -8334.785   -7778.6884    -759.6772     102002.7      46.7237      46.7237      46.7237 
   14000    89.483991   -8317.9788   -7773.0396   -496.82969     102002.7      46.7237      46.7237      46.7237 
   15000     90.16027   -8299.1061   -7750.0485   -748.75219     102002.7      46.7237      46.7237      46.7237 
   16000    92.354384   -8306.2847   -7743.8655   -673.20696     102002.7      46.7237      46.7237      46.7237 
   17000    89.743181   -8328.6862   -7782.1686   -695.33268     102002.7      46.7237      46.7237      46.7237 
   18000    90.528594   -8311.6551   -7760.3545    -794.3066     102002.7      46.7237      46.7237      46.7237 
   19000    90.035711   -8340.2608   -7791.9618   -554.07055     102002.7      46.7237      46.7237      46.7237 
   20000    91.876477    -8314.136   -7754.6271   -781.71624     102002.7      46.7237      46.7237      46.7237 
   21000    91.686448   -8339.0299   -7780.6782   -687.98232     102002.7      46.7237      46.7237      46.7237 
   22000     88.72435   -8303.8047   -7763.4916   -710.17633     102002.7      46.7237      46.7237      46.7237 
   23000    94.364727   -8326.2869   -7751.6251   -917.04288     102002.7      46.7237      46.7237      46.7237 
   24000    91.419702   -8331.0759   -7774.3486   -751.15527     102002.7      46.7237      46.7237      46.7237 
   25000    92.930191   -8321.3436   -7755.4178    -591.1449     102002.7      46.7237      46.7237      46.7237 
   26000    90.120664   -8319.1865   -7770.3701   -806.21879     102002.7      46.7237      46.7237      46.7237 
   27000    92.376769   -8320.8821   -7758.3265   -603.39014     102002.7      46.7237      46.7237      46.7237 
   28000    92.598288   -8305.8361   -7741.9315   -442.26185     102002.7      46.7237      46.7237      46.7237 
   29000    93.042633   -8322.9913   -7756.3808   -722.46507     102002.7      46.7237      46.7237      46.7237 
   30000    90.658403   -8326.3697   -7774.2786   -735.22031     102002.7      46.7237      46.7237      46.7237 
   31000    94.099994   -8335.8541   -7762.8044   -585.79194     102002.7      46.7237      46.7237      46.7237 
   32000     93.77473   -8303.4658   -7732.3969   -673.71317     102002.7      46.7237      46.7237      46.7237 
   33000    88.459148   -8313.4429   -7774.7448   -865.77001     102002.7      46.7237      46.7237      46.7237 
   34000    87.719417   -8317.3884   -7783.1952   -510.43163     102002.7      46.7237      46.7237      46.7237 
   35000    93.687959   -8321.2243   -7750.6839   -970.61261     102002.7      46.7237      46.7237      46.7237 
   36000    88.326727   -8323.2883   -7785.3967   -836.30287     102002.7      46.7237      46.7237      46.7237 
   37000    91.345915   -8305.1932   -7748.9153    -654.4663     102002.7      46.7237      46.7237      46.7237 
   38000    91.893528   -8323.3371   -7763.7244   -579.45418     102002.7      46.7237      46.7237      46.7237 
   39000    92.310831   -8304.8884   -7742.7344    -648.0516     102002.7      46.7237      46.7237      46.7237 
   40000     92.51204   -8315.4437   -7752.0643   -902.85425     102002.7      46.7237      46.7237      46.7237 
   41000    89.032347    -8322.304   -7780.1153   -836.60872     102002.7      46.7237      46.7237      46.7237 
   42000    93.248258   -8329.5859   -7761.7231    -630.1768     102002.7      46.7237      46.7237      46.7237 
   43000    92.147853   -8331.6781   -7770.5165   -855.23515     102002.7      46.7237      46.7237      46.7237 
   44000    89.127689   -8326.4945   -7783.7251   -697.16891     102002.7      46.7237      46.7237      46.7237 
   45000    90.012257   -8292.7975   -7744.6414   -757.82358     102002.7      46.7237      46.7237      46.7237 
   46000    91.563598   -8324.5587   -7766.9552   -563.97707     102002.7      46.7237      46.7237      46.7237 
   47000    90.087286    -8314.781   -7766.1679   -809.33297     102002.7      46.7237      46.7237      46.7237 
   48000    90.190534   -8317.2945   -7768.0526   -777.77257     102002.7      46.7237      46.7237      46.7237 
   49000    87.917629   -8302.5234    -7767.123   -807.27293     102002.7      46.7237      46.7237      46.7237 
   50000    93.589654    -8302.187   -7732.2452   -691.94681     102002.7      46.7237      46.7237      46.7237 
   51000    91.928329   -8335.0799   -7775.2552   -804.28847     102002.7      46.7237      46.7237      46.7237 
   52000    94.439805   -8316.9702   -7741.8511   -946.21808     102002.7      46.7237      46.7237      46.7237 
   53000    90.864396   -8313.6609   -7760.3153   -594.40467     102002.7      46.7237      46.7237      46.7237 
   54000    90.322027   -8324.8413   -7774.7987   -779.63777     102002.7      46.7237      46.7237      46.7237 
   55000    95.150649   -8325.0085   -7745.5606    -830.8893     102002.7      46.7237      46.7237      46.7237 
   56000     91.01306   -8335.4395   -7781.1886   -528.58778     102002.7      46.7237      46.7237      46.7237 
   57000    92.193645   -8317.2086   -7755.7683   -608.62162     102002.7      46.7237      46.7237      46.7237 
   58000    91.142328   -8316.7702   -7761.7321   -865.76452     102002.7      46.7237      46.7237      46.7237 
   59000    88.439036   -8323.7985   -7785.2229   -896.22843     102002.7      46.7237      46.7237      46.7237 
   60000    91.087789   -8312.0867   -7757.3807   -845.43582     102002.7      46.7237      46.7237      46.7237 
   61000    91.227643   -8305.8223   -7750.2646   -804.90816     102002.7      46.7237      46.7237      46.7237 
   62000    89.241149   -8304.1209   -7760.6606   -665.94933     102002.7      46.7237      46.7237      46.7237 
   63000    91.730316   -8321.7182   -7763.0994   -635.75645     102002.7      46.7237      46.7237      46.7237 
   64000    93.240504   -8320.2161   -7752.4005   -679.82645     102002.7      46.7237      46.7237      46.7237 
   65000    91.082447   -8295.3216   -7740.6482   -611.83986     102002.7      46.7237      46.7237      46.7237 
   66000    92.967371   -8298.7258   -7732.5736   -836.31946     102002.7      46.7237      46.7237      46.7237 
   67000    90.818472   -8317.5228   -7764.4569   -549.25034     102002.7      46.7237      46.7237      46.7237 
   68000    91.658639   -8317.1639   -7758.9816   -716.26363     102002.7      46.7237      46.7237      46.7237 
   69000    90.218901   -8303.1939   -7753.7793   -603.98888     102002.7      46.7237      46.7237      46.7237 
   70000    91.417787   -8309.1813   -7752.4657   -775.74093     102002.7      46.7237      46.7237      46.7237 
   71000    88.916602   -8315.4008   -7773.9169   -642.81785     102002.7      46.7237      46.7237      46.7237 
   72000    94.143892   -8310.9011   -7737.5841   -703.76866     102002.7      46.7237      46.7237      46.7237 
   73000    88.171385   -8301.8984   -7764.9528   -810.10913     102002.7      46.7237      46.7237      46.7237 
   74000    91.279786   -8323.9631    -7768.088   -851.82745     102002.7      46.7237      46.7237      46.7237 
   75000    91.617201   -8308.4037   -7750.4737   -713.04959     102002.7      46.7237      46.7237      46.7237 
   76000    94.220016   -8300.5586    -7726.778   -900.67021     102002.7      46.7237      46.7237      46.7237 
   77000    91.158012   -8318.9924   -7763.8588   -763.73204     102002.7      46.7237      46.7237      46.7237 
   78000    90.700363   -8308.7437   -7756.3971   -839.88142     102002.7      46.7237      46.7237      46.7237 
   79000    91.782671   -8305.4522   -7746.5146   -844.28927     102002.7      46.7237      46.7237      46.7237 
   80000    90.739131   -8296.1207    -7743.538   -763.43835     102002.7      46.7237      46.7237      46.7237 
   81000    93.232983   -8319.8858    -7752.116   -951.91219     102002.7      46.7237      46.7237      46.7237 
   82000    88.655233   -8327.9632    -7788.071   -719.34395     102002.7      46.7237      46.7237      46.7237 
   83000    89.230826   -8305.8024   -7762.4049   -963.29936     102002.7      46.7237      46.7237      46.7237 
   84000    91.390587    -8304.998   -7748.4481    -1099.029     102002.7      46.7237      46.7237      46.7237 
   85000     93.17586   -8315.3985   -7747.9766   -702.28288     102002.7      46.7237      46.7237      46.7237 
   86000    91.405987   -8295.9442   -7739.3005   -983.64423     102002.7      46.7237      46.7237      46.7237 
   87000    90.762025    -8294.682   -7741.9598   -518.36511     102002.7      46.7237      46.7237      46.7237 
   88000    91.852051   -8289.5409   -7730.1808   -1079.5632     102002.7      46.7237      46.7237      46.7237 
   89000    91.094067   -8296.6351   -7741.8909   -745.54189     102002.7      46.7237      46.7237      46.7237 
   90000    92.570333   -8317.4219   -7753.6876   -579.80501     102002.7      46.7237      46.7237      46.7237 
   91000     91.65338   -8297.9651   -7739.8148   -830.41369     102002.7      46.7237      46.7237      46.7237 
   92000    88.412824   -8309.1109   -7770.6949   -662.83518     102002.7      46.7237      46.7237      46.7237 
   93000    88.969866   -8303.8566   -7762.0483    -640.5787     102002.7      46.7237      46.7237      46.7237 
   94000    89.445235   -8301.8624   -7757.1593   -879.56845     102002.7      46.7237      46.7237      46.7237 
   95000    88.945093    -8288.976   -7747.3186   -520.41796     102002.7      46.7237      46.7237      46.7237 
   96000    92.094208   -8305.7487   -7744.9139   -724.64658     102002.7      46.7237      46.7237      46.7237 
   97000     92.26174    -8292.132   -7730.2769   -904.45429     102002.7      46.7237      46.7237      46.7237 
   98000    89.835765   -8303.3114     -7756.23   -962.59127     102002.7      46.7237      46.7237      46.7237 
   99000      87.8666   -8316.9983   -7781.9088   -750.00811     102002.7      46.7237      46.7237      46.7237 
  100000    93.267359   -8316.3126   -7748.3335   -611.60363     102002.7      46.7237      46.7237      46.7237 
  101000    90.456326   -8286.2991   -7735.4386   -581.25517     102002.7      46.7237      46.7237      46.7237 
  102000    89.629025   -8307.1008   -7761.2784   -700.93654     102002.7      46.7237      46.7237      46.7237 
  103000    89.753774   -8329.8461    -7783.264   -482.75878     102002.7      46.7237      46.7237      46.7237 
  104000    90.136809    -8304.974   -7756.0593   -725.48357     102002.7      46.7237      46.7237      46.7237 
  105000    88.019255   -8326.6886   -7790.6694   -663.51386     102002.7      46.7237      46.7237      46.7237 
  106000    90.292448   -8304.3044   -7754.4419   -563.07426     102002.7      46.7237      46.7237      46.7237 
  107000     90.68546   -8310.9477   -7758.6918   -701.54898     102002.7      46.7237      46.7237      46.7237 
  108000    90.923278   -8305.4449   -7751.7408   -739.12864     102002.7      46.7237      46.7237      46.7237 
  109000    91.600967   -8296.7458   -7738.9147     -801.657     102002.7      46.7237      46.7237      46.7237 
  110000    92.108937   -8317.6679   -7756.7434   -733.03457     102002.7      46.7237      46.7237      46.7237 
  111000    92.935968   -8324.7506   -7758.7896   -561.09325     102002.7      46.7237      46.7237      46.7237 
  112000    90.107346   -8309.6205   -7760.8852   -479.38079     102002.7      46.7237      46.7237      46.7237 
  113000    92.067869   -8328.9698   -7768.2954   -771.23809     102002.7      46.7237      46.7237      46.7237 
  114000    91.476358   -8300.0322     -7742.96   -735.13148     102002.7      46.7237      46.7237      46.7237 
  115000    90.988738   -8336.5644   -7782.4617   -880.83317     102002.7      46.7237      46.7237      46.7237 
  116000    91.132124   -8316.7194   -7761.7434   -862.24808     102002.7      46.7237      46.7237      46.7237 
  117000    94.804259   -8296.0546   -7718.7161   -587.39545     102002.7      46.7237      46.7237      46.7237 
  118000    90.454876   -8318.4364   -7767.5848    -734.6467     102002.7      46.7237      46.7237      46.7237 
  119000    89.207961     -8291.39   -7748.1318   -786.93518     102002.7      46.7237      46.7237      46.7237 
  120000    88.709696   -8315.6153   -7775.3915   -804.66044     102002.7      46.7237      46.7237      46.7237 
  121000    91.068368   -8297.6868   -7743.0991   -1056.3042     102002.7      46.7237      46.7237      46.7237 
  122000     92.79854   -8319.5428   -7754.4188   -596.12465     102002.7      46.7237      46.7237      46.7237 
  123000    89.238746   -8310.5796   -7767.1339   -849.74739     102002.7      46.7237      46.7237      46.7237 
  124000    91.409658   -8315.1225   -7758.4564   -577.11225     102002.7      46.7237      46.7237      46.7237 
  125000    93.378598   -8297.4222   -7728.7657   -772.63076     102002.7      46.7237      46.7237      46.7237 
  126000    91.835914   -8306.5424   -7747.2805   -799.03817     102002.7      46.7237      46.7237      46.7237 
  127000    88.581438   -8327.5476   -7788.1048   -497.11699     102002.7      46.7237      46.7237      46.7237 
  128000    91.647139   -8294.2807   -7736.1685   -633.32995     102002.7      46.7237      46.7237      46.7237 
  129000    93.277488   -8309.4787   -7741.4379   -773.81505     102002.7      46.7237      46.7237      46.7237 
  130000    92.122904   -8302.7242   -7741.7146    -973.6982     102002.7      46.7237      46.7237      46.7237 
  131000     92.04812   -8292.9424   -7732.3883   -739.95309     102002.7      46.7237      46.7237      46.7237 
  132000    90.655812   -8301.3285   -7749.2532   -723.46654     102002.7      46.7237      46.7237      46.7237 
  133000    93.619173   -8302.7922   -7732.6707   -855.96266     102002.7      46.7237      46.7237      46.7237 
  134000    92.949936   -8309.8285   -7743.7825   -860.04622     102002.7      46.7237      46.7237      46.7237 
  135000    89.129807   -8318.3675   -7775.5853   -720.53258     102002.7      46.7237      46.7237      46.7237 
  136000    91.695162   -8309.5116   -7751.1069   -646.94648     102002.7      46.7237      46.7237      46.7237 
  137000    90.802493   -8313.8785     -7760.91   -832.58759     102002.7      46.7237      46.7237      46.7237 
  138000    92.191155    -8300.321   -7738.8958   -786.34376     102002.7      46.7237      46.7237      46.7237 
  139000    93.477954   -8309.9953   -7740.7337   -747.30592     102002.7      46.7237      46.7237      46.7237 
  140000    89.940117    -8319.676   -7771.9591   -670.46962     102002.7      46.7237      46.7237      46.7237 
  141000    94.041812   -8298.1431   -7725.4477   -648.04698     102002.7      46.7237      46.7237      46.7237 
  142000     91.44577   -8313.2179   -7756.3319   -794.73391     102002.7      46.7237      46.7237      46.7237 
  143000    89.982604    -8300.649   -7752.6734   -519.64183     102002.7      46.7237      46.7237      46.7237 
  144000    92.070307   -8315.5246   -7754.8353   -586.44521     102002.7      46.7237      46.7237      46.7237 
  145000    88.923184   -8289.5501   -7748.0262   -754.84796     102002.7      46.7237      46.7237      46.7237 
  146000    90.445095   -8293.5188   -7742.7268   -727.67658     102002.7      46.7237      46.7237      46.7237 
  147000    88.493258   -8297.2358     -7758.33   -699.90432     102002.7      46.7237      46.7237      46.7237 
  148000    88.743297   -8315.1226   -7774.6941   -782.84887     102002.7      46.7237      46.7237      46.7237 
  149000    90.868344   -8314.8011   -7761.4315   -648.05825     102002.7      46.7237      46.7237      46.7237 
  150000    91.048681   -8302.5172   -7748.0494   -969.20068     102002.7      46.7237      46.7237      46.7237 
  151000    91.364001    -8295.499    -7739.111   -714.95797     102002.7      46.7237      46.7237      46.7237 
  152000    92.221205   -8323.5041   -7761.8959   -826.57205     102002.7      46.7237      46.7237      46.7237 
  153000    89.439924   -8289.3416   -7744.6708   -673.42369     102002.7      46.7237      46.7237      46.7237 
  154000    91.375924   -8310.6737   -7754.2131    -741.8829     102002.7      46.7237      46.7237      46.7237 
  155000    92.240048   -8300.0763   -7738.3533   -734.73416     102002.7      46.7237      46.7237      46.7237 
  156000    91.877073   -8296.7766   -7737.2641   -512.87893     102002.7      46.7237      46.7237      46.7237 
  157000    88.882186   -8307.9531   -7766.6788   -931.12009     102002.7      46.7237      46.7237      46.7237 
  158000    90.427144   -8311.2626   -7760.5798   -741.54332     102002.7      46.7237      46.7237      46.7237 
  159000    90.345207   -8310.5666   -7760.3828   -789.02877     102002.7      46.7237      46.7237      46.7237 
  160000    90.536616   -8306.6064   -7755.2569   -638.76899     102002.7      46.7237      46.7237      46.7237 
  161000    91.288707   -8311.9326   -7756.0031   -943.53874     102002.7      46.7237      46.7237      46.7237 
  162000    93.664528   -8299.5548   -7729.1571   -867.45281     102002.7      46.7237      46.7237      46.7237 
  163000    88.830153   -8298.2049   -7757.2475   -607.86849     102002.7      46.7237      46.7237      46.7237 
  164000    93.315107   -8311.6598   -7743.3899   -699.80781     102002.7      46.7237      46.7237      46.7237 
  165000    90.328946   -8302.5387    -7752.454   -672.58362     102002.7      46.7237      46.7237      46.7237 
  166000    89.810013   -8300.2386    -7753.314    -618.6841     102002.7      46.7237      46.7237      46.7237 
  167000    88.409748   -8304.0484   -7765.6511   -646.98989     102002.7      46.7237      46.7237      46.7237 
  168000    88.961672   -8321.0143   -7779.2559   -788.93455     102002.7      46.7237      46.7237      46.7237 
  169000     90.70059   -8315.3341   -7762.9861   -452.38765     102002.7      46.7237      46.7237      46.7237 
  170000    90.318405   -8307.0171   -7756.9965   -552.84904     102002.7      46.7237      46.7237      46.7237 
  171000    91.240682   -8288.0232   -7732.3862   -765.30987     102002.7      46.7237      46.7237      46.7237 
  172000    91.935876   -8303.6335   -7743.7628   -613.30903     102002.7      46.7237      46.7237      46.7237 
  173000    93.007352   -8300.6916   -7734.2959   -464.64046     102002.7      46.7237      46.7237      46.7237 
  174000    90.240995   -8294.0321    -7744.483   -565.34075     102002.7      46.7237      46.7237      46.7237 
  175000    92.098988   -8297.2502   -7736.3862   -617.47769     102002.7      46.7237      46.7237      46.7237 
  176000    91.043807   -8307.9756   -7753.5375   -488.02109     102002.7      46.7237      46.7237      46.7237 
  177000    91.495324   -8308.1693   -7750.9815   -873.29376     102002.7      46.7237      46.7237      46.7237 
  178000    91.516725   -8283.3649   -7726.0468   -781.39379     102002.7      46.7237      46.7237      46.7237 
  179000    89.506343   -8296.6917   -7751.6164   -800.41731     102002.7      46.7237      46.7237      46.7237 
  180000       90.549   -8313.0989   -7761.6741   -855.70074     102002.7      46.7237      46.7237      46.7237 
  181000    93.259389     -8306.67   -7738.7394   -807.55702     102002.7      46.7237      46.7237      46.7237 
  182000     91.47284   -8308.3677   -7751.3168   -669.19644     102002.7      46.7237      46.7237      46.7237 
  183000    87.603143   -8276.7913   -7743.3061   -823.64615     102002.7      46.7237      46.7237      46.7237 
  184000      94.1151   -8296.6226    -7723.481   -605.55464     102002.7      46.7237      46.7237      46.7237 
  185000    93.275294   -8298.7765    -7730.749    -1092.901     102002.7      46.7237      46.7237      46.7237 
  186000    90.294175   -8297.2987   -7747.4257   -570.08516     102002.7      46.7237      46.7237      46.7237 
  187000    92.130952   -8305.7629   -7744.7043   -683.94289     102002.7      46.7237      46.7237      46.7237 
  188000    90.063545   -8317.4963   -7769.0278   -649.95939     102002.7      46.7237      46.7237      46.7237 
  189000     89.66846   -8302.6112   -7756.5487    -727.2349     102002.7      46.7237      46.7237      46.7237 
  190000    91.184465   -8311.6849   -7756.3902   -660.80445     102002.7      46.7237      46.7237      46.7237 
  191000    91.778077   -8324.9199   -7766.0102   -483.75113     102002.7      46.7237      46.7237      46.7237 
  192000    91.852777   -8310.8078   -7751.4432   -802.94157     102002.7      46.7237      46.7237      46.7237 
  193000    93.568741   -8299.3567   -7729.5422   -706.33524     102002.7      46.7237      46.7237      46.7237 
  194000    91.806798   -8306.8218   -7747.7372   -805.02863     102002.7      46.7237      46.7237      46.7237 
  195000    91.547347   -8305.3217   -7747.8171   -893.97466     102002.7      46.7237      46.7237      46.7237 
  196000    90.726119   -8287.4567   -7734.9532   -961.04403     102002.7      46.7237      46.7237      46.7237 
  197000    91.145457   -8310.1755   -7755.1184   -780.08714     102002.7      46.7237      46.7237      46.7237 
  198000    89.405787    -8317.031   -7772.5681   -888.38423     102002.7      46.7237      46.7237      46.7237 
  199000    90.529623   -8310.2754   -7758.9686   -858.44413     102002.7      46.7237      46.7237      46.7237 
  200000    91.880753     -8310.18   -7750.6451   -871.91339     102002.7      46.7237      46.7237      46.7237 
  201000     89.29302   -8301.6235   -7757.8474   -911.45742     102002.7      46.7237      46.7237      46.7237 
  202000    92.359325    -8316.116   -7753.6667   -1110.1406     102002.7      46.7237      46.7237      46.7237 
  203000    90.230245   -8307.8258   -7758.3421   -845.67359     102002.7      46.7237      46.7237      46.7237 
  204000    90.214244    -8292.489   -7743.1028   -769.27952     102002.7      46.7237      46.7237      46.7237 
  205000    87.544458   -8296.5503   -7763.4225   -740.80751     102002.7      46.7237      46.7237      46.7237 
  206000    91.220945   -8308.4628   -7752.9459   -749.50452     102002.7      46.7237      46.7237      46.7237 
  207000     90.89583   -8300.4243   -7746.8873   -831.65647     102002.7      46.7237      46.7237      46.7237 
  208000    90.980634   -8311.1376   -7757.0842   -648.00758     102002.7      46.7237      46.7237      46.7237 
  209000    88.403523   -8282.2251   -7743.8657   -686.20626     102002.7      46.7237      46.7237      46.7237 
  210000    89.645722    -8317.189   -7771.2649     -881.825     102002.7      46.7237      46.7237      46.7237 
  211000    88.522576   -8297.3335   -7758.2492   -760.42875     102002.7      46.7237      46.7237      46.7237 
  212000    89.834019   -8314.1782   -7767.1074   -589.04197     102002.7      46.7237      46.7237      46.7237 
  213000    90.692753   -8312.8667   -7760.5664   -828.60003     102002.7      46.7237      46.7237      46.7237 
  214000    90.039049   -8294.6701   -7746.3508   -611.67085     102002.7      46.7237      46.7237      46.7237 
  215000    91.436012     -8294.99   -7738.1634    -551.7207     102002.7      46.7237      46.7237      46.7237 
  216000    92.816095   -8309.4389   -7744.2079   -562.55305     102002.7      46.7237      46.7237      46.7237 
  217000    89.760335   -8305.0226   -7758.4006   -510.42294     102002.7      46.7237      46.7237      46.7237 
  218000    93.255386    -8302.206   -7734.2998   -771.30223     102002.7      46.7237      46.7237      46.7237 
  219000    90.411675   -8294.8106    -7744.222   -929.08899     102002.7      46.7237      46.7237      46.7237 
  220000    94.400078   -8308.1211    -7733.244   -796.34557     102002.7      46.7237      46.7237      46.7237 
  221000    90.796476    -8310.968    -7758.036   -898.01398     102002.7      46.7237      46.7237      46.7237 
  222000    88.715092   -8295.0155   -7754.7588    -849.6954     102002.7      46.7237      46.7237      46.7237 
  223000    91.345925    -8298.605    -7742.327   -768.45065     102002.7      46.7237      46.7237      46.7237 
  224000     92.89214   -8298.9721    -7733.278   -773.32763     102002.7      46.7237      46.7237      46.7237 
  225000    92.267769   -8301.2417   -7739.3499   -542.95176     102002.7      46.7237      46.7237      46.7237 
  226000    87.185299   -8296.0564   -7765.1158   -826.50253     102002.7      46.7237      46.7237      46.7237 
  227000    90.449598    -8305.843   -7755.0235   -644.03001     102002.7      46.7237      46.7237      46.7237 
  228000    92.607605   -8298.7442   -7734.7829   -681.56041     102002.7      46.7237      46.7237      46.7237 
  229000    92.089089   -8298.8546   -7738.0509    -741.1374     102002.7      46.7237      46.7237      46.7237 
  230000    93.524416   -8306.1416   -7736.5971   -743.77957     102002.7      46.7237      46.7237      46.7237 
  231000    88.815429    -8293.231   -7752.3633   -693.43077     102002.7      46.7237      46.7237      46.7237 
  232000    89.691854   -8322.8994   -7776.6944   -700.29048     102002.7      46.7237      46.7237      46.7237 
  233000    91.713069   -8307.9437   -7749.4299   -736.39601     102002.7      46.7237      46.7237      46.7237 
  234000    93.162272   -8290.6274   -7723.2883   -785.24346     102002.7      46.7237      46.7237      46.7237 
  235000    89.128967   -8310.1904   -7767.4132   -663.33227     102002.7      46.7237      46.7237      46.7237 
  236000    90.604964   -8296.1946    -7744.429   -630.41852     102002.7      46.7237      46.7237      46.7237 
  237000    91.892048   -8305.2371   -7745.6334   -477.20296     102002.7      46.7237      46.7237      46.7237 
  238000    89.267744    -8312.231   -7768.6087   -748.12158     102002.7      46.7237      46.7237      46.7237 
  239000    91.757703   -8321.4882   -7762.7026   -537.27711     102002.7      46.7237      46.7237      46.7237 
  240000    91.961529   -8325.1313   -7765.1045   -737.23358     102002.7      46.7237      46.7237      46.7237 
  241000    94.246424   -8326.3814     -7752.44   -753.16297     102002.7      46.7237      46.7237      46.7237 
  242000    88.951318   -8308.7028   -7767.0075   -655.34605     102002.7      46.7237      46.7237      46.7237 
  243000    88.950466   -8312.7897   -7771.0996   -752.03539     102002.7      46.7237      46.7237      46.7237 
  244000    90.413316    -8302.256   -7751.6574   -499.28462     102002.7      46.7237      46.7237      46.7237 
  245000    88.147117   -8291.7671   -7754.9692   -386.51509     102002.7      46.7237      46.7237      46.7237 
  246000    90.049448   -8313.0763   -7764.6936   -632.75863     102002.7      46.7237      46.7237      46.7237 
  247000    90.650481   -8300.9652   -7748.9224   -649.41841     102002.7      46.7237      46.7237      46.7237 
  248000    90.787747   -8312.6362   -7759.7575   -641.76442     102002.7      46.7237      46.7237      46.7237 
  249000     91.06553   -8310.4965   -7755.9261   -895.63505     102002.7      46.7237      46.7237      46.7237 
  250000    90.864429   -8324.0586   -7770.7129   -502.42601     102002.7      46.7237      46.7237      46.7237 
  251000    91.512274   -8308.0284   -7750.7374   -575.59258     102002.7      46.7237      46.7237      46.7237 
  252000    89.035052   -8334.0495   -7791.8443   -915.81806     102002.7      46.7237      46.7237      46.7237 
  253000     92.67318   -8316.8835   -7752.5228   -769.14676     102002.7      46.7237      46.7237      46.7237 
  254000    90.767563   -8324.4777   -7771.7218   -783.45063     102002.7      46.7237      46.7237      46.7237 
  255000    90.571188   -8313.8813   -7762.3214   -465.73197     102002.7      46.7237      46.7237      46.7237 
  256000    90.344447   -8313.3138   -7763.1347   -652.20374     102002.7      46.7237      46.7237      46.7237 
  257000    91.402894   -8322.4637   -7765.8388   -881.12444     102002.7      46.7237      46.7237      46.7237 
  258000    93.733399   -8299.8802    -7729.063   -703.60179     102002.7      46.7237      46.7237      46.7237 
  259000    90.475342   -8328.7962   -7777.8199   -561.30711     102002.7      46.7237      46.7237      46.7237 
  260000    90.517271   -8310.6196    -7759.388   -462.39656     102002.7      46.7237      46.7237      46.7237 
  261000    89.680563   -8312.9923   -7766.8561   -765.51186     102002.7      46.7237      46.7237      46.7237 
  262000    90.882587   -8300.4511   -7746.9948   -910.03502     102002.7      46.7237      46.7237      46.7237 
  263000    91.419173    -8295.819   -7739.0949   -475.06071     102002.7      46.7237      46.7237      46.7237 
  264000    89.832466   -8308.6892   -7761.6279   -825.78558     102002.7      46.7237      46.7237      46.7237 
  265000    93.042349   -8288.2816   -7721.6727   -611.93563     102002.7      46.7237      46.7237      46.7237 
  266000    90.075333   -8304.8396   -7756.2993   -418.22881     102002.7      46.7237      46.7237      46.7237 
  267000    91.362443   -8323.8843   -7767.5058   -683.65058     102002.7      46.7237      46.7237      46.7237 
  268000    89.055204   -8304.8614   -7762.5334   -541.17094     102002.7      46.7237      46.7237      46.7237 
  269000     89.89041   -8310.8348   -7763.4207   -718.64338     102002.7      46.7237      46.7237      46.7237 
  270000    93.006384   -8300.2642   -7733.8744   -763.73406     102002.7      46.7237      46.7237      46.7237 
  271000    90.419303   -8310.0009   -7759.3659   -652.12726     102002.7      46.7237      46.7237      46.7237 
  272000    88.981567   -8305.0075    -7763.128   -898.53326     102002.7      46.7237      46.7237      46.7237 
  273000    91.479369    -8302.321   -7745.2304    -598.8669     102002.7      46.7237      46.7237      46.7237 
  274000    89.678182   -8314.9712   -7768.8495   -815.12403     102002.7      46.7237      46.7237      46.7237 
  275000    87.563768   -8316.8303   -7783.5849   -750.19868     102002.7      46.7237      46.7237      46.7237 
  276000    91.351701    -8313.895   -7757.5819   -576.81667     102002.7      46.7237      46.7237      46.7237 
  277000    91.471898    -8290.469   -7733.4239   -568.61535     102002.7      46.7237      46.7237      46.7237 
  278000    89.907297   -8309.2169   -7761.6999   -499.72947     102002.7      46.7237      46.7237      46.7237 
  279000    90.809095   -8292.2459   -7739.2371   -463.99919     102002.7      46.7237      46.7237      46.7237 
  280000    91.067283   -8312.5734   -7757.9924    -662.6265     102002.7      46.7237      46.7237      46.7237 
  281000    92.407902   -8318.5276   -7755.7824   -486.84311     102002.7      46.7237      46.7237      46.7237 
  282000    94.631017    -8297.048   -7720.7645   -517.02438     102002.7      46.7237      46.7237      46.7237 
  283000     91.30312   -8318.0395   -7762.0222   -543.92105     102002.7      46.7237      46.7237      46.7237 
  284000    90.925878   -8316.8879    -7763.168   -722.09315     102002.7      46.7237      46.7237      46.7237 
  285000    90.382941   -8321.8521   -7771.4385   -803.30624     102002.7      46.7237      46.7237      46.7237 
  286000    91.888785   -8334.3449   -7774.7611    -898.8595     102002.7      46.7237      46.7237      46.7237 
  287000    89.794172   -8302.0447   -7755.2166   -699.41289     102002.7      46.7237      46.7237      46.7237 
  288000    90.244295   -8300.8322    -7751.263   -764.93412     102002.7      46.7237      46.7237      46.7237 
  289000    90.806835   -8324.3309   -7771.3359   -818.59062     102002.7      46.7237      46.7237      46.7237 
  290000    91.769304   -8322.1622   -7763.3059   -722.02616     102002.7      46.7237      46.7237      46.7237 
  291000    93.232667   -8323.7808   -7756.0129   -595.89396     102002.7      46.7237      46.7237      46.7237 
  292000    91.462755   -8298.4124    -7741.423   -870.56223     102002.7      46.7237      46.7237      46.7237 
  293000    94.676532   -8321.9621   -7745.4014   -488.89335     102002.7      46.7237      46.7237      46.7237 
  294000    91.026066   -8313.4038   -7759.0737    -847.3567     102002.7      46.7237      46.7237      46.7237 
  295000    86.621548    -8325.509   -7798.0015   -842.93058     102002.7      46.7237      46.7237      46.7237 
  296000     91.20595   -8316.6549   -7761.2294   -863.81247     102002.7      46.7237      46.7237      46.7237 
  297000    87.237513    -8297.881   -7766.6225   -1068.3246     102002.7      46.7237      46.7237      46.7237 
  298000    91.653229   -8298.2433   -7740.0939   -868.41474     102002.7      46.7237      46.7237      46.7237 
  299000    91.844885   -8288.1264   -7728.8099   -864.88529     102002.7      46.7237      46.7237      46.7237 
  300000    92.783485   -8304.2776   -7739.2452   -817.97383     102002.7      46.7237      46.7237      46.7237 
  301000    94.518704   -8302.8557   -7727.2562   -551.80662     102002.7      46.7237      46.7237      46.7237 
  302000    89.752232   -8300.1562   -7753.5835   -871.98864     102002.7      46.7237      46.7237      46.7237 
  303000    90.950666   -8308.6377   -7754.7668   -1080.9447     102002.7      46.7237      46.7237      46.7237 
  304000    89.560918   -8308.4459   -7763.0383   -985.51063     102002.7      46.7237      46.7237      46.7237 
  305000    90.816005   -8318.0604   -7765.0095   -623.52439     102002.7      46.7237      46.7237      46.7237 
  306000    90.016787   -8291.6528   -7743.4691   -923.40124     102002.7      46.7237      46.7237      46.7237 
  307000    89.734365   -8295.1312   -7748.6673   -363.89693     102002.7      46.7237      46.7237      46.7237 
  308000     90.19171   -8298.3931   -7749.1441   -918.48555     102002.7      46.7237      46.7237      46.7237 
  309000    88.120445   -8285.4575    -7748.822   -982.09777     102002.7      46.7237      46.7237      46.7237 
  310000    90.429601   -8323.6152   -7772.9175   -562.73313     102002.7      46.7237      46.7237      46.7237 
  311000    88.990395    -8290.387   -7748.4537   -668.58235     102002.7      46.7237      46.7237      46.7237 
  312000    91.675042   -8315.1442    -7756.862   -822.35211     102002.7      46.7237      46.7237      46.7237 
  313000     91.95639   -8315.4063   -7755.4108   -838.29333     102002.7      46.7237      46.7237      46.7237 
  314000    91.482172   -8311.0824   -7753.9747   -717.65286     102002.7      46.7237      46.7237      46.7237 
  315000     91.50522   -8316.3392   -7759.0912   -800.83445     102002.7      46.7237      46.7237      46.7237 
  316000    90.576544   -8299.5297   -7747.9371   -901.32557     102002.7      46.7237      46.7237      46.7237 
  317000    93.019594   -8311.1454   -7744.6751   -1054.9417     102002.7      46.7237      46.7237      46.7237 
  318000    88.545902   -8312.6408   -7773.4144   -723.13313     102002.7      46.7237      46.7237      46.7237 
  319000      92.0125   -8310.2097   -7749.8724   -739.70987     102002.7      46.7237      46.7237      46.7237 
  320000    93.688937   -8308.3755   -7737.8291   -845.59869     102002.7      46.7237      46.7237      46.7237 
  321000    89.508812   -8309.6033    -7764.513   -1000.7379     102002.7      46.7237      46.7237      46.7237 
  322000    91.705693   -8330.2909    -7771.822   -771.00795     102002.7      46.7237      46.7237      46.7237 
  323000    89.114293    -8320.279   -7777.5912   -529.67407     102002.7      46.7237      46.7237      46.7237 
  324000    90.945721   -8281.8983   -7728.0575   -624.79411     102002.7      46.7237      46.7237      46.7237 
  325000     91.47218   -8326.9435   -7769.8966   -859.06696     102002.7      46.7237      46.7237      46.7237 
  326000    91.673406    -8303.043   -7744.7708   -499.56952     102002.7      46.7237      46.7237      46.7237 
  327000    88.433606    -8317.451   -7778.9085   -641.65513     102002.7      46.7237      46.7237      46.7237 
  328000    90.816981   -8313.1368     -7760.08   -643.84251     102002.7      46.7237      46.7237      46.7237 
  329000    93.208913    -8320.472   -7752.8489   -693.69913     102002.7      46.7237      46.7237      46.7237 
  330000    91.465001   -8316.8779   -7759.8748   -563.84105     102002.7      46.7237      46.7237      46.7237 
  331000    90.847103   -8296.3059   -7743.0657   -680.42337     102002.7      46.7237      46.7237      46.7237 
  332000    91.041282    -8326.053   -7771.6303   -616.06698     102002.7      46.7237      46.7237      46.7237 
  333000    91.301001   -8316.1282   -7760.1238   -656.26605     102002.7      46.7237      46.7237      46.7237 
  334000    88.451747   -8307.5156   -7768.8626   -588.15805     102002.7      46.7237      46.7237      46.7237 
  335000    91.445144   -8300.8964   -7744.0142   -795.52862     102002.7      46.7237      46.7237      46.7237 
  336000    89.449702   -8297.5604   -7752.8301   -649.66804     102002.7      46.7237      46.7237      46.7237 
  337000     93.22441   -8289.0529   -7721.3354   -741.52293     102002.7      46.7237      46.7237      46.7237 
  338000    89.742457     -8302.77   -7756.2569    -776.7162     102002.7      46.7237      46.7237      46.7237 
  339000    94.004192    -8304.191   -7731.7248   -744.03717     102002.7      46.7237      46.7237      46.7237 
  340000    88.686192   -8302.1365   -7762.0557   -542.05623     102002.7      46.7237      46.7237      46.7237 
  341000    91.252912   -8333.9898   -7778.2783   -653.27345     102002.7      46.7237      46.7237      46.7237 
  342000    91.748408   -8329.7395   -7771.0105   -665.65591     102002.7      46.7237      46.7237      46.7237 
  343000     93.04092   -8293.7953   -7727.1952   -488.97925     102002.7      46.7237      46.7237      46.7237 
  344000    90.068999   -8309.2659   -7760.7642   -693.79345     102002.7      46.7237      46.7237      46.7237 
  345000    90.274141   -8299.0204   -7749.2694   -544.06324     102002.7      46.7237      46.7237      46.7237 
  346000    86.804257   -8308.7936   -7780.1734   -880.42287     102002.7      46.7237      46.7237      46.7237 
  347000    91.818706   -8321.0905   -7761.9334   -628.87115     102002.7      46.7237      46.7237      46.7237 
  348000    89.613152   -8310.8489   -7765.1232   -526.29084     102002.7      46.7237      46.7237      46.7237 
  349000    89.652586   -8313.1297   -7767.1638   -655.60064     102002.7      46.7237      46.7237      46.7237 
  350000    91.834337   -8315.4104   -7756.1581   -749.16937     102002.7      46.7237      46.7237      46.7237 
  351000    92.371927   -8290.2473   -7727.7212   -542.52784     102002.7      46.7237      46.7237      46.7237 
  352000    91.931191   -8285.7572   -7725.9151   -754.69956     102002.7      46.7237      46.7237      46.7237 
  353000    91.834214   -8308.1232   -7748.8717   -785.73569     102002.7      46.7237      46.7237      46.7237 
  354000    89.639013   -8317.0104   -7771.1272   -949.63686     102002.7      46.7237      46.7237      46.7237 
  355000    92.303813   -8307.3435   -7745.2322   -716.53414     102002.7      46.7237      46.7237      46.7237 
  356000    93.717503   -8312.4323   -7741.7119   -824.67826     102002.7      46.7237      46.7237      46.7237 
  357000    91.288508   -8320.5299   -7764.6016   -641.09322     102002.7      46.7237      46.7237      46.7237 
  358000     90.67187   -8290.5776   -7738.4045   -503.00498     102002.7      46.7237      46.7237      46.7237 
  359000    91.166638   -8313.7169   -7758.5307   -890.49529     102002.7      46.7237      46.7237      46.7237 
  360000    91.179729   -8320.6617   -7765.3959   -867.01635     102002.7      46.7237      46.7237      46.7237 
  361000    90.423612   -8320.8083   -7770.1471   -769.73314     102002.7      46.7237      46.7237      46.7237 
  362000    91.762142   -8303.3848   -7744.5722   -816.42894     102002.7      46.7237      46.7237      46.7237 
  363000    90.005123   -8312.0413   -7763.9285    -672.7744     102002.7      46.7237      46.7237      46.7237 
  364000    90.834299   -8306.3917   -7753.2294   -789.45161     102002.7      46.7237      46.7237      46.7237 
  365000    88.140897   -8316.0156   -7779.2557   -867.35769     102002.7      46.7237      46.7237      46.7237 
  366000    90.231118   -8309.8118   -7760.3228   -800.64329     102002.7      46.7237      46.7237      46.7237 
  367000     91.57431   -8311.4056   -7753.7368   -978.87898     102002.7      46.7237      46.7237      46.7237 
  368000    87.700641   -8301.3703   -7767.2914   -705.83266     102002.7      46.7237      46.7237      46.7237 
  369000    92.257893   -8298.1155   -7736.2839   -840.18423     102002.7      46.7237      46.7237      46.7237 
  370000     91.55443   -8320.1969   -7762.6492   -706.82137     102002.7      46.7237      46.7237      46.7237 
  371000    91.468892   -8298.1906   -7741.1638   -724.13918     102002.7      46.7237      46.7237      46.7237 
  372000    91.341747   -8325.3191   -7769.0666   -727.58737     102002.7      46.7237      46.7237      46.7237 
  373000    91.032215   -8304.1466   -7749.7791   -817.95215     102002.7      46.7237      46.7237      46.7237 
  374000    87.963878   -8305.9925   -7770.3105   -737.38273     102002.7      46.7237      46.7237      46.7237 
  375000    91.923541   -8300.6676   -7740.8721   -674.54984     102002.7      46.7237      46.7237      46.7237 
  376000    89.099341   -8327.1762   -7784.5795   -693.45466     102002.7      46.7237      46.7237      46.7237 
  377000     92.44554   -8309.5877   -7746.6133   -666.51161     102002.7      46.7237      46.7237      46.7237 
  378000    88.325938   -8317.6632   -7779.7764   -833.99008     102002.7      46.7237      46.7237      46.7237 
  379000    89.392032   -8315.3812    -7771.002   -823.03805     102002.7      46.7237      46.7237      46.7237 
  380000    93.194795    -8309.588   -7742.0508   -760.87875     102002.7      46.7237      46.7237      46.7237 
  381000    88.686782   -8305.8887   -7765.8044   -773.93661     102002.7      46.7237      46.7237      46.7237 
  382000    91.896535   -8324.8931    -7765.262    -832.5415     102002.7      46.7237      46.7237      46.7237 
  383000    92.294572   -8285.1362   -7723.0812   -703.97338     102002.7      46.7237      46.7237      46.7237 
  384000    89.076471   -8323.2557   -7780.7983   -578.54435     102002.7      46.7237      46.7237      46.7237 
  385000    91.999742   -8309.4502   -7749.1906   -782.87073     102002.7      46.7237      46.7237      46.7237 
  386000    93.000287   -8291.7064   -7725.3537   -500.28633     102002.7      46.7237      46.7237      46.7237 
  387000    90.378378   -8309.9885   -7759.6027   -559.02592     102002.7      46.7237      46.7237      46.7237 
  388000    90.057657   -8302.2052   -7753.7725   -759.43916     102002.7      46.7237      46.7237      46.7237 
  389000     91.21116   -8322.7206   -7767.2633   -543.33051     102002.7      46.7237      46.7237      46.7237 
  390000    90.638988   -8303.2799    -7751.307   -938.89708     102002.7      46.7237      46.7237      46.7237 
  391000    90.416119   -8318.5541   -7767.9385   -583.17265     102002.7      46.7237      46.7237      46.7237 
  392000    89.074829    -8305.219   -7762.7715   -731.13842     102002.7      46.7237      46.7237      46.7237 
  393000    91.025094   -8312.5174   -7758.1933   -790.16055     102002.7      46.7237      46.7237      46.7237 
  394000     89.38268   -8325.0273   -7780.7051   -494.80101     102002.7      46.7237      46.7237      46.7237 
  395000    89.736224   -8302.8778   -7756.4026   -834.25653     102002.7      46.7237      46.7237      46.7237 
  396000     89.90903    -8283.946   -7736.4185   -672.22361     102002.7      46.7237      46.7237      46.7237 
  397000    92.397024   -8317.0929    -7754.414   -505.55273     102002.7      46.7237      46.7237      46.7237 
  398000    90.781584   -8307.3119   -7754.4707   -793.78426     102002.7      46.7237      46.7237      46.7237 
  399000    90.392859   -8296.4884   -7746.0144   -715.61917     102002.7      46.7237      46.7237      46.7237 
  400000    90.804659   -8320.2764   -7767.2947   -664.99727     102002.7      46.7237      46.7237      46.7237 
  401000    91.908256   -8315.0949   -7755.3925     -620.303     102002.7      46.7237      46.7237      46.7237 
  402000    90.147332   -8316.9436   -7767.9649   -499.21399     102002.7      46.7237      46.7237      46.7237 
  403000    88.667207   -8318.6267   -7778.6616    -450.4207     102002.7      46.7237      46.7237      46.7237 
  404000    90.368481   -8289.6648   -7739.3393   -774.75267     102002.7      46.7237      46.7237      46.7237 
  405000    90.346227   -8309.6351   -7759.4451   -577.72633     102002.7      46.7237      46.7237      46.7237 
  406000    92.535081   -8325.7037    -7762.184   -612.27276     102002.7      46.7237      46.7237      46.7237 
  407000    92.770129   -8309.2886   -7744.3375   -710.53618     102002.7      46.7237      46.7237      46.7237 
  408000    90.706432   -8309.2746   -7756.8911   -550.01173     102002.7      46.7237      46.7237      46.7237 
  409000    91.105169   -8299.5364   -7744.7246   -695.95641     102002.7      46.7237      46.7237      46.7237 
  410000    90.258992   -8311.8018    -7762.143   -754.46505     102002.7      46.7237      46.7237      46.7237 
  411000    90.970976   -8302.4208   -7748.4262   -582.71767     102002.7      46.7237      46.7237      46.7237 
  412000    90.417706   -8343.8691   -7793.2438   -642.25289     102002.7      46.7237      46.7237      46.7237 
  413000    91.015337   -8316.1702   -7761.9055   -591.67659     102002.7      46.7237      46.7237      46.7237 
  414000    91.011245    -8297.639   -7743.3991   -875.66319     102002.7      46.7237      46.7237      46.7237 
  415000    88.885499   -8301.0298   -7759.7353   -781.25805     102002.7      46.7237      46.7237      46.7237 
  416000    92.845921   -8308.7524   -7743.3398   -637.83506     102002.7      46.7237      46.7237      46.7237 
  417000    92.927798   -8309.9865   -7744.0753    -754.0882     102002.7      46.7237      46.7237      46.7237 
  418000    90.278195   -8311.3056   -7761.5299   -858.35527     102002.7      46.7237      46.7237      46.7237 
  419000    89.937328   -8284.9033   -7737.2034   -895.70581     102002.7      46.7237      46.7237      46.7237 
  420000    92.172261   -8309.7104   -7748.4002   -783.65215     102002.7      46.7237      46.7237      46.7237 
  421000    90.216441    -8311.464   -7762.0643   -966.88157     102002.7      46.7237      46.7237      46.7237 
  422000    90.600844   -8316.8531   -7765.1126    -965.8856     102002.7      46.7237      46.7237      46.7237 
  423000    92.727646   -8311.3172   -7746.6249   -609.14911     102002.7      46.7237      46.7237      46.7237 
  424000    88.711072   -8308.8793   -7768.6471   -1077.3716     102002.7      46.7237      46.7237      46.7237 
  425000    90.836032   -8310.3212   -7757.1484   -488.82056     102002.7      46.7237      46.7237      46.7237 
  426000    92.468587   -8320.4115   -7757.2968   -675.74518     102002.7      46.7237      46.7237      46.7237 
  427000    89.910516   -8326.0978   -7778.5612   -915.62041     102002.7      46.7237      46.7237      46.7237 
  428000    94.637928   -8319.6708   -7743.3452   -594.54212     102002.7      46.7237      46.7237      46.7237 
  429000     90.15453   -8303.9521   -7754.9295     -639.457     102002.7      46.7237      46.7237      46.7237 
  430000    89.509056   -8327.8432   -7782.7514   -812.15543     102002.7      46.7237      46.7237      46.7237 
  431000    91.973083   -8327.9932    -7767.896    -554.5989     102002.7      46.7237      46.7237      46.7237 
  432000    90.809326   -8288.3879   -7735.3777    -591.8302     102002.7      46.7237      46.7237      46.7237 
  433000    90.294609   -8306.4395   -7756.5639    -731.3457     102002.7      46.7237      46.7237      46.7237 
  434000     92.62126   -8321.9392   -7757.8947   -885.95719     102002.7      46.7237      46.7237      46.7237 
  435000    90.375821   -8325.5119   -7775.1417   -698.66127     102002.7      46.7237      46.7237      46.7237 
  436000    89.977981   -8303.1888   -7755.2413   -771.98412     102002.7      46.7237      46.7237      46.7237 
  437000    89.796799   -8309.1079   -7762.2638   -695.70845     102002.7      46.7237      46.7237      46.7237 
  438000    89.429421   -8319.6464   -7775.0396   -790.86706     102002.7      46.7237      46.7237      46.7237 
  439000    90.775284   -8303.2258   -7750.4229   -655.19189     102002.7      46.7237      46.7237      46.7237 
  440000    90.785531   -8319.8268   -7766.9615   -534.25302     102002.7      46.7237      46.7237      46.7237 
  441000    94.105755   -8316.3578   -7743.2731   -669.53531     102002.7      46.7237      46.7237      46.7237 
  442000    92.338603   -8294.4119   -7732.0888   -678.17032     102002.7      46.7237      46.7237      46.7237 
  443000    90.482035   -8315.6437   -7764.6267   -894.69783     102002.7      46.7237      46.7237      46.7237 
  444000    89.311642   -8319.2191   -7775.3295   -615.08316     102002.7      46.7237      46.7237      46.7237 
  445000    91.669692   -8308.5543   -7750.3046    -728.2718     102002.7      46.7237      46.7237      46.7237 
  446000    87.131352   -8321.5758   -7790.9638   -846.94962     102002.7      46.7237      46.7237      46.7237 
  447000    89.027966   -8298.6154   -7756.4533   -631.69075     102002.7      46.7237      46.7237      46.7237 
  448000    86.605104   -8304.8765   -7777.4692   -809.14236     102002.7      46.7237      46.7237      46.7237 
  449000    94.199472   -8303.0234    -7729.368   -923.56757     102002.7      46.7237      46.7237      46.7237 
  450000    87.970401   -8305.3806   -7769.6589   -717.68609     102002.7      46.7237      46.7237      46.7237 
  451000    92.461746   -8314.4845   -7751.4114   -1019.2415     102002.7      46.7237      46.7237      46.7237 
  452000    92.197893   -8316.9244   -7755.4581   -773.34652     102002.7      46.7237      46.7237      46.7237 
  453000    92.571412   -8317.5783   -7753.8374   -883.01411     102002.7      46.7237      46.7237      46.7237 
  454000    89.387407   -8325.1893   -7780.8384   -1017.6381     102002.7      46.7237      46.7237      46.7237 
  455000     89.71984   -8322.3992   -7776.0238   -687.25594     102002.7      46.7237      46.7237      46.7237 
  456000    92.653528   -8318.9874   -7754.7465   -787.74233     102002.7      46.7237      46.7237      46.7237 
  457000    89.837276   -8306.6239   -7759.5333    -549.8134     102002.7      46.7237      46.7237      46.7237 
  458000    89.456227   -8315.9962   -7771.2261   -657.50969     102002.7      46.7237      46.7237      46.7237 
  459000     88.81464   -8303.2601   -7762.3972   -532.90126     102002.7      46.7237      46.7237      46.7237 
  460000    92.123938   -8315.6862   -7754.6703   -475.13614     102002.7      46.7237      46.7237      46.7237 
  461000    89.798086   -8307.9635   -7761.1115   -493.62395     102002.7      46.7237      46.7237      46.7237 
  462000    90.143629   -8316.7647   -7767.8085   -603.89027     102002.7      46.7237      46.7237      46.7237 
  463000    92.754681   -8292.7423   -7727.8853   -682.10461     102002.7      46.7237      46.7237      46.7237 
  464000    91.485749   -8294.3822   -7737.2527   -915.22765     102002.7      46.7237      46.7237      46.7237 
  465000    90.306017   -8299.7621   -7749.8169   -725.15176     102002.7      46.7237      46.7237      46.7237 
  466000    91.328543   -8313.9271    -7757.755   -625.42751     102002.7      46.7237      46.7237      46.7237 
  467000    92.046854    -8316.259   -7755.7125   -938.95208     102002.7      46.7237      46.7237      46.7237 
  468000    90.818744   -8284.6209   -7731.5533   -764.51249     102002.7      46.7237      46.7237      46.7237 
  469000     89.94037   -8311.2205   -7763.5021   -556.63624     102002.7      46.7237      46.7237      46.7237 
  470000    90.327703   -8302.3617   -7752.2845   -1000.5836     102002.7      46.7237      46.7237      46.7237 
  471000    92.325902   -8295.8419   -7733.5961    -646.7844     102002.7      46.7237      46.7237      46.7237 
  472000    92.755671   -8308.2478   -7743.3847   -967.85782     102002.7      46.7237      46.7237      46.7237 
  473000     91.89926   -8297.9016    -7738.254   -816.14548     102002.7      46.7237      46.7237      46.7237 
  474000    93.134372   -8297.5827   -7730.4135   -824.01783     102002.7      46.7237      46.7237      46.7237 
  475000    90.585069   -8315.5619   -7763.9174   -807.55715     102002.7      46.7237      46.7237      46.7237 
  476000    93.864115   -8318.9512    -7747.338   -626.93515     102002.7      46.7237      46.7237      46.7237 
  477000    92.592164   -8307.0658   -7743.1985   -629.78276     102002.7      46.7237      46.7237      46.7237 
  478000    94.375582   -8316.4564   -7741.7285    -830.3168     102002.7      46.7237      46.7237      46.7237 
  479000    87.437295   -8325.3724   -7792.8972   -810.76793     102002.7      46.7237      46.7237      46.7237 
  480000    89.883793   -8307.5322   -7760.1583   -783.57789     102002.7      46.7237      46.7237      46.7237 
  481000    90.759003   -8306.8969   -7754.1932   -599.14437     102002.7      46.7237      46.7237      46.7237 
  482000    90.717229   -8317.8679   -7765.4186   -665.63054     102002.7      46.7237      46.7237      46.7237 
  483000    92.298742   -8314.6146   -7752.5342   -608.62307     102002.7      46.7237      46.7237      46.7237 
  484000    88.904826   -8336.9828   -7795.5707   -652.97867     102002.7      46.7237      46.7237      46.7237 
  485000    91.054047   -8323.5735    -7769.073   -578.56671     102002.7      46.7237      46.7237      46.7237 
  486000     91.38313   -8307.0681   -7750.5636   -857.58336     102002.7      46.7237      46.7237      46.7237 
  487000    90.918099   -8290.8721   -7737.1995   -847.48282     102002.7      46.7237      46.7237      46.7237 
  488000     91.23883   -8323.8937   -7768.2679   -523.27636     102002.7      46.7237      46.7237      46.7237 
  489000    87.729409   -8301.8971    -7767.643   -653.65634     102002.7      46.7237      46.7237      46.7237 
  490000    89.788795   -8289.6346   -7742.8392   -842.22752     102002.7      46.7237      46.7237      46.7237 
  491000    89.210025   -8313.0334   -7769.7626   -721.75642     102002.7      46.7237      46.7237      46.7237 
  492000    88.746702   -8312.4458   -7771.9966   -703.97508     102002.7      46.7237      46.7237      46.7237 
  493000    92.150246   -8322.5711    -7761.395   -854.66591     102002.7      46.7237      46.7237      46.7237 
  494000    91.290388   -8318.3588   -7762.4191   -808.39558     102002.7      46.7237      46.7237      46.7237 
  495000    89.182989   -8306.1211    -7763.015   -652.26699     102002.7      46.7237      46.7237      46.7237 
  496000    93.381751    -8307.133   -7738.4573    -519.6515     102002.7      46.7237      46.7237      46.7237 
  497000    89.766036   -8304.6142   -7757.9574    -551.0124     102002.7      46.7237      46.7237      46.7237 
  498000    91.051885   -8305.8626   -7751.3753   -795.77209     102002.7      46.7237      46.7237      46.7237 
  499000    92.108585   -8301.4102   -7740.4878    -549.5768     102002.7      46.7237      46.7237      46.7237 
  500000    92.835614   -8312.3753   -7747.0254   -477.14482     102002.7      46.7237      46.7237      46.7237 
  500502    91.779097   -8309.6572   -7750.7413   -626.47584     102002.7      46.7237      46.7237      46.7237 
Loop time of 1370.62 on 16 procs for 500000 steps with 2044 atoms

Performance: 31.519 ns/day, 0.761 hours/ns, 364.799 timesteps/s
99.8% CPU use with 16 MPI tasks x no OpenMP threads

MPI task timing breakdown:
Section |  min time  |  avg time  |  max time  |%varavg| %total
---------------------------------------------------------------
Pair    | 593.68     | 773.73     | 987.24     | 415.0 | 56.45
Bond    | 155.45     | 174.51     | 194.54     |  85.3 | 12.73
Neigh   | 6.1959     | 6.2563     | 6.3562     |   2.3 |  0.46
Comm    | 189        | 402.35     | 583.09     | 550.6 | 29.36
Output  | 0.020597   | 0.02104    | 0.024261   |   0.6 |  0.00
Modify  | 7.732      | 8.2589     | 8.8698     |  12.9 |  0.60
Other   |            | 5.495      |            |       |  0.40

Nlocal:    127.75 ave 155 max 93 min
Histogram: 1 1 1 3 1 1 1 3 2 2
Nghost:    2543.5 ave 2577 max 2514 min
Histogram: 1 1 3 4 0 1 3 1 0 2
Neighs:    11462.9 ave 16114 max 7394 min
Histogram: 2 0 1 4 1 4 2 1 0 1

Total # of neighbors = 183407
Ave neighs/atom = 89.7295
Ave special neighs/atom = 5.63601
Neighbor list builds = 3867
Dangerous builds = 0
Neighbor list info ...
  update every 1 steps, delay 10 steps, check yes
  max neighbors/atom: 2000, page size: 100000
  master list distance cutoff = 16
  ghost atom cutoff = 16
  binsize = 8, bins = 6 6 6
  3 neighbor lists, perpetual/occasional/extra = 3 0 0
  (1) pair buck6d/coul/gauss/dsf, perpetual, skip from (3)
      attributes: half, newton on
      pair build: skip
      stencil: none
      bin: none
  (2) pair lj/cut, perpetual, skip from (3)
      attributes: half, newton on
      pair build: skip
      stencil: none
      bin: none
  (3) neighbor class addition, perpetual
      attributes: half, newton on
      pair build: half/bin/newton
      stencil: half/bin/3d/newton
      bin: standard
Setting up Verlet run ...
  Unit style    : real
  Current step  : 500502
  Time step     : 1
WARNING: Inconsistent image flags (../domain.cpp:786)
Per MPI rank memory allocation (min/avg/max) = 22.9 | 23.29 | 23.36 Mbytes
Step Time TotEng KinEng PotEng E_mol E_pair Temp Pxx Pyy Pzz Pxy Pxz Pyz Cella Cellb Cellc CellAlpha CellBeta CellGamma Volume Press 
  500502       500000   -7750.7413    558.91588   -8309.6572     4193.865   -12503.522    91.779097   -407.97367   -479.89029   -991.56354   -158.96491   -33.239624    138.89307      46.7237      46.7237      46.7237           90           90           90     102002.7   -626.47584 
  501000       500498   -7761.0864    539.78247   -8300.8688    4176.8496   -12477.718    88.637216   -669.71019   -408.43914   -818.43897   -41.052592   -91.656697   -238.17862      46.7237      46.7237      46.7237           90           90           90     102002.7    -632.1961 
  502000       501498   -7747.3195    555.27293   -8302.5924    4188.0649   -12490.657    91.180892   -566.85361   -815.39865    -845.2846   -102.15468    3.6215247   -171.04458      46.7237      46.7237      46.7237           90           90           90     102002.7   -742.51228 
  503000       502498   -7754.0116    550.00704   -8304.0186    4182.1808   -12486.199    90.316184   -345.72417   -919.68639    -245.8616    132.85259    76.651098   -199.80954      46.7237      46.7237      46.7237           90           90           90     102002.7   -503.75738 
  504000       503498    -7766.605    548.75551   -8315.3605    4175.3944   -12490.755    90.110671   -746.87068   -623.39346   -1133.4305    41.070493    -11.48985   -64.130998      46.7237      46.7237      46.7237           90           90           90     102002.7   -834.56489 
  505000       504498   -7751.1929    540.59242   -8291.7854    4208.2528   -12500.038    88.770217   -971.73537   -106.61141   -692.44333   -378.98404   -51.579635    69.014688      46.7237      46.7237      46.7237           90           90           90     102002.7   -590.26337 
  506000       505498   -7771.3442    544.41866   -8315.7629    4185.1952   -12500.958    89.398521   -873.29992   -396.11372   -657.74718    66.167082    -81.01023    -17.99526      46.7237      46.7237      46.7237           90           90           90     102002.7   -642.38694 
  507000       506498   -7740.9828    545.92401   -8286.9068    4208.6484   -12495.555    89.645713   -729.12917   -1063.7134   -955.34594    25.125857    20.696241   -181.64125      46.7237      46.7237      46.7237           90           90           90     102002.7   -916.06284 
  508000       507498   -7766.9629    551.45382   -8318.4168    4180.9553   -12499.372    90.553759   -866.15862   -725.41184   -663.34479    1.6540729   -75.031637  -0.79398989      46.7237      46.7237      46.7237           90           90           90     102002.7   -751.63842 
  509000       508498   -7739.4268    567.83871   -8307.2655    4189.2662   -12496.532    93.244308   -376.93941   -376.87239   -507.03458   -39.610656   -134.70767     48.69168      46.7237      46.7237      46.7237           90           90           90     102002.7   -420.28213 
  510000       509498   -7750.0801    556.93872   -8307.0188     4193.726   -12500.745     91.45443   -294.47908   -570.20156   -1050.6361   -106.11338     32.28849   -20.387348      46.7237      46.7237      46.7237           90           90           90     102002.7   -638.43891 
  511000       510498   -7752.2899    554.45886   -8306.7488    4206.3225   -12513.071    91.047214   -406.33112   -818.71168   -1042.6239   -122.62664   -135.76939    27.485758      46.7237      46.7237      46.7237           90           90           90     102002.7   -755.88889 
  512000       511498   -7755.2148    555.64583   -8310.8606    4203.0677   -12513.928    91.242124   -1282.9887   -666.56638    -508.3913    9.0496748    142.51757    36.250901      46.7237      46.7237      46.7237           90           90           90     102002.7   -819.31548 
  513000       512498   -7784.1478     537.7683   -8321.9161    4181.2787   -12503.195    88.306471   -645.88616   -815.79969    -351.7551   -156.91897    170.57447    296.46029      46.7237      46.7237      46.7237           90           90           90     102002.7   -604.48032 
  514000       513498   -7724.2249    563.55595   -8287.7809    4204.5613   -12492.342     92.54104   -607.13517    -522.3279   -792.79609   -79.814529    -20.49367    219.46368      46.7237      46.7237      46.7237           90           90           90     102002.7   -640.75305 
  515000       514498   -7754.7022    562.42654   -8317.1287     4197.014   -12514.143    92.355579   -839.18178   -916.91629   -795.46739   -48.969223   -193.24397    22.245112      46.7237      46.7237      46.7237           90           90           90     102002.7   -850.52182 
  516000       515498   -7724.4764    556.95804   -8281.4344    4221.3855    -12502.82    91.457602   -485.58358   -672.95975   -330.62035    45.746748   -46.367424    23.109709      46.7237      46.7237      46.7237           90           90           90     102002.7   -496.38789 
  517000       516498   -7767.2012    541.82103   -8309.0223    4184.8683   -12493.891    88.971966    -691.7964   -607.49404   -714.35852   -81.966275    25.060856   -91.108405      46.7237      46.7237      46.7237           90           90           90     102002.7   -671.21632 
  518000       517498   -7759.3335    539.83309   -8299.1666    4189.6373   -12488.804    88.645528   -423.66136   -479.12416   -685.63465   -124.55942   -100.49468    24.595044      46.7237      46.7237      46.7237           90           90           90     102002.7   -529.47339 
  519000       518498   -7775.5511    542.83959   -8318.3907    4180.8901   -12499.281    89.139223   -382.32892   -1245.6131    -657.1692    113.25184   -13.508859    38.036506      46.7237      46.7237      46.7237           90           90           90     102002.7   -761.70374 
  520000       519498   -7731.9038    564.40577   -8296.3095     4193.559   -12489.869    92.680587   -610.50123   -830.09147   -616.15795   -22.391683    33.386065    8.0309503      46.7237      46.7237      46.7237           90           90           90     102002.7   -685.58355 
  521000       520498   -7763.0206    560.13132   -8323.1519    4180.6198   -12503.772    91.978684   -712.93082   -739.80131   -559.72033    156.11782   -118.76125   -69.239573      46.7237      46.7237      46.7237           90           90           90     102002.7   -670.81749 
  522000       521498   -7738.5402    559.70378   -8298.2439    4199.7317   -12497.976    91.908477   -559.59778   -478.26215   -1239.3425   -138.06161   -3.5565196    23.905408      46.7237      46.7237      46.7237           90           90           90     102002.7   -759.06747 
  523000       522498   -7753.0173    557.51422   -8310.5315    4184.0523   -12494.584    91.548931   -626.81407   -710.19515    -464.7599   -43.162909    -67.58504    173.26051      46.7237      46.7237      46.7237           90           90           90     102002.7   -600.58971 
  524000       523498   -7757.2823    563.46601   -8320.7484    4179.0593   -12499.808     92.52627   -923.97805   -666.17868   -799.94666   -93.648008   -72.851588    74.773341      46.7237      46.7237      46.7237           90           90           90     102002.7   -796.70113 
  525000       524498   -7748.1182     561.4067   -8309.5249    4208.6238   -12518.149    92.188113   -414.47891   -799.07521   -664.06353    3.9156113   -135.16779    95.635094      46.7237      46.7237      46.7237           90           90           90     102002.7   -625.87255 
  526000       525498   -7770.2908    552.45303   -8322.7438    4168.1591   -12490.903    90.717837   -542.34826   -626.94996   -791.52614    13.130648   -59.011666    200.60258      46.7237      46.7237      46.7237           90           90           90     102002.7   -653.60812 
  527000       526498    -7764.249    554.87964   -8319.1286    4187.3117    -12506.44    91.116309   -913.95967   -950.98525   -614.99589    -67.17891   -9.1821868    99.844328      46.7237      46.7237      46.7237           90           90           90     102002.7   -826.64694 
  528000       527498   -7761.8941    553.08967   -8314.9838    4184.3318   -12499.316    90.822379   -636.22806   -385.83624   -511.03891   -90.440704   -162.98502   -63.514162      46.7237      46.7237      46.7237           90           90           90     102002.7   -511.03441 
  529000       528498   -7759.2599     558.5818   -8317.8417    4163.1883    -12481.03    91.724238   -388.89249   -1094.6179   -526.56516    5.3167471    94.834387   -208.90333      46.7237      46.7237      46.7237           90           90           90     102002.7   -670.02517 
  530000       529498   -7729.7441    565.47971   -8295.2238    4201.3305   -12496.554    92.856939   -913.55215   -898.67432   -1144.8093   -50.002926    50.104182   -101.85481      46.7237      46.7237      46.7237           90           90           90     102002.7   -985.67858 
  531000       530498   -7735.3792     565.5963   -8300.9755    4190.9283   -12491.904    92.876083   -678.64342   -685.88527   -1017.2439   -34.473042     105.5493    136.03431      46.7237      46.7237      46.7237           90           90           90     102002.7   -793.92421 
  532000       531498   -7766.6891    546.08626   -8312.7753    4180.6698   -12493.445    89.672356   -921.97789   -999.76066   -752.98393   -31.714734    37.168529   -34.647906      46.7237      46.7237      46.7237           90           90           90     102002.7   -891.57416 
  533000       532498    -7765.322    530.90427   -8296.2262    4187.5804   -12483.807    87.179334    -385.2774   -511.94212   -575.92177    -96.98957   -125.42912   -122.18149      46.7237      46.7237      46.7237           90           90           90     102002.7    -491.0471 
  534000       533498   -7731.4533    570.90346   -8302.3568    4183.7291   -12486.086    93.747567   -226.39913   -780.11203   -735.24941    123.72437    26.641958   -96.219175      46.7237      46.7237      46.7237           90           90           90     102002.7   -580.58686 
  535000       534498   -7750.1664    553.80179   -8303.9682    4189.4184   -12493.387    90.939317   -633.27825   -811.99219   -845.52262    160.22261   -330.88358   -1.3095562      46.7237      46.7237      46.7237           90           90           90     102002.7   -763.59768 
  536000       535498   -7761.3406    545.73164   -8307.0722    4187.0741   -12494.146    89.614124   -1073.8078   -573.45033   -548.78692    224.80978   -116.32736    124.11026      46.7237      46.7237      46.7237           90           90           90     102002.7   -732.01503 
  537000       536498   -7767.3985    535.45612   -8302.8546    4195.1557    -12498.01     87.92679   -952.16338   -710.22438   -929.39282    88.098531   -25.125488    41.931007      46.7237      46.7237      46.7237           90           90           90     102002.7   -863.92686 
  538000       537498   -7748.2322      561.111   -8309.3432    4177.5518   -12486.895    92.139556   -581.71948    -450.8506   -646.44264    130.67516    -27.50604   -43.238496      46.7237      46.7237      46.7237           90           90           90     102002.7   -559.67091 
  539000       538498   -7732.4967    582.44938   -8314.9461    4178.0911   -12493.037    95.643513   -499.91817   -705.72733   -1110.1935     93.37493    263.41322   -141.38418      46.7237      46.7237      46.7237           90           90           90     102002.7   -771.94634 
  540000       539498     -7744.91    556.56692   -8301.4769    4187.3377   -12488.815    91.393376   -388.04013   -1016.1353   -606.78752   -47.891138   -117.35869   -109.63422      46.7237      46.7237      46.7237           90           90           90     102002.7   -670.32097 
  541000       540498   -7744.8088    555.12655   -8299.9354    4189.3959   -12489.331    91.156854   -935.13238   -700.65897   -788.48443   -226.00842    120.10229    70.504773      46.7237      46.7237      46.7237           90           90           90     102002.7   -808.09193 
  542000       541498   -7758.1589    554.57746   -8312.7364    4180.7942   -12493.531    91.066689   -1042.1599   -916.09226   -580.51293     154.8248    69.998718    143.56126      46.7237      46.7237      46.7237           90           90           90     102002.7   -846.25504 
  543000       542498   -7735.6061    576.28974   -8311.8958       4191.5   -12503.396    94.632043   -1049.0268   -1097.3101   -1240.3395     130.4354    17.522604    117.00307      46.7237      46.7237      46.7237           90           90           90     102002.7   -1128.8921 
  544000       543498   -7754.7203    555.99257   -8310.7128    4189.0702   -12499.783    91.299063   -904.09434   -544.78266   -937.25188   -47.513037    116.51289   -98.475321      46.7237      46.7237      46.7237           90           90           90     102002.7   -795.37629 
  545000       544498   -7751.3915    562.99793   -8314.3895    4182.9969   -12497.386    92.449408   -832.60547   -316.46439   -650.75017    246.55162     -100.142    279.27877      46.7237      46.7237      46.7237           90           90           90     102002.7   -599.94001 
  546000       545498   -7752.8605    548.24162   -8301.1021    4187.2173   -12488.319    90.026285    -767.5434   -730.29953     -812.672    37.267796    43.955166   -136.64853      46.7237      46.7237      46.7237           90           90           90     102002.7   -770.17164 
  547000       546498   -7742.0761    560.25044   -8302.3266    4210.0001   -12512.327    91.998243   -561.92215   -824.10688   -708.84841   -198.86808    231.25057   -49.762324      46.7237      46.7237      46.7237           90           90           90     102002.7   -698.29248 
  548000       547498   -7741.5092    563.90977    -8305.419     4188.414   -12493.833    92.599139   -599.56224   -1302.8831   -1082.8982   -6.0448539    75.510285    40.388517      46.7237      46.7237      46.7237           90           90           90     102002.7   -995.11453 
  549000       548498   -7748.6958    563.60722    -8312.303    4183.4933   -12495.796    92.549458   -934.13371   -390.00942   -988.65422    81.650332   -15.959781   -132.26083      46.7237      46.7237      46.7237           90           90           90     102002.7   -770.93245 
  550000       549498    -7765.881     558.3983   -8324.2793    4183.2353   -12507.515    91.694105   -638.37316   -840.80859    -626.5136    34.122161   -121.76993   -26.801826      46.7237      46.7237      46.7237           90           90           90     102002.7   -701.89845 
  551000       550498   -7737.1252    573.94493   -8311.0701      4192.96    -12504.03    94.247005   -1084.5852   -1105.0757    -357.9816    21.609631   -24.239926    309.43363      46.7237      46.7237      46.7237           90           90           90     102002.7   -849.21416 
  552000       551498   -7751.8397    557.41825    -8309.258      4178.76   -12488.018    91.533173   -774.04273   -661.45872   -867.88618    159.23391    182.08547     144.9975      46.7237      46.7237      46.7237           90           90           90     102002.7   -767.79588 
  553000       552498   -7744.6262     557.6079   -8302.2341    4189.0642   -12491.298    91.564315   -750.13363   -618.86935   -804.73377    43.577354    145.77646    93.512953      46.7237      46.7237      46.7237           90           90           90     102002.7   -724.57892 
  554000       553498   -7738.6416    564.99872   -8303.6403    4187.8465   -12491.487    92.777954   -619.80572   -566.82691   -572.87481   -221.68437    101.80551    26.194225      46.7237      46.7237      46.7237           90           90           90     102002.7   -586.50248 
  555000       554498   -7750.5917    553.56489   -8304.1566    4192.7734    -12496.93    90.900415   -390.74458   -1068.1174    -913.0202    25.138981    110.75449    -164.9467      46.7237      46.7237      46.7237           90           90           90     102002.7    -790.6274 
[...]
  936000       935498   -7744.4562    538.29012   -8282.7463    4219.3855   -12502.132    88.392159   -611.60039   -544.76977   -579.31657     84.07932    21.959887   -241.59542      46.7237      46.7237      46.7237           90           90           90     102002.7   -578.56224 
  937000       936498   -7768.4788    555.17126     -8323.65    4193.1051   -12516.755    91.164196   -881.26664   -536.22959   -794.78571   -27.637851    42.996966   -109.81179      46.7237      46.7237      46.7237           90           90           90     102002.7   -737.42731 
  938000       937498   -7725.6928    575.21263   -8300.9055     4205.935    -12506.84    94.455172   -912.98286   -1078.2517   -717.28079   -73.966523   -4.0737205    104.41252      46.7237      46.7237      46.7237           90           90           90     102002.7   -902.83845 
  939000       938498   -7761.8186     542.2851   -8304.1037    4195.0953   -12499.199    89.048172   -748.84824   -777.47348   -670.22619    166.28989   -12.494026    116.67954      46.7237      46.7237      46.7237           90           90           90     102002.7   -732.18263 
  940000       939498   -7762.4823    550.54462    -8313.027    4193.5204   -12506.547    90.404459   -598.47699   -1111.9519   -586.29679    1.8684447    29.496968    361.69336      46.7237      46.7237      46.7237           90           90           90     102002.7   -765.57523 
  941000       940498   -7744.8523     557.1538   -8302.0061    4182.2755   -12484.282    91.489747   -868.70674   -1133.2568   -63.797043    54.913454    61.362949   -60.201814      46.7237      46.7237      46.7237           90           90           90     102002.7   -688.58687 
  942000       941498   -7769.8439    542.73995   -8312.5838    4204.3082   -12516.892    89.122861   -725.84672   -772.82225   -714.36665   -76.606767    185.18279    63.882418      46.7237      46.7237      46.7237           90           90           90     102002.7   -737.67854 
  943000       942498   -7759.8712    557.41299   -8317.2842    4170.8062    -12488.09    91.532308   -892.95068   -954.44965   -884.15169   -9.0774238   -1.8176162    251.80542      46.7237      46.7237      46.7237           90           90           90     102002.7   -910.51734 
  944000       943498   -7768.6981    554.01807   -8322.7162    4184.5294   -12507.246    90.974833   -590.75504   -493.36499   -937.46661    100.67807   -115.30937   -4.4190545      46.7237      46.7237      46.7237           90           90           90     102002.7   -673.86221 
  945000       944498   -7751.2114    547.92637   -8299.1378    4209.2043   -12508.342    89.974518   -579.88691   -887.18147   -567.71122   -11.545505   -77.654688    6.3021612      46.7237      46.7237      46.7237           90           90           90     102002.7   -678.25987 
  946000       945498   -7737.8645    565.21873   -8303.0832     4188.451   -12491.534    92.814082   -812.73453   -982.49325   -1125.5832    241.18793    92.959032   -86.435731      46.7237      46.7237      46.7237           90           90           90     102002.7   -973.60364 
  947000       946498   -7751.6621    550.43407   -8302.0962    4206.4076   -12508.504    90.386307   -515.61081   -889.58812   -1025.3034   -34.781203    83.085629    71.081741      46.7237      46.7237      46.7237           90           90           90     102002.7   -810.16745 
  948000       947498   -7755.3546    555.97284   -8311.3275    4182.3061   -12493.634    91.295823   -640.96154   -1105.4272    -606.2514    177.23674   -9.8896756    2.9325431      46.7237      46.7237      46.7237           90           90           90     102002.7   -784.21337 
  949000       948498   -7758.1578    545.49591   -8303.6537    4183.8834   -12487.537    89.575415   -591.71475   -575.53612   -993.27786   -193.03373    389.70346   -252.08286      46.7237      46.7237      46.7237           90           90           90     102002.7   -720.17624 
  950000       949498   -7735.0608    566.33461   -8301.3954    4198.4046     -12499.8    92.997321   -292.76461   -806.64748   -1346.5499   -269.93265   -172.45839   -18.401024      46.7237      46.7237      46.7237           90           90           90     102002.7   -815.32065 
  951000       950498   -7767.0968    548.88788   -8315.9847    4175.6174   -12491.602    90.132407   -790.52925   -717.15875   -686.75785    -43.04702    184.36235   -70.686683      46.7237      46.7237      46.7237           90           90           90     102002.7   -731.48195 
  952000       951498   -7761.3371    552.24808   -8313.5852    4200.1977   -12513.783    90.684183   -943.80894   -983.49026   -800.93055    75.015764     250.9242   -107.28129      46.7237      46.7237      46.7237           90           90           90     102002.7   -909.40992 
  953000       952498   -7721.9155    560.49292   -8282.4085    4193.8583   -12476.267    92.038061   -480.68772   -944.20808   -1046.9907    185.89805   -59.045567   -159.30579      46.7237      46.7237      46.7237           90           90           90     102002.7   -823.96217 
  954000       953498   -7733.3339    570.01974   -8303.3536    4192.1819   -12495.536    93.602452   -653.67012   -1280.1056   -562.71773   -32.260726   -271.48957   -14.067217      46.7237      46.7237      46.7237           90           90           90     102002.7   -832.16447 
  955000       954498   -7765.3774    546.28619   -8311.6636    4197.5575   -12509.221    89.705186   -1049.4579   -803.61705   -789.15886   -128.67044   -157.71392    125.67285      46.7237      46.7237      46.7237           90           90           90     102002.7   -880.74461 
  956000       955498   -7752.8668    552.36206   -8305.2288    4190.5041   -12495.733      90.7029   -805.85098   -872.32445    -1243.396    49.862074    99.602584   -112.22929      46.7237      46.7237      46.7237           90           90           90     102002.7   -973.85714 
  957000       956498   -7755.2831    551.73554   -8307.0187    4176.4411    -12483.46     90.60002   -623.14692   -783.11448   -631.57284   -267.05279   -99.495486    25.391941      46.7237      46.7237      46.7237           90           90           90     102002.7   -679.27808 
  958000       957498   -7756.3819    553.29161   -8309.6735    4190.0812   -12499.755     90.85554   -803.03799   -755.01153   -754.29492     225.5341   -12.932004   -132.85688      46.7237      46.7237      46.7237           90           90           90     102002.7   -770.78148 
  959000       958498   -7761.6883    554.70056   -8316.3888    4186.2782   -12502.667    91.086903   -530.45639   -779.80916   -558.61754   -20.281398   -216.25467   -21.088116      46.7237      46.7237      46.7237           90           90           90     102002.7   -622.96103 
  960000       959498   -7736.5117    560.80563   -8297.3174    4185.6002   -12482.918    92.089411   -1210.3929   -495.00941   -658.11968    -76.52688   -46.004051    9.7019452      46.7237      46.7237      46.7237           90           90           90     102002.7   -787.84065 
  961000       960498   -7753.6858    558.69948   -8312.3853    4183.2088   -12495.594    91.743563    -831.8278   -794.11936   -793.17351    150.98414   -143.84242    116.64074      46.7237      46.7237      46.7237           90           90           90     102002.7   -806.37355 
  962000       961498   -7742.2508    561.83366   -8304.0845    4180.9617   -12485.046    92.258224   -789.06982   -1140.6785   -730.71172   -283.75361      223.393    363.97835      46.7237      46.7237      46.7237           90           90           90     102002.7   -886.82002 
  963000       962498    -7766.302    531.29906   -8297.6011    4202.1099   -12499.711    87.244163   -1056.9332   -1039.5963   -811.95504    227.78333    100.93916   -160.35601      46.7237      46.7237      46.7237           90           90           90     102002.7   -969.49485 
  964000       963498   -7737.1229    559.98589   -8297.1088    4192.0207   -12489.129    91.954802    -955.8462   -887.72388   -851.89851    45.201868    46.390621   -48.353308      46.7237      46.7237      46.7237           90           90           90     102002.7   -898.48953 
  965000       964498   -7728.9154    569.44013   -8298.3555    4188.7237   -12487.079    93.507275   -673.69577   -574.08787   -816.81003   -314.29055   -145.18073    126.58351      46.7237      46.7237      46.7237           90           90           90     102002.7   -688.19789 
  966000       965498   -7760.6475    556.30673   -8316.9542    4187.5415   -12504.496    91.350651     -620.677   -944.37724   -908.52705    145.52408   -145.60955   -31.882147      46.7237      46.7237      46.7237           90           90           90     102002.7    -824.5271 
  967000       966498   -7761.5851    557.62267   -8319.2078    4181.3099   -12500.518    91.566741   -640.29313   -830.29276   -598.85421   -71.082852    255.09828   -48.243772      46.7237      46.7237      46.7237           90           90           90     102002.7   -689.81336 
  968000       967498   -7771.4344    542.78692   -8314.2214    4185.5168   -12499.738    89.130574   -599.85284   -1080.7468   -617.64172    110.92282   -63.219665    101.31017      46.7237      46.7237      46.7237           90           90           90     102002.7   -766.08044 
  969000       968498   -7756.6951    553.83522   -8310.5304    4183.2861   -12493.816    90.944805   -691.36811   -1054.6833   -974.86189    123.64995   -10.820629   -101.66232      46.7237      46.7237      46.7237           90           90           90     102002.7   -906.97111 
  970000       969498   -7743.2846     554.8907   -8298.1753    4185.3182   -12483.494    91.118125   -868.60564   -784.26329   -1242.2337   -170.42624    130.94597    148.22623      46.7237      46.7237      46.7237           90           90           90     102002.7   -965.03422 
  971000       970498   -7762.9019    559.21024   -8322.1122    4177.3116   -12499.424    91.827434   -1189.6231   -844.68342   -438.68246   -160.09913    25.444481   -25.425061      46.7237      46.7237      46.7237           90           90           90     102002.7   -824.32967 
  972000       971498   -7764.6455    558.60828   -8323.2538    4174.6397   -12497.893    91.728586   -977.90906   -931.79207   -605.28863    32.779614    249.12583    160.03669      46.7237      46.7237      46.7237           90           90           90     102002.7   -838.32992 
  973000       972498    -7750.186    551.23216   -8301.4181    4182.6013   -12484.019     90.51736   -325.66168   -239.30427   -755.36824   -29.026885    194.53915   -98.783171      46.7237      46.7237      46.7237           90           90           90     102002.7    -440.1114 
  974000       973498   -7770.8587    553.28923   -8324.1479    4158.8385   -12482.986    90.855149   -355.26711   -800.91546    -817.6116   -17.567144    582.30598   -44.115133      46.7237      46.7237      46.7237           90           90           90     102002.7   -657.93139 
  975000       974498   -7748.3404    547.89873   -8296.2392    4185.0834   -12481.323    89.969981   -1188.0903   -1142.9835   -462.12961   -64.436141   -41.930157   -234.18883      46.7237      46.7237      46.7237           90           90           90     102002.7   -931.06781 
  976000       975498    -7768.132    547.05209   -8315.1841     4172.263   -12487.447    89.830954   -620.43494   -958.66634   -814.01518   -184.31775    6.6852567   -12.272089      46.7237      46.7237      46.7237           90           90           90     102002.7   -797.70549 
  977000       976498   -7769.0105    541.94764   -8310.9581    4183.1932   -12494.151    88.992757   -811.37205   -915.38734   -1048.2259    138.32423    91.949826    64.315689      46.7237      46.7237      46.7237           90           90           90     102002.7    -924.9951 
  978000       977498   -7769.9919    546.70869   -8316.7005    4199.9821   -12516.683    89.774564      -907.96   -1115.4983   -1215.4111   -23.953299   -216.10932   -145.47253      46.7237      46.7237      46.7237           90           90           90     102002.7   -1079.6231 
  979000       978498   -7766.0611    539.19865   -8305.2598    4189.4215   -12494.681    88.541347   -347.44789   -781.30897   -934.36855    285.73148    49.960149   -68.328421      46.7237      46.7237      46.7237           90           90           90     102002.7   -687.70847 
  980000       979498   -7738.0067    552.46022    -8290.467    4205.4055   -12495.873    90.719018   -901.77267   -634.66225    -739.6579    64.730268   -57.247504    93.906504      46.7237      46.7237      46.7237           90           90           90     102002.7   -758.69761 
  981000       980498    -7749.573    557.32224   -8306.8952    4171.0078   -12477.903    91.517406   -931.56046   -325.33287   -1032.5777    -15.93769   -154.59343    77.841846      46.7237      46.7237      46.7237           90           90           90     102002.7   -763.15703 
  982000       981498   -7748.1461    554.34664   -8302.4927    4207.0013   -12509.494    91.028786   -1057.8844   -641.44083   -798.63598     421.3418    30.078028   -233.33036      46.7237      46.7237      46.7237           90           90           90     102002.7   -832.65373 
  983000       982498   -7720.5137    569.66816   -8290.1818    4196.3828   -12486.565    93.544719   -710.91487   -1239.0203   -1051.8706     1.263387    87.902867   -156.26489      46.7237      46.7237      46.7237           90           90           90     102002.7   -1000.6019 
  984000       983498   -7763.6911    561.06588    -8324.757    4174.5163   -12499.273    92.132146   -357.17451   -873.50189    -598.3835    158.69919    112.11727    93.729811      46.7237      46.7237      46.7237           90           90           90     102002.7   -609.68663 
  985000       984498   -7744.5236    550.05851   -8294.5821     4184.028    -12478.61    90.324635   -708.94642   -826.06466   -1175.3693    72.550373    183.26434    3.7732339      46.7237      46.7237      46.7237           90           90           90     102002.7   -903.46014 
  986000       985498   -7740.7565    564.00507   -8304.7616     4191.969   -12496.731    92.614789   -853.89824   -800.75095   -762.08152   -108.09955   -86.851915    16.967062      46.7237      46.7237      46.7237           90           90           90     102002.7    -805.5769 
  987000       986498   -7756.8405    564.57429   -8321.4148    4169.2874   -12490.702    92.708259   -1233.5107   -769.25759   -530.06216    -55.89895    68.323659   -22.295805      46.7237      46.7237      46.7237           90           90           90     102002.7   -844.27681 
  988000       987498   -7782.0691    541.06336   -8323.1325    4176.0467   -12499.179    88.847551   -1097.5299   -842.17477   -557.06786   -35.384449    85.784197   -32.325473      46.7237      46.7237      46.7237           90           90           90     102002.7    -832.2575 
  989000       988498   -7736.3919     577.1421    -8313.534    4186.0723   -12499.606    94.772008   -571.65153   -1052.2677   -976.50881    10.869855     -162.513    138.34608      46.7237      46.7237      46.7237           90           90           90     102002.7   -866.80935 
  990000       989498     -7731.93    556.71221   -8288.6422     4217.643   -12506.285    91.417235   -751.10895   -1047.3638   -755.31138    207.18217   -166.47734    163.03102      46.7237      46.7237      46.7237           90           90           90     102002.7   -851.26138 
  991000       990498   -7750.6712    557.95076   -8308.6219    4172.8535   -12481.475    91.620615   -759.60092   -1033.1664   -987.58371    -227.2131    113.25356    47.373623      46.7237      46.7237      46.7237           90           90           90     102002.7   -926.78369 
  992000       991498   -7741.7091    552.98397    -8294.693    4217.1182   -12511.811    90.805024   -688.33046   -584.98751   -929.30501   -82.954723   -91.902082   -132.74833      46.7237      46.7237      46.7237           90           90           90     102002.7   -734.20766 
  993000       992498    -7733.224    570.26419   -8303.4882    4169.8157   -12473.304    93.642593   -805.52104   -736.84227   -539.10442   -29.211757    169.07785    47.491824      46.7237      46.7237      46.7237           90           90           90     102002.7   -693.82257 
  994000       993498   -7728.2169    567.37433   -8295.5913    4202.1656   -12497.757    93.168051   -745.33152   -728.81841   -967.88476   -120.93412    70.258546   -110.06827      46.7237      46.7237      46.7237           90           90           90     102002.7   -814.01156 
  995000       994498   -7755.0086    562.35091   -8317.3595    4195.2353   -12512.595    92.343161   -986.68247   -1118.9776   -856.35534   -29.192116   -103.82393   -48.143976      46.7237      46.7237      46.7237           90           90           90     102002.7   -987.33846 
  996000       995498   -7753.4171    546.61774   -8300.0349    4195.0657   -12495.101     89.75963   -852.06698   -1012.4669   -319.02664      182.034    179.60265   -2.7420771      46.7237      46.7237      46.7237           90           90           90     102002.7   -727.85349 
  997000       996498   -7731.1203    558.38721   -8289.5075    4174.8082   -12464.316    91.692284    -903.8545   -635.68092   -687.09757   -89.393579   -106.46626    156.71339      46.7237      46.7237      46.7237           90           90           90     102002.7     -742.211 
  998000       997498   -7775.0868    534.54209   -8309.6289    4169.2577   -12478.887    87.776697   -525.40682   -507.66748   -819.61057   -22.485422   -61.209503    66.339256      46.7237      46.7237      46.7237           90           90           90     102002.7   -617.56162 
  999000       998498   -7741.6627    544.60623    -8286.269    4208.4556   -12494.725    89.429321   -959.07152   -529.80708   -661.24127   -35.465191    4.8631722   -173.69098      46.7237      46.7237      46.7237           90           90           90     102002.7   -716.70663 
 1000000       999498   -7765.8425    537.42332   -8303.2658    4178.8056   -12482.071    88.249822   -916.83221   -976.98225   -828.45048      89.9937    233.87508   -188.19315      46.7237      46.7237      46.7237           90           90           90     102002.7   -907.42165 
 1000502      1000000   -7760.6571    542.97846   -8303.6356    4180.2861   -12483.922    89.162027   -497.98776   -806.42373   -614.00049    42.008841    309.85496   -81.514481      46.7237      46.7237      46.7237           90           90           90     102002.7   -639.47066 
Loop time of 1626.98 on 16 procs for 500000 steps with 2044 atoms

Performance: 26.552 ns/day, 0.904 hours/ns, 307.318 timesteps/s
99.8% CPU use with 16 MPI tasks x no OpenMP threads

MPI task timing breakdown:
Section |  min time  |  avg time  |  max time  |%varavg| %total
---------------------------------------------------------------
Pair    | 637.29     | 903.2      | 1198.2     | 618.5 | 55.51
Bond    | 166.6      | 183.7      | 198.16     |  74.1 | 11.29
Neigh   | 6.3217     | 6.3801     | 6.4794     |   2.2 |  0.39
Comm    | 196.12     | 505.27     | 785.6      | 862.2 | 31.06
Output  | 0.10434    | 0.10953    | 0.10995    |   0.4 |  0.01
Modify  | 22.457     | 22.757     | 23.381     |   5.3 |  1.40
Other   |            | 5.559      |            |       |  0.34

Nlocal:    127.75 ave 168 max 103 min
Histogram: 1 1 4 4 3 0 2 0 0 1
Nghost:    2553 ave 2586 max 2519 min
Histogram: 1 0 2 1 4 2 3 2 0 1
Neighs:    11461.1 ave 16346 max 5959 min
Histogram: 1 1 1 2 2 2 3 1 2 1

Total # of neighbors = 183378
Ave neighs/atom = 89.7153
Ave special neighs/atom = 5.63601
Neighbor list builds = 3863
Dangerous builds = 0
Total wall time: 0:50:01
