LAMMPS (30 Mar 2018)
Reading data file ...
  orthogonal box = (0 0 0) to (46.7237 46.7237 46.7237)
  2 by 2 by 4 MPI processor grid
  reading atoms ...
  2076 atoms
  scanning bonds ...
  5 = max bonds/atom
  scanning angles ...
  10 = max angles/atom
  scanning dihedrals ...
  32 = max dihedrals/atom
  scanning impropers ...
  3 = max impropers/atom
  reading bonds ...
  2064 bonds
  reading angles ...
  3696 angles
  reading dihedrals ...
  6240 dihedrals
  reading impropers ...
  1008 impropers
Finding 1-2 1-3 1-4 neighbors ...
  special bond factors lj:   0          0          0         
  special bond factors coul: 0          0          0         
  5 = max # of 1-2 neighbors
  8 = max # of 1-3 neighbors
  20 = max # of 1-4 neighbors
  19 = max # of special neighbors
Finding 1-2 1-3 1-4 neighbors ...
  special bond factors lj:   0          0          1         
  special bond factors coul: 1          1          1         
  5 = max # of 1-2 neighbors
  8 = max # of 1-3 neighbors
  19 = max # of special neighbors
WARNING: Using 'neigh_modify every 1 delay 0 check yes' setting during minimization (../min.cpp:168)
Neighbor list info ...
  update every 1 steps, delay 0 steps, check yes
  max neighbors/atom: 2000, page size: 100000
  master list distance cutoff = 16
  ghost atom cutoff = 16
  binsize = 8, bins = 6 6 6
  3 neighbor lists, perpetual/occasional/extra = 3 0 0
  (1) pair buck6d/coul/gauss/dsf, perpetual, skip from (3)
      attributes: half, newton on
      pair build: skip
      stencil: none
      bin: none
  (2) pair lj/cut, perpetual, skip from (3)
      attributes: half, newton on
      pair build: skip
      stencil: none
      bin: none
  (3) neighbor class addition, perpetual
      attributes: half, newton on
      pair build: half/bin/newton
      stencil: half/bin/3d/newton
      bin: standard
Setting up cg style minimization ...
  Unit style    : real
  Current step  : 0
WARNING: Inconsistent image flags (../domain.cpp:786)
Per MPI rank memory allocation (min/avg/max) = 22.91 | 23.37 | 23.81 Mbytes
Step Temp E_pair E_mol TotEng Press 
       0            0   -12645.256    6482.8914   -6162.3646    6165.9598 
     501            0   -12745.116    3729.4586    -9015.657   -637.85017 
Loop time of 3.24808 on 16 procs for 501 steps with 2076 atoms

99.8% CPU use with 16 MPI tasks x no OpenMP threads

Minimization stats:
  Stopping criterion = max force evaluations
  Energy initial, next-to-last, final = 
         -6162.3646291     -9015.61627957     -9015.65700838
  Force two-norm initial, final = 2573.85 9.30431
  Force max component initial, final = 151.887 1.77231
  Final line search alpha, max atom move = 0.00406315 0.00720117
  Iterations, force evaluations = 501 1000

MPI task timing breakdown:
Section |  min time  |  avg time  |  max time  |%varavg| %total
---------------------------------------------------------------
Pair    | 1.3787     | 1.8639     | 2.5038     |  21.5 | 57.38
Bond    | 0.29526    | 0.35969    | 0.43216    |   6.2 | 11.07
Neigh   | 0.023339   | 0.023479   | 0.023712   |   0.1 |  0.72
Comm    | 0.29865    | 0.95846    | 1.4546     |  29.7 | 29.51
Output  | 0          | 0          | 0          |   0.0 |  0.00
Modify  | 0          | 0          | 0          |   0.0 |  0.00
Other   |            | 0.04257    |            |       |  1.31

Nlocal:    129.75 ave 152 max 112 min
Histogram: 1 1 2 4 2 2 1 1 1 1
Nghost:    2524.75 ave 2549 max 2505 min
Histogram: 3 1 0 1 2 5 2 1 0 1
Neighs:    11449.2 ave 17718 max 8181 min
Histogram: 4 2 1 3 2 1 2 0 0 1

Total # of neighbors = 183188
Ave neighs/atom = 88.2408
Ave special neighs/atom = 5.54913
Neighbor list builds = 14
Dangerous builds = 0
Neighbor list info ...
  update every 1 steps, delay 10 steps, check yes
  max neighbors/atom: 2000, page size: 100000
  master list distance cutoff = 16
  ghost atom cutoff = 16
  binsize = 8, bins = 6 6 6
  3 neighbor lists, perpetual/occasional/extra = 3 0 0
  (1) pair buck6d/coul/gauss/dsf, perpetual, skip from (3)
      attributes: half, newton on
      pair build: skip
      stencil: none
      bin: none
  (2) pair lj/cut, perpetual, skip from (3)
      attributes: half, newton on
      pair build: skip
      stencil: none
      bin: none
  (3) neighbor class addition, perpetual
      attributes: half, newton on
      pair build: half/bin/newton
      stencil: half/bin/3d/newton
      bin: standard
Setting up Verlet run ...
  Unit style    : real
  Current step  : 501
  Time step     : 1
WARNING: Inconsistent image flags (../domain.cpp:786)
Per MPI rank memory allocation (min/avg/max) = 22.56 | 22.63 | 22.69 Mbytes
Step Temp PotEng TotEng Press Volume Lx Ly Lz 
     501           91    -9015.657   -8452.8056   -385.60959     102002.7      46.7237      46.7237      46.7237 
    1000    77.860988   -8514.1794   -8032.5951    -542.1193     102002.7      46.7237      46.7237      46.7237 
    2000    95.506808   -8440.8796   -7850.1527    -637.2076     102002.7      46.7237      46.7237      46.7237 
    3000    89.182498   -8399.0267   -7847.4168   -799.94112     102002.7      46.7237      46.7237      46.7237 
    4000    90.029292    -8423.547   -7866.6995   -561.36258     102002.7      46.7237      46.7237      46.7237 
    5000     91.81963   -8410.9094   -7842.9884   -896.83594     102002.7      46.7237      46.7237      46.7237 
    6000    89.704544   -8424.6208   -7869.7819   -619.71808     102002.7      46.7237      46.7237      46.7237 
    7000    91.097434   -8420.1217   -7856.6676   -768.08018     102002.7      46.7237      46.7237      46.7237 
    8000    91.635747   -8420.0187   -7853.2351   -782.72822     102002.7      46.7237      46.7237      46.7237 
    9000    92.353233   -8431.9933   -7860.7719    -768.2322     102002.7      46.7237      46.7237      46.7237 
   10000    90.896957   -8433.9126   -7871.6984    -758.5046     102002.7      46.7237      46.7237      46.7237 
   11000    90.652397    -8421.372   -7860.6705   -606.69455     102002.7      46.7237      46.7237      46.7237 
   12000    87.293409    -8428.854   -7888.9285   -693.54528     102002.7      46.7237      46.7237      46.7237 
   13000    91.935117   -8409.4939   -7840.8585   -566.69701     102002.7      46.7237      46.7237      46.7237 
   14000    92.279426   -8424.7814   -7854.0165   -740.35057     102002.7      46.7237      46.7237      46.7237 
   15000    91.010625   -8401.5649   -7838.6477   -801.50279     102002.7      46.7237      46.7237      46.7237 
   16000    88.544159    -8420.236   -7872.5744   -593.04571     102002.7      46.7237      46.7237      46.7237 
   17000    88.017021   -8420.4191   -7876.0179    -766.8994     102002.7      46.7237      46.7237      46.7237 
   18000    92.656972   -8429.8813   -7856.7812   -439.84835     102002.7      46.7237      46.7237      46.7237 
   19000    89.359398    -8431.971    -7879.267   -480.43674     102002.7      46.7237      46.7237      46.7237 
   20000    89.797057     -8418.82    -7863.409   -392.34408     102002.7      46.7237      46.7237      46.7237 
   21000    91.787384    -8415.484   -7847.7624   -578.97246     102002.7      46.7237      46.7237      46.7237 
   22000    93.122156   -8405.9498   -7829.9724    -817.6328     102002.7      46.7237      46.7237      46.7237 
   23000    90.654584   -8407.6629   -7846.9479   -668.53182     102002.7      46.7237      46.7237      46.7237 
   24000     90.62204   -8420.0129   -7859.4992   -870.59928     102002.7      46.7237      46.7237      46.7237 
   25000    88.893611   -8426.5625   -7876.7395   -573.96057     102002.7      46.7237      46.7237      46.7237 
   26000    93.547478   -8424.6261   -7846.0181   -346.69282     102002.7      46.7237      46.7237      46.7237 
   27000    89.323724    -8397.716   -7845.2326   -477.53731     102002.7      46.7237      46.7237      46.7237 
   28000    89.965201   -8437.6748   -7881.2238   -699.64634     102002.7      46.7237      46.7237      46.7237 
   29000    93.663667   -8418.0755   -7838.7488   -898.02933     102002.7      46.7237      46.7237      46.7237 
   30000    92.935783   -8429.8848   -7855.0602   -737.43096     102002.7      46.7237      46.7237      46.7237 
   31000    91.009273   -8422.7106   -7859.8018   -878.04335     102002.7      46.7237      46.7237      46.7237 
   32000    90.818022   -8416.7973   -7855.0714     -643.189     102002.7      46.7237      46.7237      46.7237 
   33000    88.405659   -8392.8073   -7846.0023    -747.8931     102002.7      46.7237      46.7237      46.7237 
   34000    91.256245   -8438.6942   -7874.2579   -836.96343     102002.7      46.7237      46.7237      46.7237 
   35000    91.647527     -8412.69   -7845.8334   -521.78314     102002.7      46.7237      46.7237      46.7237 
   36000    90.076531   -8434.8189   -7877.6792   -732.02015     102002.7      46.7237      46.7237      46.7237 
   37000     93.18284    -8406.625   -7830.2723   -540.64047     102002.7      46.7237      46.7237      46.7237 
   38000    90.033465   -8426.8792   -7870.0059   -726.13866     102002.7      46.7237      46.7237      46.7237 
   39000    88.683118   -8410.7649   -7862.2438    -765.4898     102002.7      46.7237      46.7237      46.7237 
   40000    90.570617   -8417.9305   -7857.7349   -808.07475     102002.7      46.7237      46.7237      46.7237 
   41000    87.339293   -8409.8721   -7869.6628    -711.9196     102002.7      46.7237      46.7237      46.7237 
   42000    93.501298   -8419.4312   -7841.1088   -574.75784     102002.7      46.7237      46.7237      46.7237 
   43000    90.175891   -8425.6672    -7867.913   -764.69011     102002.7      46.7237      46.7237      46.7237 
   44000    89.830713   -8413.8004   -7858.1812   -677.18453     102002.7      46.7237      46.7237      46.7237 
   45000    89.959581   -8410.9968   -7854.5806   -627.76903     102002.7      46.7237      46.7237      46.7237 
   46000    89.859558   -8420.9694   -7865.1718   -751.60498     102002.7      46.7237      46.7237      46.7237 
   47000    94.127021   -8424.6034   -7842.4107   -1081.0312     102002.7      46.7237      46.7237      46.7237 
   48000    91.983964   -8420.4365   -7851.4991   -897.61275     102002.7      46.7237      46.7237      46.7237 
   49000    91.400706   -8414.7277   -7849.3978   -973.94903     102002.7      46.7237      46.7237      46.7237 
   50000    88.766613   -8422.2897   -7873.2521   -645.24673     102002.7      46.7237      46.7237      46.7237 
   51000    94.122027   -8415.6857   -7833.5239   -756.99263     102002.7      46.7237      46.7237      46.7237 
   52000    92.576865    -8418.544   -7845.9393   -836.17988     102002.7      46.7237      46.7237      46.7237 
   53000    90.234576   -8419.5854   -7861.4683   -587.32536     102002.7      46.7237      46.7237      46.7237 
   54000    92.040574   -8395.9977   -7826.7101   -899.53665     102002.7      46.7237      46.7237      46.7237 
   55000    90.787608   -8401.7204   -7840.1826   -870.18608     102002.7      46.7237      46.7237      46.7237 
   56000    89.339115   -8435.4364   -7882.8578   -801.80224     102002.7      46.7237      46.7237      46.7237 
   57000    90.989665   -8416.9497   -7854.1622   -850.63104     102002.7      46.7237      46.7237      46.7237 
   58000    91.042904   -8385.8573   -7822.7404   -574.74186     102002.7      46.7237      46.7237      46.7237 
   59000    88.971485   -8397.2251   -7846.9204   -763.74103     102002.7      46.7237      46.7237      46.7237 
   60000    88.986134   -8400.9003   -7850.5049   -751.25111     102002.7      46.7237      46.7237      46.7237 
   61000    93.050652   -8421.2027   -7845.6676   -819.95481     102002.7      46.7237      46.7237      46.7237 
   62000    93.687775   -8418.6914   -7839.2156   -790.65228     102002.7      46.7237      46.7237      46.7237 
   63000    89.809684   -8402.1135   -7846.6244   -608.41753     102002.7      46.7237      46.7237      46.7237 
   64000    92.206216    -8402.843   -7832.5309   -688.05152     102002.7      46.7237      46.7237      46.7237 
   65000    91.715816   -8417.1719    -7849.893   -743.35625     102002.7      46.7237      46.7237      46.7237 
   66000    91.447714   -8394.8606     -7829.24   -769.78812     102002.7      46.7237      46.7237      46.7237 
   67000    89.751564   -8405.4897   -7850.3601   -864.08619     102002.7      46.7237      46.7237      46.7237 
   68000    88.642286   -8428.9161   -7880.6475   -785.61299     102002.7      46.7237      46.7237      46.7237 
   69000     94.74705   -8408.1076   -7822.0799   -629.43802     102002.7      46.7237      46.7237      46.7237 
   70000    90.595667   -8398.8596    -7838.509   -1081.3463     102002.7      46.7237      46.7237      46.7237 
   71000     91.89913   -8429.4886   -7861.0759    -759.1964     102002.7      46.7237      46.7237      46.7237 
   72000    92.827338   -8417.8385   -7843.6846    -811.6454     102002.7      46.7237      46.7237      46.7237 
   73000     87.39832   -8414.8909   -7874.3165   -817.29687     102002.7      46.7237      46.7237      46.7237 
   74000    92.317312   -8408.4502   -7837.4509   -559.59834     102002.7      46.7237      46.7237      46.7237 
   75000     93.15724   -8427.0906   -7850.8962   -521.88233     102002.7      46.7237      46.7237      46.7237 
   76000    92.399802   -8413.9594   -7842.4499   -650.22206     102002.7      46.7237      46.7237      46.7237 
   77000    91.170387   -8416.5113   -7852.6059    -624.2697     102002.7      46.7237      46.7237      46.7237 
   78000     90.76973   -8430.1794   -7868.7522   -795.14519     102002.7      46.7237      46.7237      46.7237 
   79000    91.848687   -8418.4962   -7850.3955   -554.05462     102002.7      46.7237      46.7237      46.7237 
   80000    88.845878   -8425.4974   -7875.9695   -974.02024     102002.7      46.7237      46.7237      46.7237 
   81000    89.398163   -8410.2101   -7857.2663   -559.18542     102002.7      46.7237      46.7237      46.7237 
   82000    94.041656   -8433.6242   -7851.9595   -962.20469     102002.7      46.7237      46.7237      46.7237 
   83000    90.539647   -8409.0777   -7849.0736   -851.65286     102002.7      46.7237      46.7237      46.7237 
   84000    92.385251   -8390.4054   -7818.9859   -675.91897     102002.7      46.7237      46.7237      46.7237 
   85000    89.376372   -8421.9938   -7869.1848   -834.57375     102002.7      46.7237      46.7237      46.7237 
   86000    91.621083   -8406.9309    -7840.238     -721.778     102002.7      46.7237      46.7237      46.7237 
   87000    87.157343   -8409.2402   -7870.1562   -967.06763     102002.7      46.7237      46.7237      46.7237 
   88000    88.492454   -8400.0506   -7852.7088   -1178.2736     102002.7      46.7237      46.7237      46.7237 
   89000    89.813356   -8409.3772   -7853.8654   -761.45231     102002.7      46.7237      46.7237      46.7237 
   90000    89.084549   -8426.9095   -7875.9054   -1009.6377     102002.7      46.7237      46.7237      46.7237 
   91000    90.837744   -8408.9952   -7847.1474   -855.56882     102002.7      46.7237      46.7237      46.7237 
   92000    94.017552   -8387.4398   -7805.9243   -878.47122     102002.7      46.7237      46.7237      46.7237 
   93000    88.907326    -8406.225   -7856.3171   -903.37509     102002.7      46.7237      46.7237      46.7237 
   94000    91.580959   -8404.2663   -7837.8215   -837.44668     102002.7      46.7237      46.7237      46.7237 
   95000     90.31233   -8408.1675   -7849.5694   -1059.4887     102002.7      46.7237      46.7237      46.7237 
   96000    89.055155   -8403.4725   -7852.6503    -757.7218     102002.7      46.7237      46.7237      46.7237 
   97000    90.643479   -8408.6275   -7847.9812    -767.4833     102002.7      46.7237      46.7237      46.7237 
   98000    89.122788   -8421.9605   -7870.7199   -771.26813     102002.7      46.7237      46.7237      46.7237 
   99000    90.386473   -8406.0239   -7846.9672   -825.14651     102002.7      46.7237      46.7237      46.7237 
  100000    92.061133   -8408.4192   -7839.0044   -888.44993     102002.7      46.7237      46.7237      46.7237 
  101000    89.364647   -8402.7397   -7850.0032   -701.03198     102002.7      46.7237      46.7237      46.7237 
  102000    94.007546    -8394.489   -7813.0353   -781.13661     102002.7      46.7237      46.7237      46.7237 
  103000    91.123463   -8399.5234   -7835.9083   -808.08538     102002.7      46.7237      46.7237      46.7237 
  104000    90.157798   -8432.2652    -7874.623   -514.74069     102002.7      46.7237      46.7237      46.7237 
  105000    92.924176   -8429.1007   -7854.3479   -603.81212     102002.7      46.7237      46.7237      46.7237 
  106000    91.080622   -8383.9041    -7820.554   -796.84902     102002.7      46.7237      46.7237      46.7237 
  107000    87.744906   -8395.3493   -7852.6312   -910.76853     102002.7      46.7237      46.7237      46.7237 
  108000    91.345844   -8429.6787   -7864.6881   -916.20166     102002.7      46.7237      46.7237      46.7237 
  109000    92.299771   -8410.9403   -7840.0495    -648.3376     102002.7      46.7237      46.7237      46.7237 
  110000    90.966654   -8401.5391   -7838.8939   -808.71772     102002.7      46.7237      46.7237      46.7237 
  111000    89.836027   -8409.2185   -7853.5664    -809.8892     102002.7      46.7237      46.7237      46.7237 
  112000    89.623026   -8393.6555   -7839.3209   -612.75047     102002.7      46.7237      46.7237      46.7237 
  113000    91.612579   -8411.5486   -7844.9083   -673.16402     102002.7      46.7237      46.7237      46.7237 
  114000    90.464091   -8404.8466   -7845.3098   -720.20617     102002.7      46.7237      46.7237      46.7237 
  115000    92.670968   -8400.5825   -7827.3958   -892.40776     102002.7      46.7237      46.7237      46.7237 
  116000    89.505186   -8400.8712   -7847.2654   -968.03503     102002.7      46.7237      46.7237      46.7237 
  117000    88.064305   -8413.8636   -7869.1699   -972.71779     102002.7      46.7237      46.7237      46.7237 
  118000    91.682187   -8404.4072   -7837.3362   -813.01177     102002.7      46.7237      46.7237      46.7237 
  119000    90.649187   -8415.3494   -7854.6678   -909.39155     102002.7      46.7237      46.7237      46.7237 
  120000    92.361274   -8397.2434   -7825.9722   -889.00702     102002.7      46.7237      46.7237      46.7237 
  121000    92.132638   -8416.1112   -7846.2542   -814.61766     102002.7      46.7237      46.7237      46.7237 
  122000    91.170382   -8424.4882   -7860.5829   -972.16975     102002.7      46.7237      46.7237      46.7237 
  123000    90.901154   -8391.6195   -7829.3794   -670.81886     102002.7      46.7237      46.7237      46.7237 
  124000    91.640496   -8414.6754   -7847.8624   -729.93653     102002.7      46.7237      46.7237      46.7237 
  125000    89.310138   -8399.0161   -7846.6168   -820.40764     102002.7      46.7237      46.7237      46.7237 
  126000     93.46447   -8404.4545   -7826.3599   -628.41553     102002.7      46.7237      46.7237      46.7237 
  127000    90.422117   -8410.1629   -7850.8857   -871.77311     102002.7      46.7237      46.7237      46.7237 
  128000      90.7566   -8426.4389   -7865.0929   -778.59695     102002.7      46.7237      46.7237      46.7237 
  129000    90.954539   -8426.1884   -7863.6182   -986.64853     102002.7      46.7237      46.7237      46.7237 
  130000    92.671701   -8424.8944   -7851.7032   -1037.3676     102002.7      46.7237      46.7237      46.7237 
  131000    94.270762   -8416.2687   -7833.1869   -992.24001     102002.7      46.7237      46.7237      46.7237 
  132000    91.938016   -8406.0545   -7837.4013   -763.51649     102002.7      46.7237      46.7237      46.7237 
  133000    93.612497   -8407.6933   -7828.6831    -652.7265     102002.7      46.7237      46.7237      46.7237 
  134000    91.128733   -8427.9107    -7864.263   -805.25122     102002.7      46.7237      46.7237      46.7237 
  135000    90.927873   -8436.2384   -7873.8331   -797.99271     102002.7      46.7237      46.7237      46.7237 
  136000    89.685072   -8418.9296   -7864.2112   -531.41478     102002.7      46.7237      46.7237      46.7237 
  137000     95.05799   -8419.2145   -7831.2636    -1136.398     102002.7      46.7237      46.7237      46.7237 
  138000    90.750484    -8390.426   -7829.1178   -859.89433     102002.7      46.7237      46.7237      46.7237 
  139000    90.871187   -8413.7452   -7851.6905   -896.96116     102002.7      46.7237      46.7237      46.7237 
  140000    92.741549   -8417.0221   -7843.3989    -1049.117     102002.7      46.7237      46.7237      46.7237 
  141000    91.680546   -8427.0361   -7859.9753   -725.59015     102002.7      46.7237      46.7237      46.7237 
  142000    88.022695    -8420.012   -7875.5757   -750.89565     102002.7      46.7237      46.7237      46.7237 
  143000    91.000485   -8406.1261   -7843.2717   -646.94486     102002.7      46.7237      46.7237      46.7237 
  144000    89.493574    -8411.444   -7857.9101   -540.79782     102002.7      46.7237      46.7237      46.7237 
  145000    91.803119   -8424.7695   -7856.9506   -897.24945     102002.7      46.7237      46.7237      46.7237 
  146000    93.172362   -8399.7838   -7823.4959   -918.36504     102002.7      46.7237      46.7237      46.7237 
  147000    93.454399   -8418.1373    -7840.105   -733.27745     102002.7      46.7237      46.7237      46.7237 
  148000    91.219489   -8394.1616   -7829.9525   -772.32028     102002.7      46.7237      46.7237      46.7237 
  149000    91.758744   -8412.6848   -7845.1404   -795.19452     102002.7      46.7237      46.7237      46.7237 
  150000    91.727423   -8409.2593   -7841.9086   -858.93408     102002.7      46.7237      46.7237      46.7237 
  151000    89.032418   -8410.6455   -7859.9638   -714.87424     102002.7      46.7237      46.7237      46.7237 
  152000    90.577877   -8421.5327   -7861.2921   -748.14873     102002.7      46.7237      46.7237      46.7237 
  153000    92.655874   -8409.5098   -7836.4165   -582.83437     102002.7      46.7237      46.7237      46.7237 
  154000    87.128289   -8395.9982    -7857.094   -684.76489     102002.7      46.7237      46.7237      46.7237 
  155000    91.730032   -8421.1128    -7853.746   -634.45624     102002.7      46.7237      46.7237      46.7237 
  156000    92.269868   -8437.7002   -7866.9943   -539.17728     102002.7      46.7237      46.7237      46.7237 
  157000    91.009238   -8418.7899   -7855.8813   -652.99052     102002.7      46.7237      46.7237      46.7237 
  158000     89.99417   -8418.3457   -7861.7155   -835.45149     102002.7      46.7237      46.7237      46.7237 
  159000    90.198097   -8390.7562   -7832.8646    -470.6084     102002.7      46.7237      46.7237      46.7237 
  160000    88.166589   -8405.2284   -7859.9021   -908.40228     102002.7      46.7237      46.7237      46.7237 
  161000    90.814047   -8423.3431   -7861.6418   -878.02619     102002.7      46.7237      46.7237      46.7237 
  162000    90.631842   -8413.4357   -7852.8614   -638.27291     102002.7      46.7237      46.7237      46.7237 
  163000    90.549899   -8405.7097   -7845.6422   -878.26522     102002.7      46.7237      46.7237      46.7237 
  164000    91.574417   -8406.1987   -7839.7944   -847.49954     102002.7      46.7237      46.7237      46.7237 
  165000    92.625294    -8417.947   -7845.0428   -621.19877     102002.7      46.7237      46.7237      46.7237 
  166000    90.102927   -8400.9674   -7843.6645   -995.07412     102002.7      46.7237      46.7237      46.7237 
  167000    89.413619   -8407.9409   -7854.9015   -804.72244     102002.7      46.7237      46.7237      46.7237 
  168000    92.747414   -8393.9859   -7820.3263   -598.26911     102002.7      46.7237      46.7237      46.7237 
  169000    92.208482   -8426.7756   -7856.4494   -661.47643     102002.7      46.7237      46.7237      46.7237 
  170000    93.989899   -8417.8274   -7836.4829    -1001.928     102002.7      46.7237      46.7237      46.7237 
  171000     89.71626   -8410.0977   -7855.1864   -876.58842     102002.7      46.7237      46.7237      46.7237 
  172000    92.182953   -8405.5262    -7835.358   -574.52442     102002.7      46.7237      46.7237      46.7237 
  173000    89.237545   -8401.1199   -7849.1695   -882.87799     102002.7      46.7237      46.7237      46.7237 
  174000    89.271909   -8418.7941   -7866.6312   -664.97035     102002.7      46.7237      46.7237      46.7237 
  175000    94.061614   -8406.5671    -7824.779    -640.6547     102002.7      46.7237      46.7237      46.7237 
  176000    90.885392   -8416.7725   -7854.6299    -791.2421     102002.7      46.7237      46.7237      46.7237 
  177000    92.585117   -8405.5139   -7832.8582   -627.35866     102002.7      46.7237      46.7237      46.7237 
  178000     90.66989   -8427.8754   -7867.0657   -692.07844     102002.7      46.7237      46.7237      46.7237 
  179000    92.520733   -8428.9042   -7856.6467   -751.28072     102002.7      46.7237      46.7237      46.7237 
  180000    88.201818   -8428.7221   -7883.1779   -672.95735     102002.7      46.7237      46.7237      46.7237 
  181000     95.13928   -8401.8065   -7813.3528   -936.57232     102002.7      46.7237      46.7237      46.7237 
  182000    88.826286   -8408.1563   -7858.7497     -783.458     102002.7      46.7237      46.7237      46.7237 
  183000    92.233187   -8418.5447   -7848.0657   -637.52332     102002.7      46.7237      46.7237      46.7237 
  184000     92.52168   -8406.2814   -7834.0181   -920.85682     102002.7      46.7237      46.7237      46.7237 
  185000    91.205753   -8406.0906   -7841.9665   -811.35347     102002.7      46.7237      46.7237      46.7237 
  186000    90.505102    -8420.772   -7860.9815   -989.71607     102002.7      46.7237      46.7237      46.7237 
  187000    91.092501   -8426.1842   -7862.7606   -707.15058     102002.7      46.7237      46.7237      46.7237 
  188000    88.266464   -8426.7761    -7880.832   -772.66369     102002.7      46.7237      46.7237      46.7237 
  189000    91.083188   -8412.1185   -7848.7525   -693.96388     102002.7      46.7237      46.7237      46.7237 
  190000    90.868537   -8405.4846   -7843.4463   -695.31859     102002.7      46.7237      46.7237      46.7237 
  191000    94.348681   -8393.7677   -7810.2041   -785.35735     102002.7      46.7237      46.7237      46.7237 
  192000    92.086338   -8427.4297   -7857.8591   -933.64786     102002.7      46.7237      46.7237      46.7237 
  193000    91.978875   -8397.0196   -7828.1136   -809.36166     102002.7      46.7237      46.7237      46.7237 
  194000    91.133242   -8422.5364   -7858.8608    -601.8847     102002.7      46.7237      46.7237      46.7237 
  195000    91.183154   -8414.1772   -7850.1929   -642.23801     102002.7      46.7237      46.7237      46.7237 
  196000    90.975758   -8420.7543   -7858.0528   -646.37146     102002.7      46.7237      46.7237      46.7237 
  197000    92.121311   -8403.6656   -7833.8786   -617.85166     102002.7      46.7237      46.7237      46.7237 
  198000    90.625011    -8426.746   -7866.2139   -736.49269     102002.7      46.7237      46.7237      46.7237 
  199000     88.86985    -8392.014   -7842.3379   -627.67298     102002.7      46.7237      46.7237      46.7237 
  200000    89.943695   -8413.4213   -7857.1033   -520.16419     102002.7      46.7237      46.7237      46.7237 
  201000    90.462764   -8420.2468   -7860.7182   -814.04955     102002.7      46.7237      46.7237      46.7237 
  202000    91.717542   -8390.4116    -7823.122   -617.73834     102002.7      46.7237      46.7237      46.7237 
  203000     93.62313   -8423.9871   -7844.9111   -747.52975     102002.7      46.7237      46.7237      46.7237 
  204000    89.057529   -8413.5782   -7862.7413   -526.98683     102002.7      46.7237      46.7237      46.7237 
  205000    94.116473   -8420.1432   -7838.0158   -585.79045     102002.7      46.7237      46.7237      46.7237 
  206000    90.823217   -8419.6376   -7857.8795   -917.60783     102002.7      46.7237      46.7237      46.7237 
  207000     88.16858   -8401.4572   -7856.1186   -605.17244     102002.7      46.7237      46.7237      46.7237 
  208000     92.49873   -8423.5887   -7851.4673   -916.71012     102002.7      46.7237      46.7237      46.7237 
  209000    91.669454   -8448.7003   -7881.7081   -1090.1806     102002.7      46.7237      46.7237      46.7237 
  210000    90.218618   -8411.5412   -7853.5228   -982.70682     102002.7      46.7237      46.7237      46.7237 
  211000    91.772893   -8395.2458   -7827.6139   -1057.5663     102002.7      46.7237      46.7237      46.7237 
  212000    89.645699   -8405.0771   -7850.6022   -681.95704     102002.7      46.7237      46.7237      46.7237 
  213000    90.890426   -8421.2544   -7859.0806   -859.38528     102002.7      46.7237      46.7237      46.7237 
  214000    94.012032   -8416.6108   -7835.1294   -996.24163     102002.7      46.7237      46.7237      46.7237 
  215000    90.956154   -8397.2493   -7834.6691   -831.25365     102002.7      46.7237      46.7237      46.7237 
  216000    89.682844   -8424.8978   -7870.1932   -1144.3624     102002.7      46.7237      46.7237      46.7237 
  217000    91.627172   -8423.9382   -7857.2076   -702.88842     102002.7      46.7237      46.7237      46.7237 
  218000    88.164032   -8407.8739   -7862.5634   -862.57202     102002.7      46.7237      46.7237      46.7237 
  219000    90.987608   -8416.7911   -7854.0162   -887.77877     102002.7      46.7237      46.7237      46.7237 
  220000     91.38344   -8421.0093   -7855.7862   -680.44709     102002.7      46.7237      46.7237      46.7237 
  221000    89.158918   -8395.4763   -7844.0122   -691.97591     102002.7      46.7237      46.7237      46.7237 
  222000    91.264896   -8418.9701   -7854.4802   -715.92205     102002.7      46.7237      46.7237      46.7237 
  223000    90.977805   -8407.9098   -7845.1956   -978.94617     102002.7      46.7237      46.7237      46.7237 
  224000    92.556586   -8402.4878   -7830.0085   -985.63003     102002.7      46.7237      46.7237      46.7237 
  225000    88.904502   -8417.3471   -7867.4567   -814.45946     102002.7      46.7237      46.7237      46.7237 
  226000    93.973294   -8413.1981   -7831.9562   -838.11915     102002.7      46.7237      46.7237      46.7237 
  227000     88.75468   -8414.3651   -7865.4014    -780.6606     102002.7      46.7237      46.7237      46.7237 
  228000    89.330123   -8412.1293   -7859.6063   -995.64058     102002.7      46.7237      46.7237      46.7237 
  229000    93.194143   -8402.7704   -7826.3477   -573.84801     102002.7      46.7237      46.7237      46.7237 
  230000    88.377357   -8408.5872   -7861.9573   -695.85565     102002.7      46.7237      46.7237      46.7237 
  231000    92.734454     -8412.32   -7838.7406   -882.81945     102002.7      46.7237      46.7237      46.7237 
  232000    91.655429   -8410.6358   -7843.7303   -293.81322     102002.7      46.7237      46.7237      46.7237 
  233000    89.860839   -8429.0106    -7873.205   -728.02993     102002.7      46.7237      46.7237      46.7237 
  234000    88.747621   -8400.5124   -7851.5923   -892.13137     102002.7      46.7237      46.7237      46.7237 
  235000    91.318465   -8441.4476   -7876.6264   -801.19522     102002.7      46.7237      46.7237      46.7237 
  236000    92.015557   -8420.8172   -7851.6844   -911.98423     102002.7      46.7237      46.7237      46.7237 
  237000    93.290863   -8434.2961   -7857.2752   -610.55369     102002.7      46.7237      46.7237      46.7237 
  238000    90.721296   -8422.1883   -7861.0607   -694.87408     102002.7      46.7237      46.7237      46.7237 
  239000     94.65289   -8396.8889   -7811.4436   -578.01073     102002.7      46.7237      46.7237      46.7237 
  240000    90.488408   -8432.1123   -7872.4251   -544.69998     102002.7      46.7237      46.7237      46.7237 
  241000    91.594857   -8424.7446   -7858.2139    -800.4654     102002.7      46.7237      46.7237      46.7237 
  242000    91.574366   -8437.0329   -7870.6289   -593.42221     102002.7      46.7237      46.7237      46.7237 
  243000    92.285594   -8396.3578   -7825.5547   -831.51093     102002.7      46.7237      46.7237      46.7237 
  244000    88.936792    -8421.519   -7871.4289    -769.5539     102002.7      46.7237      46.7237      46.7237 
  245000    93.320827   -8410.7533   -7833.5471   -725.69333     102002.7      46.7237      46.7237      46.7237 
  246000    92.908746   -8430.4643   -7855.8069   -853.98474     102002.7      46.7237      46.7237      46.7237 
  247000    91.490049   -8429.7928   -7863.9103   -641.81435     102002.7      46.7237      46.7237      46.7237 
  248000    90.828892   -8420.0058   -7858.2127   -646.59983     102002.7      46.7237      46.7237      46.7237 
  249000    87.532939   -8404.9938   -7863.5868    -715.2097     102002.7      46.7237      46.7237      46.7237 
  250000    91.152099   -8405.0721   -7841.2799   -684.98369     102002.7      46.7237      46.7237      46.7237 
  251000     90.07574   -8435.9833   -7878.8486   -739.90982     102002.7      46.7237      46.7237      46.7237 
  252000    91.176033   -8422.2327   -7858.2924   -680.39142     102002.7      46.7237      46.7237      46.7237 
  253000    92.317539   -8416.9472   -7845.9466   -830.01475     102002.7      46.7237      46.7237      46.7237 
  254000    90.952895   -8403.7094   -7841.1492   -867.87117     102002.7      46.7237      46.7237      46.7237 
  255000    90.715443   -8420.9224    -7859.831   -721.91649     102002.7      46.7237      46.7237      46.7237 
  256000     90.15803   -8423.5987    -7865.955   -774.63558     102002.7      46.7237      46.7237      46.7237 
  257000    90.779124   -8415.8374   -7854.3521   -785.63519     102002.7      46.7237      46.7237      46.7237 
  258000    91.297537   -8401.8407   -7837.1489   -1031.3652     102002.7      46.7237      46.7237      46.7237 
  259000    91.530643    -8416.374   -7850.2404   -1052.1206     102002.7      46.7237      46.7237      46.7237 
  260000    91.436476   -8415.5284   -7849.9773   -872.23339     102002.7      46.7237      46.7237      46.7237 
  261000     92.31411   -8395.3032   -7824.3238   -888.97804     102002.7      46.7237      46.7237      46.7237 
  262000    88.939426   -8429.4949   -7879.3884   -628.95587     102002.7      46.7237      46.7237      46.7237 
  263000    89.716493   -8397.0699   -7842.1571    -876.0025     102002.7      46.7237      46.7237      46.7237 
  264000    90.966577    -8421.633   -7858.9883   -688.24615     102002.7      46.7237      46.7237      46.7237 
  265000    88.864503   -8426.6565   -7877.0135   -722.10479     102002.7      46.7237      46.7237      46.7237 
  266000    89.257341    -8403.331   -7851.2582   -823.45204     102002.7      46.7237      46.7237      46.7237 
  267000    93.371494   -8433.7952   -7856.2757   -814.35863     102002.7      46.7237      46.7237      46.7237 
  268000    92.786623   -8421.7549   -7847.8528   -629.08049     102002.7      46.7237      46.7237      46.7237 
  269000    89.624267   -8404.7745   -7850.4322   -750.02062     102002.7      46.7237      46.7237      46.7237 
  270000    90.985016   -8399.6635   -7836.9047   -888.58348     102002.7      46.7237      46.7237      46.7237 
  271000    90.484753   -8417.9484   -7858.2838   -851.56378     102002.7      46.7237      46.7237      46.7237 
  272000    91.531485   -8406.5141   -7840.3753    -596.6833     102002.7      46.7237      46.7237      46.7237 
  273000    89.833065   -8429.6797    -7874.046   -610.18447     102002.7      46.7237      46.7237      46.7237 
  274000    88.491014   -8420.0752   -7872.7422   -973.12061     102002.7      46.7237      46.7237      46.7237 
  275000    89.857629   -8438.1913   -7882.4056   -664.99528     102002.7      46.7237      46.7237      46.7237 
  276000    90.340173   -8422.8165   -7864.0462   -672.23275     102002.7      46.7237      46.7237      46.7237 
  277000    90.034865    -8400.389   -7843.5071    -794.7891     102002.7      46.7237      46.7237      46.7237 
  278000    90.335358   -8413.7634   -7855.0228   -564.10762     102002.7      46.7237      46.7237      46.7237 
  279000    93.221533   -8402.9676   -7826.3756   -1021.5107     102002.7      46.7237      46.7237      46.7237 
  280000     90.49527    -8405.337   -7845.6074   -730.15834     102002.7      46.7237      46.7237      46.7237 
  281000    92.358946   -8426.7558   -7855.4991   -899.14659     102002.7      46.7237      46.7237      46.7237 
  282000    89.928605    -8420.171   -7863.9463   -816.38173     102002.7      46.7237      46.7237      46.7237 
  283000    88.648599   -8415.9624   -7867.6548   -666.94042     102002.7      46.7237      46.7237      46.7237 
  284000    91.368368   -8438.3798   -7873.2499   -785.64789     102002.7      46.7237      46.7237      46.7237 
  285000    91.520734   -8428.6416   -7862.5693   -594.38901     102002.7      46.7237      46.7237      46.7237 
  286000    91.421313   -8420.1652   -7854.7078   -497.96447     102002.7      46.7237      46.7237      46.7237 
  287000    94.755315   -8430.5873   -7844.5085   -626.05759     102002.7      46.7237      46.7237      46.7237 
  288000     90.54509   -8416.6266   -7856.5888   -653.25247     102002.7      46.7237      46.7237      46.7237 
  289000    90.825602   -8415.6009   -7853.8281   -627.27595     102002.7      46.7237      46.7237      46.7237 
  290000    92.131428   -8429.6449   -7859.7953   -617.45002     102002.7      46.7237      46.7237      46.7237 
  291000    90.662867   -8418.1571   -7857.3909   -606.92725     102002.7      46.7237      46.7237      46.7237 
  292000    91.884979   -8416.4231   -7848.0979    -805.7956     102002.7      46.7237      46.7237      46.7237 
  293000    90.770734   -8425.8733   -7864.4399   -758.68482     102002.7      46.7237      46.7237      46.7237 
  294000    91.627142   -8410.7065    -7843.976   -805.33327     102002.7      46.7237      46.7237      46.7237 
  295000     91.42502   -8414.1949   -7848.7146    -749.5567     102002.7      46.7237      46.7237      46.7237 
  296000    90.768585   -8428.0334   -7866.6133   -546.72362     102002.7      46.7237      46.7237      46.7237 
  297000    89.808562   -8423.8995   -7868.4173   -763.75301     102002.7      46.7237      46.7237      46.7237 
  298000    90.411964   -8425.9832   -7866.7689   -759.94233     102002.7      46.7237      46.7237      46.7237 
  299000    90.111361    -8423.871    -7866.516   -937.46208     102002.7      46.7237      46.7237      46.7237 
  300000    91.894792   -8418.3519    -7849.966   -923.93338     102002.7      46.7237      46.7237      46.7237 
  301000     90.48657   -8425.1035   -7865.4277   -928.46958     102002.7      46.7237      46.7237      46.7237 
  302000    89.291939   -8419.3287   -7867.0419   -980.32548     102002.7      46.7237      46.7237      46.7237 
  303000    91.652671   -8410.9766   -7844.0883   -805.54104     102002.7      46.7237      46.7237      46.7237 
  304000    91.141116   -8423.7918   -7860.0675   -913.71248     102002.7      46.7237      46.7237      46.7237 
  305000    90.261787    -8419.969   -7861.6835   -655.22232     102002.7      46.7237      46.7237      46.7237 
  306000    94.226998   -8428.8738   -7846.0628   -1290.9852     102002.7      46.7237      46.7237      46.7237 
  307000    90.708087   -8415.0191   -7853.9732   -600.71552     102002.7      46.7237      46.7237      46.7237 
  308000    91.306964   -8428.0288   -7863.2787   -688.14879     102002.7      46.7237      46.7237      46.7237 
  309000    91.089984   -8417.0409   -7853.6329   -759.10303     102002.7      46.7237      46.7237      46.7237 
  310000    90.780596   -8422.3496   -7860.8552   -864.43981     102002.7      46.7237      46.7237      46.7237 
  311000    92.275076   -8414.9402   -7844.2022    -957.2722     102002.7      46.7237      46.7237      46.7237 
  312000    92.302234   -8425.6771    -7854.771   -622.59251     102002.7      46.7237      46.7237      46.7237 
  313000    91.324243   -8405.2714   -7840.4145   -566.54902     102002.7      46.7237      46.7237      46.7237 
  314000    89.104953   -8421.0964   -7869.9662   -735.66644     102002.7      46.7237      46.7237      46.7237 
  315000    95.415382   -8423.8677   -7833.7063   -792.24202     102002.7      46.7237      46.7237      46.7237 
  316000    91.035061   -8427.7742   -7864.7059   -902.80864     102002.7      46.7237      46.7237      46.7237 
  317000    88.686973   -8438.2693   -7889.7243   -775.15034     102002.7      46.7237      46.7237      46.7237 
  318000    91.354681   -8423.2557   -7858.2104   -924.54795     102002.7      46.7237      46.7237      46.7237 
  319000    91.326643   -8417.0505   -7852.1787   -1021.9461     102002.7      46.7237      46.7237      46.7237 
  320000    90.454317   -8432.0292   -7872.5529   -654.93043     102002.7      46.7237      46.7237      46.7237 
  321000    90.653564   -8400.2918   -7839.5831   -703.20157     102002.7      46.7237      46.7237      46.7237 
  322000     94.78461   -8421.8518   -7835.5919   -588.95261     102002.7      46.7237      46.7237      46.7237 
  323000    92.187922   -8414.5249    -7844.326   -669.21079     102002.7      46.7237      46.7237      46.7237 
  324000    89.407162   -8429.6465   -7876.6471   -847.35216     102002.7      46.7237      46.7237      46.7237 
  325000    92.769659   -8412.6637   -7838.8666   -721.69512     102002.7      46.7237      46.7237      46.7237 
  326000    90.400009   -8424.5331   -7865.3927   -890.40859     102002.7      46.7237      46.7237      46.7237 
  327000    93.237162   -8423.7124   -7847.0237   -778.55857     102002.7      46.7237      46.7237      46.7237 
  328000    92.827016   -8409.0461   -7834.8942   -679.18927     102002.7      46.7237      46.7237      46.7237 
  329000    87.739178   -8437.2896   -7894.6069    -766.9556     102002.7      46.7237      46.7237      46.7237 
  330000    92.418495   -8416.0956   -7844.4705   -672.80905     102002.7      46.7237      46.7237      46.7237 
  331000    93.043509   -8423.9964   -7848.5054   -663.68848     102002.7      46.7237      46.7237      46.7237 
  332000    91.241096   -8426.8549   -7862.5122    -756.1039     102002.7      46.7237      46.7237      46.7237 
  333000    89.508906   -8430.3345   -7876.7057   -729.81649     102002.7      46.7237      46.7237      46.7237 
  334000    90.624607   -8404.7339   -7844.2043   -716.08687     102002.7      46.7237      46.7237      46.7237 
  335000    89.515307   -8410.4281   -7856.7597   -797.68251     102002.7      46.7237      46.7237      46.7237 
  336000    89.258987   -8418.6586   -7866.5756    -585.0157     102002.7      46.7237      46.7237      46.7237 
  337000    93.658493   -8410.4545   -7831.1598   -930.65786     102002.7      46.7237      46.7237      46.7237 
  338000    88.039958   -8410.2953   -7865.7522   -576.61402     102002.7      46.7237      46.7237      46.7237 
  339000    93.606574   -8398.8732   -7819.8996   -960.53426     102002.7      46.7237      46.7237      46.7237 
  340000    91.275485   -8410.1221   -7845.5667   -692.77249     102002.7      46.7237      46.7237      46.7237 
  341000    93.204992   -8410.9036   -7834.4139   -814.73232     102002.7      46.7237      46.7237      46.7237 
  342000    90.783059   -8410.9384   -7849.4287   -975.47594     102002.7      46.7237      46.7237      46.7237 
  343000    93.566397   -8407.7878   -7829.0627   -747.57429     102002.7      46.7237      46.7237      46.7237 
  344000    88.535779   -8409.6077   -7861.9979   -940.35206     102002.7      46.7237      46.7237      46.7237 
  345000    93.019121   -8406.5342   -7831.1941   -692.44189     102002.7      46.7237      46.7237      46.7237 
  346000    90.197461   -8420.3377   -7862.4501   -884.88866     102002.7      46.7237      46.7237      46.7237 
  347000    91.389175   -8412.5217   -7847.2632   -819.09738     102002.7      46.7237      46.7237      46.7237 
  348000    92.143788   -8402.0466   -7832.1206   -694.83315     102002.7      46.7237      46.7237      46.7237 
  349000    90.492438   -8412.7742   -7853.0621   -615.43395     102002.7      46.7237      46.7237      46.7237 
  350000    86.667945    -8412.214   -7876.1571   -748.02463     102002.7      46.7237      46.7237      46.7237 
  351000    91.518671   -8414.2999   -7848.2403   -669.96961     102002.7      46.7237      46.7237      46.7237 
  352000    88.346353    -8405.558   -7859.1199   -558.01031     102002.7      46.7237      46.7237      46.7237 
  353000    90.519618   -8400.3683   -7840.4881   -998.31452     102002.7      46.7237      46.7237      46.7237 
  354000    92.615544   -8399.7093   -7826.8654   -777.59129     102002.7      46.7237      46.7237      46.7237 
  355000    89.557893   -8407.2089   -7853.2771   -706.14366     102002.7      46.7237      46.7237      46.7237 
  356000    90.476564   -8409.6371   -7850.0232   -714.94277     102002.7      46.7237      46.7237      46.7237 
  357000    89.801436   -8413.3327   -7857.8945   -578.67578     102002.7      46.7237      46.7237      46.7237 
  358000    93.715051   -8402.5058   -7822.8613   -751.64687     102002.7      46.7237      46.7237      46.7237 
  359000    92.259324   -8402.3209   -7831.6803    -749.6536     102002.7      46.7237      46.7237      46.7237 
  360000    92.674561   -8402.9324   -7829.7234   -875.27585     102002.7      46.7237      46.7237      46.7237 
  361000    89.466982   -8406.3127   -7852.9432   -559.55476     102002.7      46.7237      46.7237      46.7237 
  362000    89.431883   -8417.5022   -7864.3498   -745.74532     102002.7      46.7237      46.7237      46.7237 
  363000     89.17022    -8386.609   -7835.0751   -667.72568     102002.7      46.7237      46.7237      46.7237 
  364000    89.090231   -8394.0512    -7843.012    -573.7562     102002.7      46.7237      46.7237      46.7237 
  365000     91.73053   -8400.9727   -7833.6028   -686.46919     102002.7      46.7237      46.7237      46.7237 
  366000    90.861519   -8404.3215   -7842.3265   -775.78819     102002.7      46.7237      46.7237      46.7237 
  367000    90.873046    -8419.116   -7857.0497   -859.53266     102002.7      46.7237      46.7237      46.7237 
  368000    92.019502   -8397.6069   -7828.4497   -835.82075     102002.7      46.7237      46.7237      46.7237 
  369000      91.9077   -8400.6161   -7832.1504   -784.21434     102002.7      46.7237      46.7237      46.7237 
  370000    87.447041   -8424.3069   -7883.4311   -879.74663     102002.7      46.7237      46.7237      46.7237 
  371000    88.426318    -8390.495   -7843.5623   -912.04137     102002.7      46.7237      46.7237      46.7237 
  372000    90.453951    -8409.189    -7849.715   -729.74364     102002.7      46.7237      46.7237      46.7237 
  373000    95.208688   -8419.5695   -7830.6865   -583.40839     102002.7      46.7237      46.7237      46.7237 
  374000    89.807736   -8400.4894   -7845.0123   -913.61022     102002.7      46.7237      46.7237      46.7237 
  375000    89.667404   -8389.9744   -7835.3653   -591.71774     102002.7      46.7237      46.7237      46.7237 
  376000    89.215703   -8380.5627   -7828.7474   -755.35829     102002.7      46.7237      46.7237      46.7237 
  377000    89.221738   -8405.1037   -7853.2511   -619.36629     102002.7      46.7237      46.7237      46.7237 
  378000    91.734258   -8400.2842   -7832.8912   -787.43225     102002.7      46.7237      46.7237      46.7237 
  379000    91.292636   -8416.4518   -7851.7903   -849.10912     102002.7      46.7237      46.7237      46.7237 
  380000     93.18639    -8408.697   -7832.3223    -856.6072     102002.7      46.7237      46.7237      46.7237 
  381000     91.18727   -8413.4548    -7849.445   -1018.0984     102002.7      46.7237      46.7237      46.7237 
  382000    91.129701   -8398.0394   -7834.3857   -719.20052     102002.7      46.7237      46.7237      46.7237 
  383000    89.213595   -8411.8642    -7860.062   -952.13271     102002.7      46.7237      46.7237      46.7237 
  384000     90.84841   -8409.8619   -7847.9481    -769.7977     102002.7      46.7237      46.7237      46.7237 
  385000    89.850591   -8423.6431    -7867.901   -751.99983     102002.7      46.7237      46.7237      46.7237 
  386000     91.90032   -8412.1198   -7843.6997   -768.55558     102002.7      46.7237      46.7237      46.7237 
  387000    89.917918    -8374.015   -7817.8564   -797.02172     102002.7      46.7237      46.7237      46.7237 
  388000    90.814648   -8417.6093   -7855.9043   -717.06369     102002.7      46.7237      46.7237      46.7237 
  389000    91.255409   -8401.0303   -7836.5991   -678.22162     102002.7      46.7237      46.7237      46.7237 
  390000    87.504211   -8406.8343    -7865.605   -800.45015     102002.7      46.7237      46.7237      46.7237 
  391000    89.326815   -8400.4804   -7847.9779   -815.11252     102002.7      46.7237      46.7237      46.7237 
  392000    91.266624    -8402.225   -7837.7244   -705.95634     102002.7      46.7237      46.7237      46.7237 
  393000    91.655205    -8413.142    -7846.238   -757.71844     102002.7      46.7237      46.7237      46.7237 
  394000    89.311112    -8416.644   -7864.2386   -908.16047     102002.7      46.7237      46.7237      46.7237 
  395000    91.768524   -8408.5227   -7840.9178   -985.78696     102002.7      46.7237      46.7237      46.7237 
  396000    90.372459    -8407.927    -7848.957   -725.10005     102002.7      46.7237      46.7237      46.7237 
  397000    89.697036    -8414.448   -7859.6556   -1051.2401     102002.7      46.7237      46.7237      46.7237 
  398000    92.070436   -8416.4037   -7846.9314   -731.46858     102002.7      46.7237      46.7237      46.7237 
  399000    91.036125   -8412.4164   -7849.3415   -779.63626     102002.7      46.7237      46.7237      46.7237 
  400000    93.927513   -8422.2513   -7841.2926    -612.0476     102002.7      46.7237      46.7237      46.7237 
  401000    91.682438   -8403.8132   -7836.7407    -753.1394     102002.7      46.7237      46.7237      46.7237 
  402000      90.5229   -8408.5882   -7848.6877   -784.81738     102002.7      46.7237      46.7237      46.7237 
  403000    91.897681   -8421.1266   -7852.7228   -813.61531     102002.7      46.7237      46.7237      46.7237 
  404000    92.111633   -8396.4485   -7826.7214   -677.24522     102002.7      46.7237      46.7237      46.7237 
  405000    90.602938   -8414.7862   -7854.3906   -783.47258     102002.7      46.7237      46.7237      46.7237 
  406000    91.955208   -8401.3012   -7832.5416   -804.17096     102002.7      46.7237      46.7237      46.7237 
  407000    89.945893   -8404.8006    -7848.469    -819.9506     102002.7      46.7237      46.7237      46.7237 
  408000    88.452257   -8395.9916   -7848.8984   -694.24318     102002.7      46.7237      46.7237      46.7237 
  409000     89.64672    -8422.675   -7868.1938   -571.65479     102002.7      46.7237      46.7237      46.7237 
  410000    90.272825   -8391.1962   -7832.8424   -1027.2966     102002.7      46.7237      46.7237      46.7237 
  411000    92.723903   -8413.9366   -7840.4225    -559.7736     102002.7      46.7237      46.7237      46.7237 
  412000     89.18671    -8394.648    -7843.012   -890.29315     102002.7      46.7237      46.7237      46.7237 
  413000    91.163804   -8400.1925   -7836.3278   -965.26912     102002.7      46.7237      46.7237      46.7237 
  414000    92.083208   -8416.0321   -7846.4808   -716.40705     102002.7      46.7237      46.7237      46.7237 
  415000    91.326568   -8410.4501   -7845.5788   -1145.2419     102002.7      46.7237      46.7237      46.7237 
  416000    93.250854   -8373.2715   -7796.4981   -753.13211     102002.7      46.7237      46.7237      46.7237 
  417000    91.856775   -8419.6448    -7851.494   -653.27724     102002.7      46.7237      46.7237      46.7237 
  418000    90.314274    -8403.577   -7844.9669   -995.20788     102002.7      46.7237      46.7237      46.7237 
  419000    89.867001   -8392.8168   -7836.9732   -578.74418     102002.7      46.7237      46.7237      46.7237 
  420000    90.988191   -8414.1282   -7851.3498   -807.00462     102002.7      46.7237      46.7237      46.7237 
  421000    88.542965   -8410.2785   -7862.6243   -727.29577     102002.7      46.7237      46.7237      46.7237 
  422000    93.398757   -8399.8523   -7822.1641   -521.04834     102002.7      46.7237      46.7237      46.7237 
  423000    91.275154   -8418.8575   -7854.3041   -837.52371     102002.7      46.7237      46.7237      46.7237 
  424000     88.72944   -8376.4648   -7827.6572   -590.94163     102002.7      46.7237      46.7237      46.7237 
  425000    90.688548   -8391.7463   -7830.8212   -566.39338     102002.7      46.7237      46.7237      46.7237 
  426000     88.99985    -8408.068   -7857.5879   -744.74418     102002.7      46.7237      46.7237      46.7237 
  427000    91.143508   -8391.6311   -7827.8921   -696.94739     102002.7      46.7237      46.7237      46.7237 
  428000    90.422353   -8409.1715   -7849.8929    -889.1456     102002.7      46.7237      46.7237      46.7237 
  429000    89.774465   -8404.8201   -7849.5488   -760.57651     102002.7      46.7237      46.7237      46.7237 
  430000    91.846652   -8401.4594   -7833.3713   -656.52369     102002.7      46.7237      46.7237      46.7237 
  431000    89.991464   -8410.5416   -7853.9281    -943.4457     102002.7      46.7237      46.7237      46.7237 
  432000    91.607685   -8422.4598   -7855.8497   -675.63766     102002.7      46.7237      46.7237      46.7237 
  433000    90.213217   -8394.0895   -7836.1044   -927.12026     102002.7      46.7237      46.7237      46.7237 
  434000    91.143303   -8418.7451   -7855.0073    -596.3286     102002.7      46.7237      46.7237      46.7237 
  435000    90.122955   -8397.5419   -7840.1151   -681.50558     102002.7      46.7237      46.7237      46.7237 
  436000    93.732699   -8410.9152   -7831.1615   -849.36863     102002.7      46.7237      46.7237      46.7237 
  437000    92.995136   -8410.1965   -7835.0047   -498.54574     102002.7      46.7237      46.7237      46.7237 
  438000    90.987673   -8414.5996   -7851.8244   -529.90603     102002.7      46.7237      46.7237      46.7237 
  439000    92.839655    -8399.381   -7825.1509   -624.64276     102002.7      46.7237      46.7237      46.7237 
  440000    91.255969   -8388.3096   -7823.8749   -675.28372     102002.7      46.7237      46.7237      46.7237 
  441000    91.674053   -8399.5436    -7832.523   -619.74808     102002.7      46.7237      46.7237      46.7237 
  442000     90.76417   -8401.5255   -7840.1327   -532.67868     102002.7      46.7237      46.7237      46.7237 
  443000    90.066226    -8410.164   -7853.0881   -642.62678     102002.7      46.7237      46.7237      46.7237 
  444000    91.744994   -8416.4417   -7848.9823   -963.96208     102002.7      46.7237      46.7237      46.7237 
  445000    91.124779   -8403.3288   -7839.7055   -820.62737     102002.7      46.7237      46.7237      46.7237 
  446000    92.151025   -8388.7255   -7818.7548   -972.19447     102002.7      46.7237      46.7237      46.7237 
  447000    91.677315   -8435.6443   -7868.6036    -733.3664     102002.7      46.7237      46.7237      46.7237 
  448000    92.909152   -8414.6005   -7839.9406   -728.02213     102002.7      46.7237      46.7237      46.7237 
  449000    92.145063   -8395.7626   -7825.8287   -806.95285     102002.7      46.7237      46.7237      46.7237 
  450000    89.043415   -8410.9909   -7860.2413   -736.97608     102002.7      46.7237      46.7237      46.7237 
  451000    88.668027   -8424.1043   -7875.6766   -845.49098     102002.7      46.7237      46.7237      46.7237 
  452000    90.300932   -8402.6241   -7844.0965   -770.46742     102002.7      46.7237      46.7237      46.7237 
  453000    92.566806   -8422.4441   -7849.9017   -937.90958     102002.7      46.7237      46.7237      46.7237 
  454000    94.803622   -8420.0866    -7833.709   -1063.4612     102002.7      46.7237      46.7237      46.7237 
  455000    89.260056   -8402.2163   -7850.1267    -807.8294     102002.7      46.7237      46.7237      46.7237 
  456000    93.851201   -8413.8418   -7833.3552    -847.2863     102002.7      46.7237      46.7237      46.7237 
  457000    90.867879   -8398.1937   -7836.1594   -850.99335     102002.7      46.7237      46.7237      46.7237 
  458000    90.124316   -8408.1366   -7850.7014   -787.49261     102002.7      46.7237      46.7237      46.7237 
  459000    89.108877   -8418.5609   -7867.4064   -1024.7565     102002.7      46.7237      46.7237      46.7237 
  460000    89.658475    -8379.866   -7825.3122   -797.61232     102002.7      46.7237      46.7237      46.7237 
  461000    91.384089   -8415.6491    -7850.422   -773.73337     102002.7      46.7237      46.7237      46.7237 
  462000    92.134885   -8400.1819    -7830.311    -461.0316     102002.7      46.7237      46.7237      46.7237 
  463000    91.657527   -8406.2334    -7839.315   -886.56678     102002.7      46.7237      46.7237      46.7237 
  464000    93.866248   -8390.6235   -7810.0438   -758.32407     102002.7      46.7237      46.7237      46.7237 
  465000    90.980876   -8418.0467   -7855.3135    -623.3055     102002.7      46.7237      46.7237      46.7237 
  466000    91.382432   -8407.6915   -7842.4747   -497.08476     102002.7      46.7237      46.7237      46.7237 
  467000    88.218892    -8396.678   -7851.0282    -509.7995     102002.7      46.7237      46.7237      46.7237 
  468000    90.866629   -8409.5461   -7847.5195   -629.97675     102002.7      46.7237      46.7237      46.7237 
  469000    92.888474   -8392.7251   -7818.1931   -707.01848     102002.7      46.7237      46.7237      46.7237 
  470000    92.831243   -8423.4873   -7849.3093   -786.58239     102002.7      46.7237      46.7237      46.7237 
  471000    89.223745   -8418.5342   -7866.6692    -665.7979     102002.7      46.7237      46.7237      46.7237 
  472000    91.776867   -8388.9082   -7821.2517    -912.4217     102002.7      46.7237      46.7237      46.7237 
  473000    91.803849   -8393.7546   -7825.9311   -543.04806     102002.7      46.7237      46.7237      46.7237 
  474000    90.889492   -8410.2133   -7848.0453   -982.74482     102002.7      46.7237      46.7237      46.7237 
  475000    94.008494   -8416.0627   -7834.6031   -753.63745     102002.7      46.7237      46.7237      46.7237 
  476000     89.37632    -8416.114   -7863.3053   -792.62741     102002.7      46.7237      46.7237      46.7237 
  477000    88.821571   -8395.3487   -7845.9712   -692.56261     102002.7      46.7237      46.7237      46.7237 
  478000    92.820478   -8406.0523   -7831.9408   -782.75943     102002.7      46.7237      46.7237      46.7237 
  479000    90.154916   -8383.5742   -7825.9497   -560.82478     102002.7      46.7237      46.7237      46.7237 
  480000    91.000616   -8414.0257   -7851.1704   -737.37088     102002.7      46.7237      46.7237      46.7237 
  481000    91.522108   -8404.8663   -7838.7856   -772.62327     102002.7      46.7237      46.7237      46.7237 
  482000    88.094722   -8408.1923   -7863.3105    -865.2521     102002.7      46.7237      46.7237      46.7237 
  483000    87.968131   -8401.6742   -7857.5754   -681.81111     102002.7      46.7237      46.7237      46.7237 
  484000    91.217285   -8396.2401   -7832.0447   -704.22148     102002.7      46.7237      46.7237      46.7237 
  485000    89.360057   -8402.0366   -7849.3285   -855.04989     102002.7      46.7237      46.7237      46.7237 
  486000    91.848152   -8417.1913   -7849.0939   -633.47516     102002.7      46.7237      46.7237      46.7237 
  487000    93.454107   -8395.5895    -7817.559   -738.82657     102002.7      46.7237      46.7237      46.7237 
  488000    93.948419   -8420.0544   -7838.9665   -608.71327     102002.7      46.7237      46.7237      46.7237 
  489000    93.510091   -8414.4653   -7836.0885   -743.47377     102002.7      46.7237      46.7237      46.7237 
  490000     91.76402   -8381.4944   -7813.9173   -1016.2792     102002.7      46.7237      46.7237      46.7237 
  491000    92.305941   -8405.1589   -7834.2299   -797.13186     102002.7      46.7237      46.7237      46.7237 
  492000    89.515468   -8395.4962   -7841.8268   -649.51136     102002.7      46.7237      46.7237      46.7237 
  493000    89.256903   -8396.2558   -7844.1857   -829.78855     102002.7      46.7237      46.7237      46.7237 
  494000    92.231266   -8420.1333   -7849.6662   -661.71767     102002.7      46.7237      46.7237      46.7237 
  495000    89.694439    -8399.936   -7845.1597   -819.91309     102002.7      46.7237      46.7237      46.7237 
  496000    90.449381   -8399.6701   -7840.2243   -690.84038     102002.7      46.7237      46.7237      46.7237 
  497000    94.100896   -8401.2746   -7819.2435   -652.05274     102002.7      46.7237      46.7237      46.7237 
  498000    92.268093   -8410.0619   -7839.3671    -730.5675     102002.7      46.7237      46.7237      46.7237 
  499000    86.872719   -8398.8446   -7861.5211   -869.32502     102002.7      46.7237      46.7237      46.7237 
  500000    92.027726   -8426.3772   -7857.1691   -833.88413     102002.7      46.7237      46.7237      46.7237 
  500501    91.405921   -8394.1872   -7828.8251    -788.3368     102002.7      46.7237      46.7237      46.7237 
Loop time of 1332.25 on 16 procs for 500000 steps with 2076 atoms

Performance: 32.426 ns/day, 0.740 hours/ns, 375.305 timesteps/s
99.8% CPU use with 16 MPI tasks x no OpenMP threads

MPI task timing breakdown:
Section |  min time  |  avg time  |  max time  |%varavg| %total
---------------------------------------------------------------
Pair    | 644.38     | 779.13     | 935.74     | 286.0 | 58.48
Bond    | 148.11     | 174.48     | 198.71     | 159.7 | 13.10
Neigh   | 6.3795     | 6.4158     | 6.4798     |   1.5 |  0.48
Comm    | 219.69     | 358.32     | 477.48     | 353.4 | 26.90
Output  | 0.02049    | 0.020798   | 0.02329    |   0.4 |  0.00
Modify  | 7.4511     | 8.4122     | 9.261      |  20.7 |  0.63
Other   |            | 5.479      |            |       |  0.41

Nlocal:    129.75 ave 162 max 96 min
Histogram: 3 0 2 2 1 1 0 4 1 2
Nghost:    2591.81 ave 2628 max 2549 min
Histogram: 2 0 2 3 0 1 1 3 3 1
Neighs:    11457.7 ave 15029 max 7580 min
Histogram: 1 0 1 2 3 3 3 2 0 1

Total # of neighbors = 183323
Ave neighs/atom = 88.3059
Ave special neighs/atom = 5.54913
Neighbor list builds = 3864
Dangerous builds = 0
Neighbor list info ...
  update every 1 steps, delay 10 steps, check yes
  max neighbors/atom: 2000, page size: 100000
  master list distance cutoff = 16
  ghost atom cutoff = 16
  binsize = 8, bins = 6 6 6
  3 neighbor lists, perpetual/occasional/extra = 3 0 0
  (1) pair buck6d/coul/gauss/dsf, perpetual, skip from (3)
      attributes: half, newton on
      pair build: skip
      stencil: none
      bin: none
  (2) pair lj/cut, perpetual, skip from (3)
      attributes: half, newton on
      pair build: skip
      stencil: none
      bin: none
  (3) neighbor class addition, perpetual
      attributes: half, newton on
      pair build: half/bin/newton
      stencil: half/bin/3d/newton
      bin: standard
Setting up Verlet run ...
  Unit style    : real
  Current step  : 500501
  Time step     : 1
WARNING: Inconsistent image flags (../domain.cpp:786)
Per MPI rank memory allocation (min/avg/max) = 22.69 | 23.2 | 23.36 Mbytes
Step Time TotEng KinEng PotEng E_mol E_pair Temp Pxx Pyy Pzz Pxy Pxz Pyz Cella Cellb Cellc CellAlpha CellBeta CellGamma Volume Press 
  500501       500000   -7828.8251    565.36215   -8394.1872     4208.587   -12602.774    91.405921   -688.98987   -770.84142   -905.17912   -190.83041    87.165589   -57.262127      46.7237      46.7237      46.7237           90           90           90     102002.7    -788.3368 
  501000       500499    -7836.286    566.27895    -8402.565    4205.1678   -12607.733    91.554146   -681.47779   -1241.1011   -842.67668     16.83926    356.35472   -2.9067735      46.7237      46.7237      46.7237           90           90           90     102002.7   -921.75187 
  502000       501499   -7849.7286    565.35185   -8415.0805    4178.6339   -12593.714    91.404255    -600.7111   -1007.2052   -722.68903   -159.96913   -147.59028   -184.39761      46.7237      46.7237      46.7237           90           90           90     102002.7   -776.86844 
  503000       502499   -7854.3381    553.29024   -8407.6284    4193.2471   -12600.876    89.454174   -608.42167   -1014.8909   -964.14077    55.519853    49.825456    16.934793      46.7237      46.7237      46.7237           90           90           90     102002.7   -862.48445 
  504000       503499   -7841.1058    559.17082   -8400.2766    4202.7303   -12603.007    90.404927   -740.14727   -996.57891   -748.62982   -151.06453   -102.98458   -32.556242      46.7237      46.7237      46.7237           90           90           90     102002.7     -828.452 
  505000       504499   -7834.3427    565.89463   -8400.2373    4214.5412   -12614.779     91.49201   -1303.3675   -978.52621   -626.43654   -39.821399    116.34453   -13.527727      46.7237      46.7237      46.7237           90           90           90     102002.7   -969.44343 
  506000       505499   -7847.8164    559.62309   -8407.4395    4207.6477   -12615.087    90.478048   -1038.2808   -1024.6627   -1179.7571   -169.41896    122.75589    96.514602      46.7237      46.7237      46.7237           90           90           90     102002.7   -1080.9002 
  507000       506499   -7851.7218    555.01965   -8406.7414    4201.1441   -12607.885    89.733778   -1070.9377   -897.38512   -611.15086   -59.054174   -40.373647   -185.26224      46.7237      46.7237      46.7237           90           90           90     102002.7   -859.82457 
  508000       507499   -7818.8323    572.03038   -8390.8627    4213.0293   -12603.892    92.484018   -1236.0575   -748.90025   -341.78706    22.010264   -171.89805   -83.430086      46.7237      46.7237      46.7237           90           90           90     102002.7   -775.58159 
  509000       508499   -7842.3158    559.29595   -8401.6117    4208.9011   -12610.513    90.425158   -1116.4393    -723.1468   -1225.3603   -117.10343    123.63764   -15.532455      46.7237      46.7237      46.7237           90           90           90     102002.7   -1021.6488 
  510000       509499   -7859.6073    554.96216   -8414.5695    4196.0464   -12610.616    89.724483   -984.54308   -1219.7722   -581.61421    28.222274   -70.529344    26.240991      46.7237      46.7237      46.7237           90           90           90     102002.7   -928.64317 
  511000       510499   -7848.0222    554.24369   -8402.2659    4208.7031   -12610.969    89.608324   -916.21745   -757.15988   -690.95535    30.348618     206.8746    68.944824      46.7237      46.7237      46.7237           90           90           90     102002.7   -788.11089 
  512000       511499   -7833.4028    569.48457   -8402.8874     4203.381   -12606.268     92.07242   -960.39308   -860.49074   -728.06154     149.2696   -61.660109   -222.37951      46.7237      46.7237      46.7237           90           90           90     102002.7   -849.64845 
  513000       512499   -7848.3992    561.94433   -8410.3436    4183.8456   -12594.189    90.853338   -823.74295    -574.2303   -442.96612   -48.359116   -74.915931   -132.57184      46.7237      46.7237      46.7237           90           90           90     102002.7   -613.64646 
  514000       513499   -7822.4088    564.86759   -8387.2763    4203.4585   -12590.735    91.325962   -965.00768   -567.64327   -896.63261   -139.47603   -124.41961    140.76251      46.7237      46.7237      46.7237           90           90           90     102002.7   -809.76119 
  515000       514499   -7834.6298    551.63534   -8386.2651    4226.4097   -12612.675    89.186614   -657.36306   -567.78771   -819.02041   -25.694225   -72.157504   -94.707784      46.7237      46.7237      46.7237           90           90           90     102002.7   -681.39039 
  516000       515499   -7844.3627    568.06729     -8412.43    4180.7217   -12593.152     91.84328   -693.14093   -721.62897   -474.28352   -122.40039    82.318946    26.288011      46.7237      46.7237      46.7237           90           90           90     102002.7   -629.68448 
  517000       516499   -7812.1511    579.99108   -8392.1421    4200.9285   -12593.071    93.771078   -958.28515     -1096.25   -901.26115     190.3681    159.27289   -136.65533      46.7237      46.7237      46.7237           90           90           90     102002.7   -985.26544 
  518000       517499   -7844.0882    570.62295   -8414.7112    4199.5173   -12614.228    92.256469   -1034.9028   -1048.5859   -436.51435   -194.49179    67.758318   -110.92962      46.7237      46.7237      46.7237           90           90           90     102002.7   -840.00102 
  519000       518499   -7855.7721    560.77541   -8416.5475     4197.412   -12613.959    90.664351   -1136.3983   -1344.4675   -1032.8533    141.12465   -144.73127    148.03563      46.7237      46.7237      46.7237           90           90           90     102002.7   -1171.2397 
  520000       519499   -7847.5847     554.0019   -8401.5866    4199.9863   -12601.573    89.569232   -299.27171   -857.79342   -664.61351    299.15527    264.50783    39.372807      46.7237      46.7237      46.7237           90           90           90     102002.7   -607.22621 
  521000       520499   -7842.6409    566.93347   -8409.5743    4192.9541   -12602.528    91.659967   -749.81288    -1133.131   -1019.8652   -44.314475   -2.3154415    108.89667      46.7237      46.7237      46.7237           90           90           90     102002.7   -967.60303 
  522000       521499   -7842.3052    556.58144   -8398.8866    4211.1244   -12610.011    89.986284   -496.45648   -1390.6156   -1361.0229    97.109003   -206.60891   -53.530755      46.7237      46.7237      46.7237           90           90           90     102002.7   -1082.6983 
  523000       522499   -7859.1963    553.33617   -8412.5324    4194.1726   -12606.705      89.4616   -750.30766   -559.60746   -342.09595   -38.423235   -114.08199   -73.135698      46.7237      46.7237      46.7237           90           90           90     102002.7   -550.67036 
  524000       523499   -7848.6193    562.76984   -8411.3892    4190.1079   -12601.497    90.986805   -545.93699   -854.98026   -1297.7023    64.450852    130.26058    197.75647      46.7237      46.7237      46.7237           90           90           90     102002.7   -899.53984 
  525000       524499   -7828.1188    571.41317    -8399.532    4208.0464   -12607.578     92.38423   -554.35324    -773.2992   -1124.0062   -42.967303    310.41033    112.17187      46.7237      46.7237      46.7237           90           90           90     102002.7   -817.21953 
  526000       525499   -7855.5365    552.64548    -8408.182    4209.5935   -12617.776    89.349931   -1191.0037   -802.61211   -1037.1888   -22.910907    238.25442    121.17992      46.7237      46.7237      46.7237           90           90           90     102002.7   -1010.2682 
  527000       526499   -7824.7452    567.66135   -8392.4066    4214.7844   -12607.191    91.777648   -1029.9271   -1077.4263   -772.07937   -38.863311   -71.716701    38.255977      46.7237      46.7237      46.7237           90           90           90     102002.7   -959.81094 
  528000       527499   -7849.2249    550.86618    -8400.091    4192.8862   -12592.977    89.062259    -899.2171   -652.88072   -396.21596   -224.34666   -177.75617   -329.67308      46.7237      46.7237      46.7237           90           90           90     102002.7   -649.43793 
  529000       528499   -7839.0084    554.88744   -8393.8958    4210.4579   -12604.354    89.712403   -743.89026   -786.10056   -600.74051      129.499   -185.98374    102.87387      46.7237      46.7237      46.7237           90           90           90     102002.7   -710.24378 
  530000       529499   -7843.8409      563.197   -8407.0379    4204.8528   -12611.891    91.055865   -662.00452   -624.24605    -861.1176    121.65123    11.786895    52.166633      46.7237      46.7237      46.7237           90           90           90     102002.7   -715.78939 
  531000       530499   -7816.4536    574.20688   -8390.6605    4216.5724   -12607.233    92.835907   -607.60858   -969.18011   -830.38603    172.78951   -10.460794    74.292039      46.7237      46.7237      46.7237           90           90           90     102002.7   -802.39157 
  532000       531499   -7842.0821    562.05287   -8404.1349     4230.896   -12635.031    90.870886   -622.37007   -864.64149    -648.4113   -160.03067   -110.98605   -156.37377      46.7237      46.7237      46.7237           90           90           90     102002.7   -711.80762 
  533000       532499   -7843.9669    570.23744   -8414.2043    4196.0509   -12610.255    92.194142   -430.13758    -501.8807   -576.28247   -43.016877    41.431864    4.3909089      46.7237      46.7237      46.7237           90           90           90     102002.7   -502.76692 
  534000       533499   -7859.1657    563.91515   -8423.0808    4184.5519   -12607.633    91.171974   -1021.2449   -907.63671   -788.86351   -25.217247    70.898952   -45.722763      46.7237      46.7237      46.7237           90           90           90     102002.7   -905.91504 
  535000       534499   -7847.0858    558.41802   -8405.5038    4201.0447   -12606.549    90.283216   -375.66332   -751.08229    -342.6934   -31.394906   -132.46271    74.762318      46.7237      46.7237      46.7237           90           90           90     102002.7   -489.81301 
  536000       535499   -7862.6049    553.99272   -8416.5976     4189.168   -12605.766    89.567749   -594.20759   -366.01334   -900.31402   -123.18529   -60.466071    235.88379      46.7237      46.7237      46.7237           90           90           90     102002.7   -620.17832 
  537000       536499   -7854.7985     557.9459   -8412.7444    4194.1779   -12606.922    90.206886   -986.51828   -285.83049   -643.52227   -112.41408   -107.78849    156.17613      46.7237      46.7237      46.7237           90           90           90     102002.7   -638.62368 
  538000       537499   -7838.9237    578.09801   -8417.0218    4200.2349   -12617.257    93.465014   -310.17602   -403.28931   -683.79638   -6.2210164   -138.42375   -102.10058      46.7237      46.7237      46.7237           90           90           90     102002.7    -465.7539 
  539000       538499   -7883.3065    541.18928   -8424.4957    4189.5506   -12614.046    87.497729   -690.87349   -672.24278   -816.71048    83.413527    194.91885    67.838706      46.7237      46.7237      46.7237           90           90           90     102002.7   -726.60892 
  540000       539499   -7838.8914    560.06571   -8398.9571    4213.3614   -12612.319    90.549609   -717.25322   -1000.4554   -768.93936    131.54138    218.53837    122.30569      46.7237      46.7237      46.7237           90           90           90     102002.7   -828.88264 
  541000       540499   -7838.8254    558.76427   -8397.5897    4205.9206    -12603.51    90.339197   -611.74309   -761.97587    -718.0517    14.530973    -208.0235   -118.08386      46.7237      46.7237      46.7237           90           90           90     102002.7   -697.25689 
  542000       541499   -7846.7652    566.77189   -8413.5371    4199.7927    -12613.33    91.633844   -562.11284   -568.39813    -534.7514    -273.8481   -8.8837642   -72.483814      46.7237      46.7237      46.7237           90           90           90     102002.7   -555.08746 
  543000       542499   -7852.4528    570.11236   -8422.5652    4187.1889   -12609.754    92.173919   -532.33315   -1076.8655   -612.88311    -99.48918   -18.681068    163.60837      46.7237      46.7237      46.7237           90           90           90     102002.7   -740.69391 
  544000       543499   -7845.7155    561.06589   -8406.7814    4192.6762   -12599.458    90.711315   -829.93832   -605.15647   -651.92047     119.4348    147.18999     71.33987      46.7237      46.7237      46.7237           90           90           90     102002.7   -695.67175 
  545000       544499   -7846.9779    556.43295   -8403.4109    4221.7798   -12625.191    89.962276   -881.28932   -701.39694     -874.116   -113.37409   -129.98354   -62.398715      46.7237      46.7237      46.7237           90           90           90     102002.7   -818.93409 
  546000       545499   -7839.2399    563.08377   -8402.3236    4189.0553   -12591.379    91.037559   -669.89171   -841.31148   -291.94057   -307.18231   -13.873614    118.27241      46.7237      46.7237      46.7237           90           90           90     102002.7   -601.04792 
  547000       546499   -7850.2495    570.87313   -8421.1227    4204.9554   -12626.078    92.296918   -762.78779   -876.42756   -620.82066    4.8219404   -216.91206   -80.086405      46.7237      46.7237      46.7237           90           90           90     102002.7   -753.34534 
  548000       547499   -7857.7316    575.24667   -8432.9783    4173.5226   -12606.501    93.004018   -916.09767   -530.16753   -673.79348    51.683598   -72.950876    66.121655      46.7237      46.7237      46.7237           90           90           90     102002.7   -706.68623 
  549000       548499    -7846.263    551.49193   -8397.7549    4201.6025   -12599.357    89.163428   -778.34036   -651.88406   -740.97978    202.74779   -209.39497    143.67772      46.7237      46.7237      46.7237           90           90           90     102002.7   -723.73474 
  550000       549499   -7842.1584    564.87134   -8407.0298    4197.3925   -12604.422    91.326568    -426.9364   -472.86135    -283.0101   -198.00324   -115.11542   -16.606303      46.7237      46.7237      46.7237           90           90           90     102002.7   -394.26928 
  551000       550499    -7859.137    555.91295     -8415.05      4196.97    -12612.02    89.878205   -769.02071   -132.33851   -733.87062    193.28463   -51.793954    33.903332      46.7237      46.7237      46.7237           90           90           90     102002.7   -545.07661 
  552000       551499   -7831.3423    582.92986   -8414.2722    4187.3917   -12601.664    94.246212   -755.40887   -710.27135   -1000.2701    18.244979    30.165979   -95.671085      46.7237      46.7237      46.7237           90           90           90     102002.7   -821.98345 
  553000       552499   -7837.6813    562.27909   -8399.9604    4210.0042   -12609.965    90.907462   -859.36599   -782.02015   -714.22333    -26.93724    171.13054   -24.796996      46.7237      46.7237      46.7237           90           90           90     102002.7   -785.20316 
  554000       553499   -7861.0406    551.92434   -8412.9649    4192.7033   -12605.668    89.233339   -624.55695   -848.17705   -826.67445    100.38201    178.89051   -79.281121      46.7237      46.7237      46.7237           90           90           90     102002.7   -766.46948 
  555000       554499    -7827.219    573.28085   -8400.4998    4210.1866   -12610.686    92.686191   -845.07058    -776.0409   -1052.7798   -113.01143    41.992736    203.22621      46.7237      46.7237      46.7237           90           90           90     102002.7   -891.29708 
[...]
  936000       935499   -7834.4637    562.50309   -8396.9668    4217.9359   -12614.903    90.943677   -695.42402   -791.28411   -746.59388    54.381898    29.096271   -140.12022      46.7237      46.7237      46.7237           90           90           90     102002.7     -744.434 
  937000       936499   -7867.1943    543.93437   -8411.1286    4190.9261   -12602.055    87.941546   -1181.3847   -935.64223   -885.51215    -71.11939    79.712899    22.753321      46.7237      46.7237      46.7237           90           90           90     102002.7   -1000.8464 
  938000       937499   -7863.4314    554.09623   -8417.5276    4186.2541   -12603.782    89.584483     -911.931   -1243.4425   -699.33588   -60.515865   -115.20382   -44.393734      46.7237      46.7237      46.7237           90           90           90     102002.7   -951.56979 
  939000       938499   -7825.5981    582.57695   -8408.1751    4202.4405   -12610.616    94.189154   -557.18509    -1250.474   -731.50809    72.155762    80.692663    -203.7794      46.7237      46.7237      46.7237           90           90           90     102002.7   -846.38905 
  940000       939499   -7850.0819    561.19814     -8411.28    4196.2694   -12607.549    90.732697   -978.19626   -1008.2957   -484.76862   -70.666355    222.36175    96.076333      46.7237      46.7237      46.7237           90           90           90     102002.7   -823.75354 
  941000       940499   -7855.3532    555.24866   -8410.6019    4194.0447   -12604.647    89.770804   -681.43535   -862.98396   -676.14676    172.96156   -21.560922   -50.500972      46.7237      46.7237      46.7237           90           90           90     102002.7   -740.18869 
  942000       941499   -7822.9596    580.02382   -8402.9834    4207.1578   -12610.141    93.776372   -480.39772   -606.63018   -543.13397    156.45574   -305.62845   -226.30748      46.7237      46.7237      46.7237           90           90           90     102002.7   -543.38729 
  943000       942499   -7848.2155    571.16254    -8419.378    4205.0364   -12624.414    92.343709   -623.47898   -602.08549   -855.47523     186.8606    193.18569    11.591473      46.7237      46.7237      46.7237           90           90           90     102002.7    -693.6799 
  944000       943499   -7840.9307    554.80617   -8395.7369     4187.868   -12583.605    89.699263   -479.92315   -442.85723   -861.31276   -125.06872   -38.482297   -65.208951      46.7237      46.7237      46.7237           90           90           90     102002.7   -594.69772 
  945000       944499    -7847.341    568.22852   -8415.5695    4203.8938   -12619.463    91.869345   -365.72469   -871.90339    -677.0571   -88.005841    -43.29627    61.822484      46.7237      46.7237      46.7237           90           90           90     102002.7   -638.22839 
  946000       945499   -7869.4272    547.09017   -8416.5174    4197.9402   -12614.458    88.451765    -691.9517   -601.62199    -524.4139   -161.69015   -128.13194   -71.804522      46.7237      46.7237      46.7237           90           90           90     102002.7   -605.99587 
  947000       946499    -7837.041     564.4357   -8401.4767    4222.1494   -12623.626    91.256136   -575.33076   -659.34365    -663.1337    30.917848   -152.84871    8.8842569      46.7237      46.7237      46.7237           90           90           90     102002.7    -632.6027 
  948000       947499   -7831.7154    575.48362    -8407.199    4206.5847   -12613.784    93.042327   -554.66456    -800.6995   -620.45464    33.486268    27.565835    97.791538      46.7237      46.7237      46.7237           90           90           90     102002.7   -658.60623 
  949000       948499   -7832.2049    578.91132   -8411.1162    4198.5951   -12609.711    93.596507   -499.70881   -962.38974   -826.78921    114.38173    108.91074    114.14617      46.7237      46.7237      46.7237           90           90           90     102002.7   -762.96259 
  950000       949499   -7860.4702     552.7349   -8413.2051    4207.4083   -12620.613    89.364388   -814.75374   -790.33497   -848.98862    140.62672   -233.14081    48.429222      46.7237      46.7237      46.7237           90           90           90     102002.7   -818.02578 
  951000       950499   -7851.5299     561.6852   -8413.2151    4196.9763   -12610.191    90.811443   -703.67858   -805.04831   -745.44036   -37.981302   -139.29832   -60.770105      46.7237      46.7237      46.7237           90           90           90     102002.7   -751.38908 
  952000       951499   -7849.0406    556.79945   -8405.8401    4197.4979   -12603.338    90.021532   -896.87622   -928.39724   -522.24994     79.58276    179.11462   -3.1956299      46.7237      46.7237      46.7237           90           90           90     102002.7    -782.5078 
  953000       952499   -7856.2166    552.88488   -8409.1015    4196.5425   -12605.644    89.388635   -814.51905   -1150.2861   -879.90971    7.7212168     21.27098    -155.7631      46.7237      46.7237      46.7237           90           90           90     102002.7   -948.23828 
  954000       953499   -7852.1378    557.66034   -8409.7981    4200.7682   -12610.566    90.160718    -519.6423   -1150.7585   -943.55979   -14.853066    17.840443    239.99496      46.7237      46.7237      46.7237           90           90           90     102002.7    -871.3202 
  955000       954499   -7841.6522    562.08422   -8403.7364    4215.3927   -12619.129    90.875956    -773.0118   -1148.1791   -690.94208   -26.680338   -57.739098    204.10898      46.7237      46.7237      46.7237           90           90           90     102002.7   -870.71099 
  956000       955499   -7833.7025    578.32034   -8412.0229    4196.6283   -12608.651    93.500959   -806.30904   -759.39752   -490.08347   -88.645054   -64.712831   -95.716358      46.7237      46.7237      46.7237           90           90           90     102002.7   -685.26334 
  957000       956499   -7828.4689    574.84663   -8403.3155    4195.5527   -12598.868     92.93934   -492.36933   -770.38546   -837.83209    -156.8148    47.432521   -71.638259      46.7237      46.7237      46.7237           90           90           90     102002.7   -700.19563 
  958000       957499   -7846.8931    557.20514   -8404.0983    4194.0505   -12598.149    90.087121   -852.43488   -561.78591   -230.16966    192.82706    199.45929   -191.51785      46.7237      46.7237      46.7237           90           90           90     102002.7   -548.13015 
  959000       958499   -7829.2672    569.92533   -8399.1926    4199.2373    -12598.43    92.143681   -769.88801   -681.31566   -864.74546    245.30219   -173.09669   -301.41552      46.7237      46.7237      46.7237           90           90           90     102002.7   -771.98304 
  960000       959499   -7854.2772    557.83372   -8412.1109    4191.3119   -12603.423    90.188749   -931.29289   -825.34835   -817.38158   -278.54193   -55.811316    158.93653      46.7237      46.7237      46.7237           90           90           90     102002.7    -858.0076 
  961000       960499   -7845.4124    563.10625   -8408.5187    4188.0432   -12596.562    91.041193   -643.98616   -814.07517   -701.98813    -128.7411   -74.719996    139.81808      46.7237      46.7237      46.7237           90           90           90     102002.7   -720.01648 
  962000       961499   -7845.5707    563.71122    -8409.282    4199.3778    -12608.66    91.139003   -887.57942   -890.46223   -847.97685    94.248072     121.9514   -12.778475      46.7237      46.7237      46.7237           90           90           90     102002.7    -875.3395 
  963000       962499   -7837.9929    552.43451   -8390.4274    4212.3733   -12602.801    89.315822   -850.02982   -446.86086   -951.17521   -89.187272    24.382906   -322.26833      46.7237      46.7237      46.7237           90           90           90     102002.7    -749.3553 
  964000       963499   -7845.8006    568.52916   -8414.3298    4194.9251   -12609.255    91.917953   -701.54731     -859.328   -890.84829   -11.706341   -142.12101     31.32808      46.7237      46.7237      46.7237           90           90           90     102002.7    -817.2412 
  965000       964499   -7879.5417    552.50646   -8432.0482    4179.9288   -12611.977    89.327455   -933.37438   -963.52065   -594.44148   -278.96967    188.20741     108.1918      46.7237      46.7237      46.7237           90           90           90     102002.7    -830.4455 
  966000       965499   -7851.2491    565.30613   -8416.5552    4192.2351    -12608.79    91.396863   -954.19386   -727.79128   -794.74798    67.520053    30.568154    51.058647      46.7237      46.7237      46.7237           90           90           90     102002.7   -825.57771 
  967000       966499   -7866.2272    555.99645   -8422.2237    4175.0552   -12597.279    89.891704   -644.63616   -867.82892   -486.56126   -164.94459   -82.043528   -29.276433      46.7237      46.7237      46.7237           90           90           90     102002.7   -666.34211 
  968000       967499    -7825.374     571.0876   -8396.4616    4211.4124   -12607.874    92.331593   -694.28744   -925.06204   -925.79601   -98.896943   -127.31851    -44.48895      46.7237      46.7237      46.7237           90           90           90     102002.7   -848.38183 
  969000       968499    -7856.945    559.55505      -8416.5    4204.7141   -12621.214    90.467047   -1097.5125   -1473.4629   -1070.4245    47.858414   -263.12254   -59.056381      46.7237      46.7237      46.7237           90           90           90     102002.7   -1213.7999 
  970000       969499    -7847.915    565.68289   -8413.5979    4187.5504   -12601.148    91.457777   -820.07425   -872.13315   -1081.3324   -53.700731    115.20508    73.686628      46.7237      46.7237      46.7237           90           90           90     102002.7   -924.51327 
  971000       970499   -7847.6286    552.61719   -8400.2458    4216.6293   -12616.875    89.345356   -713.18522   -1057.2527   -959.05936    46.428158    134.94873    55.822867      46.7237      46.7237      46.7237           90           90           90     102002.7   -909.83243 
  972000       971499   -7857.3509     565.5251    -8422.876    4186.6744    -12609.55    91.432266   -549.24343   -973.71029   -992.34514   -139.32329    112.89413  -0.63176808      46.7237      46.7237      46.7237           90           90           90     102002.7   -838.43295 
  973000       972499   -7853.2137    550.75165   -8403.9654    4209.6986   -12613.664    89.043743   -397.49644   -1160.4382   -776.88213    30.555844   -26.583651    60.643181      46.7237      46.7237      46.7237           90           90           90     102002.7   -778.27226 
  974000       973499     -7828.91    562.03141   -8390.9414     4223.732   -12614.673    90.867417   -992.15412   -895.95313   -891.45688    218.60967   -121.38544   -127.57463      46.7237      46.7237      46.7237           90           90           90     102002.7   -926.52138 
  975000       974499   -7846.5074    571.19786   -8417.7053    4196.7969   -12614.502     92.34942   -828.01671   -770.99119   -915.55443   -229.66154    36.857832   -166.19142      46.7237      46.7237      46.7237           90           90           90     102002.7   -838.18744 
  976000       975499   -7868.6685    566.93945    -8435.608    4176.5152   -12612.123    91.660933   -705.12153   -899.93851   -850.56802    84.790419    211.80364   -17.919032      46.7237      46.7237      46.7237           90           90           90     102002.7   -818.54268 
  977000       976499   -7869.8362    545.25126   -8415.0874    4190.6625    -12605.75    88.154457    -874.0442   -775.30537   -957.17861    105.73822  -0.54709142    175.80394      46.7237      46.7237      46.7237           90           90           90     102002.7   -868.84273 
  978000       977499   -7844.7745    561.67429   -8406.4488    4205.4692   -12611.918    90.809679   -510.87559    -806.6864   -809.54607   -57.538588    -109.7062    67.920666      46.7237      46.7237      46.7237           90           90           90     102002.7   -709.03602 
  979000       978499   -7804.3046    581.69465   -8385.9993    4219.8046   -12605.804    94.046506   -1049.5279   -1008.6167   -880.11251    226.83563     -272.594    293.67407      46.7237      46.7237      46.7237           90           90           90     102002.7   -979.41906 
  980000       979499   -7871.3833    543.09483   -8414.4781    4197.5244   -12612.003    87.805812   -1161.8117   -1349.9656   -1345.6508   -33.965779    63.146452   -84.134843      46.7237      46.7237      46.7237           90           90           90     102002.7   -1285.8093 
  981000       980499   -7850.7576    567.04916   -8417.8067    4199.5826   -12617.389     91.67867   -823.08756   -1021.3437   -1216.1539    63.413349   -250.24473     59.84677      46.7237      46.7237      46.7237           90           90           90     102002.7   -1020.1951 
  982000       981499   -7843.1893    550.30142   -8393.4908     4205.602   -12599.093     88.97095   -740.66813   -993.35376   -995.28324   -82.319962   -44.236508    90.168999      46.7237      46.7237      46.7237           90           90           90     102002.7   -909.76838 
  983000       982499    -7858.851    547.53963   -8406.3906    4192.2052   -12598.596    88.524434   -1112.4135    -1051.416   -1215.8687   -108.45928    -13.35764   -37.940147      46.7237      46.7237      46.7237           90           90           90     102002.7   -1126.5661 
  984000       983499   -7847.9134    555.89845   -8403.8119    4207.5944   -12611.406     89.87586   -964.57574   -801.11035   -669.13781    53.588826   -116.24026   -19.109767      46.7237      46.7237      46.7237           90           90           90     102002.7   -811.60797 
  985000       984499   -7869.8864    543.48497   -8413.3714     4205.096   -12618.467    87.868889   -977.44825   -1230.5319   -538.78554    -82.20243    182.24357   -232.98419      46.7237      46.7237      46.7237           90           90           90     102002.7   -915.58857 
  986000       985499   -7822.5876    582.71263   -8405.3002    4203.8766   -12609.177     94.21109   -508.42598   -861.70307   -709.08087    116.24019   -27.478904    -179.7339      46.7237      46.7237      46.7237           90           90           90     102002.7   -693.06998 
  987000       986499   -7847.2349    566.24318   -8413.4781    4199.9442   -12613.422    91.548363   -1053.7492   -811.41536   -1056.9008    231.77241   -100.37248     6.845713      46.7237      46.7237      46.7237           90           90           90     102002.7   -974.02177 
  988000       987499   -7836.4551    571.54719   -8408.0023    4202.9129   -12610.915    92.405898   -974.61374   -885.01732   -905.95622   -36.967906   -17.102286    55.379307      46.7237      46.7237      46.7237           90           90           90     102002.7   -921.86243 
  989000       988499   -7854.0027    553.80245   -8407.8052    4188.7339   -12596.539    89.536985   -590.08241   -1075.2846   -675.22845   -348.52211    271.45052    8.8755266      46.7237      46.7237      46.7237           90           90           90     102002.7   -780.19847 
  990000       989499   -7847.0643    556.39031   -8403.4546    4196.1223   -12599.577    89.955382   -336.49249   -796.19109    -719.2182    116.25323   -71.075345    62.666474      46.7237      46.7237      46.7237           90           90           90     102002.7   -617.30059 
  991000       990499   -7867.2962    554.25768   -8421.5538    4189.6623   -12611.216    89.610587   -762.85447   -364.37684   -1091.0772    29.014672   -135.27219    23.651563      46.7237      46.7237      46.7237           90           90           90     102002.7   -739.43616 
  992000       991499   -7838.5313     567.0539   -8405.5852    4207.6292   -12613.214    91.679437   -450.08951   -449.83327   -764.17819   -18.778849    355.91226   -174.61957      46.7237      46.7237      46.7237           90           90           90     102002.7   -554.70032 
  993000       992499   -7814.6721     573.9941   -8388.6662    4196.3764   -12585.043    92.801506   -1041.3397   -1102.3336   -352.62086    67.207103   -24.628852   -57.037639      46.7237      46.7237      46.7237           90           90           90     102002.7   -832.09805 
  994000       993499   -7855.5263    552.39566    -8407.922     4196.604   -12604.526    89.309541   -883.77635   -720.98914   -910.49599   -119.67828    140.11831    102.82121      46.7237      46.7237      46.7237           90           90           90     102002.7   -838.42049 
  995000       994499   -7828.3292    574.43624   -8402.7655    4215.8024   -12618.568     92.87299   -672.10272   -757.65094   -744.92712    47.685658    119.99126    39.519864      46.7237      46.7237      46.7237           90           90           90     102002.7   -724.89359 
  996000       995499   -7827.8322    576.27299   -8404.1051    4221.7394   -12625.845     93.16995   -458.36521   -883.66248   -950.77956    40.155054    58.509458   -85.335228      46.7237      46.7237      46.7237           90           90           90     102002.7   -764.26908 
  997000       996499   -7839.2427    555.13434    -8394.377    4220.0381   -12614.415    89.752321    -854.2257   -623.25146   -677.08735    14.253074    128.18539    41.735622      46.7237      46.7237      46.7237           90           90           90     102002.7   -718.18817 
  998000       997499   -7847.3313    562.83341   -8410.1647    4185.0022   -12595.167    90.997081   -619.95368    -515.4654   -702.53027    7.3080876    62.073519   -113.23909      46.7237      46.7237      46.7237           90           90           90     102002.7   -612.64978 
  999000       998499    -7852.153    557.27959   -8409.4326     4195.574   -12605.007    90.099158   -791.67241   -874.31212    -360.9164    -267.6314   -254.35274    60.495248      46.7237      46.7237      46.7237           90           90           90     102002.7   -675.63364 
 1000000       999499   -7846.8292    561.64587   -8408.4751    4165.5931   -12574.068    90.805084   -569.56703   -727.86138   -716.38634   -74.648491    126.35115    141.96485      46.7237      46.7237      46.7237           90           90           90     102002.7   -671.27158 
 1000501      1000000   -7847.3961    559.44402   -8406.8402    4189.6391   -12596.479    90.449096   -681.45814   -667.49176   -697.73646   -8.9057234    120.64292   -33.121787      46.7237      46.7237      46.7237           90           90           90     102002.7   -682.22878 
Loop time of 1469.13 on 16 procs for 500000 steps with 2076 atoms

Performance: 29.405 ns/day, 0.816 hours/ns, 340.337 timesteps/s
99.9% CPU use with 16 MPI tasks x no OpenMP threads

MPI task timing breakdown:
Section |  min time  |  avg time  |  max time  |%varavg| %total
---------------------------------------------------------------
Pair    | 792.84     | 912.5      | 999.02     | 202.5 | 62.11
Bond    | 134.52     | 183.68     | 230.71     | 315.9 | 12.50
Neigh   | 6.5039     | 6.5465     | 6.6128     |   1.5 |  0.45
Comm    | 207.47     | 338.54     | 498.38     | 434.7 | 23.04
Output  | 0.10597    | 0.11094    | 0.1114     |   0.4 |  0.01
Modify  | 21.607     | 22.3       | 23.543     |  13.6 |  1.52
Other   |            | 5.462      |            |       |  0.37

Nlocal:    129.75 ave 170 max 90 min
Histogram: 2 1 0 4 3 1 0 2 1 2
Nghost:    2593.56 ave 2633 max 2545 min
Histogram: 2 0 2 1 2 0 3 3 0 3
Neighs:    11459.1 ave 14671 max 9016 min
Histogram: 5 0 0 0 4 3 1 0 2 1

Total # of neighbors = 183345
Ave neighs/atom = 88.3165
Ave special neighs/atom = 5.54913
Neighbor list builds = 3921
Dangerous builds = 0
Total wall time: 0:46:45
