LAMMPS (30 Mar 2018)
Reading data file ...
  orthogonal box = (0 0 0) to (46.7237 46.7237 46.7237)
  2 by 3 by 4 MPI processor grid
  reading atoms ...
  1800 atoms
  scanning bonds ...
  5 = max bonds/atom
  scanning angles ...
  10 = max angles/atom
  scanning dihedrals ...
  32 = max dihedrals/atom
  scanning impropers ...
  3 = max impropers/atom
  reading bonds ...
  2064 bonds
  reading angles ...
  3696 angles
  reading dihedrals ...
  6240 dihedrals
  reading impropers ...
  1008 impropers
Finding 1-2 1-3 1-4 neighbors ...
  special bond factors lj:   0          0          0         
  special bond factors coul: 0          0          0         
  5 = max # of 1-2 neighbors
  8 = max # of 1-3 neighbors
  20 = max # of 1-4 neighbors
  19 = max # of special neighbors
Finding 1-2 1-3 1-4 neighbors ...
  special bond factors lj:   0          0          1         
  special bond factors coul: 1          1          1         
  5 = max # of 1-2 neighbors
  8 = max # of 1-3 neighbors
  19 = max # of special neighbors
WARNING: Using 'neigh_modify every 1 delay 0 check yes' setting during minimization (../min.cpp:168)
Neighbor list info ...
  update every 1 steps, delay 0 steps, check yes
  max neighbors/atom: 2000, page size: 100000
  master list distance cutoff = 16
  ghost atom cutoff = 16
  binsize = 8, bins = 6 6 6
  3 neighbor lists, perpetual/occasional/extra = 3 0 0
  (1) pair buck6d/coul/gauss/dsf, perpetual, skip from (3)
      attributes: half, newton on
      pair build: skip
      stencil: none
      bin: none
  (2) pair lj/cut, perpetual, skip from (3)
      attributes: half, newton on
      pair build: skip
      stencil: none
      bin: none
  (3) neighbor class addition, perpetual
      attributes: half, newton on
      pair build: half/bin/newton
      stencil: half/bin/3d/newton
      bin: standard
Setting up cg style minimization ...
  Unit style    : real
  Current step  : 0
WARNING: Inconsistent image flags (../domain.cpp:786)
Per MPI rank memory allocation (min/avg/max) = 22.87 | 23.28 | 24.42 Mbytes
Step Temp E_pair E_mol TotEng Press 
       0            0   -11725.122    6482.8914   -5242.2304    6178.9856 
     504            0    -11753.29    3720.2982   -8032.9918   -503.59897 
Loop time of 1.20695 on 24 procs for 504 steps with 1800 atoms

99.9% CPU use with 24 MPI tasks x no OpenMP threads

Minimization stats:
  Stopping criterion = max force evaluations
  Energy initial, next-to-last, final = 
        -5242.23041733     -8032.98041725     -8032.99179697
  Force two-norm initial, final = 2576.53 5.15208
  Force max component initial, final = 151.972 0.813391
  Final line search alpha, max atom move = 0.00541247 0.00440245
  Iterations, force evaluations = 504 1001

MPI task timing breakdown:
Section |  min time  |  avg time  |  max time  |%varavg| %total
---------------------------------------------------------------
Pair    | 0.40009    | 0.6244     | 0.76078    |  13.5 | 51.73
Bond    | 0.13194    | 0.1567     | 0.20261    |   4.0 | 12.98
Neigh   | 0.0068193  | 0.0078612  | 0.0089842  |   0.9 |  0.65
Comm    | 0.24218    | 0.39698    | 0.64224    |  17.6 | 32.89
Output  | 0          | 0          | 0          |   0.0 |  0.00
Modify  | 0          | 0          | 0          |   0.0 |  0.00
Other   |            | 0.02101    |            |       |  1.74

Nlocal:    75 ave 88 max 59 min
Histogram: 1 1 3 1 2 4 9 0 1 2
Nghost:    2032.71 ave 2203 max 1939 min
Histogram: 16 0 0 0 0 0 0 0 0 8
Neighs:    7636.54 ave 10718 max 3743 min
Histogram: 1 2 0 4 4 3 0 3 5 2

Total # of neighbors = 183277
Ave neighs/atom = 101.821
Ave special neighs/atom = 6.4
Neighbor list builds = 12
Dangerous builds = 0
Neighbor list info ...
  update every 1 steps, delay 10 steps, check yes
  max neighbors/atom: 2000, page size: 100000
  master list distance cutoff = 16
  ghost atom cutoff = 16
  binsize = 8, bins = 6 6 6
  3 neighbor lists, perpetual/occasional/extra = 3 0 0
  (1) pair buck6d/coul/gauss/dsf, perpetual, skip from (3)
      attributes: half, newton on
      pair build: skip
      stencil: none
      bin: none
  (2) pair lj/cut, perpetual, skip from (3)
      attributes: half, newton on
      pair build: skip
      stencil: none
      bin: none
  (3) neighbor class addition, perpetual
      attributes: half, newton on
      pair build: half/bin/newton
      stencil: half/bin/3d/newton
      bin: standard
Setting up Verlet run ...
  Unit style    : real
  Current step  : 504
  Time step     : 1
WARNING: Inconsistent image flags (../domain.cpp:786)
Per MPI rank memory allocation (min/avg/max) = 22.52 | 22.72 | 23.3 Mbytes
Step Temp PotEng TotEng Press Volume Lx Ly Lz 
     504          110   -8032.9918   -7443.1193   -239.24897     102002.7      46.7237      46.7237      46.7237 
    1000     99.87822   -7528.8662   -6993.2716   -734.08196     102002.7      46.7237      46.7237      46.7237 
    2000    110.30504   -7405.3834   -6813.8751    -634.1518     102002.7      46.7237      46.7237      46.7237 
    3000    106.80285   -7412.8956   -6840.1678   -742.40859     102002.7      46.7237      46.7237      46.7237 
    4000    110.37813   -7433.7158   -6841.8156   -455.81974     102002.7      46.7237      46.7237      46.7237 
    5000    112.66856   -7425.7097   -6821.5272   -745.94362     102002.7      46.7237      46.7237      46.7237 
    6000    111.47752   -7433.1349   -6835.3392   -492.51163     102002.7      46.7237      46.7237      46.7237 
    7000    108.66059   -7415.3045   -6832.6145   -558.05858     102002.7      46.7237      46.7237      46.7237 
    8000    109.43967   -7436.5232   -6849.6555   -861.70854     102002.7      46.7237      46.7237      46.7237 
    9000    111.34892   -7426.3265   -6829.2204   -667.25305     102002.7      46.7237      46.7237      46.7237 
   10000    109.04532   -7411.8221    -6827.069   -592.87752     102002.7      46.7237      46.7237      46.7237 
   11000    109.18939   -7416.7082   -6831.1826   -912.66875     102002.7      46.7237      46.7237      46.7237 
   12000    107.88275   -7421.1827   -6842.6639   -795.66132     102002.7      46.7237      46.7237      46.7237 
   13000    110.13699   -7415.2187   -6824.6116   -582.90541     102002.7      46.7237      46.7237      46.7237 
   14000    109.31937    -7427.931   -6841.7084   -846.40963     102002.7      46.7237      46.7237      46.7237 
   15000    110.30425   -7420.2898   -6828.7858   -858.92228     102002.7      46.7237      46.7237      46.7237 
   16000    107.15352   -7433.2133    -6858.605   -740.98302     102002.7      46.7237      46.7237      46.7237 
   17000    111.40821   -7425.6923   -6828.2683   -724.95193     102002.7      46.7237      46.7237      46.7237 
   18000    106.43703   -7420.9559   -6850.1897   -723.61659     102002.7      46.7237      46.7237      46.7237 
   19000    111.15727   -7407.0544   -6810.9761   -902.79703     102002.7      46.7237      46.7237      46.7237 
   20000    110.71877   -7434.0308   -6840.3039   -518.59612     102002.7      46.7237      46.7237      46.7237 
   21000     112.4447   -7422.6867   -6819.7045   -545.37308     102002.7      46.7237      46.7237      46.7237 
   22000    106.87168   -7435.2192   -6862.1223   -448.44774     102002.7      46.7237      46.7237      46.7237 
   23000    108.84783   -7417.6821    -6833.988   -611.82598     102002.7      46.7237      46.7237      46.7237 
   24000    108.27053   -7401.0536   -6820.4554   -625.74225     102002.7      46.7237      46.7237      46.7237 
   25000    107.58982   -7430.3788   -6853.4309   -718.03633     102002.7      46.7237      46.7237      46.7237 
   26000    111.27517   -7407.1003   -6810.3897   -682.51349     102002.7      46.7237      46.7237      46.7237 
   27000    111.07912   -7435.4371   -6839.7778   -698.70162     102002.7      46.7237      46.7237      46.7237 
   28000    105.71278   -7434.7556   -6867.8732   -531.40311     102002.7      46.7237      46.7237      46.7237 
   29000    110.54003   -7421.7263    -6828.958   -690.55795     102002.7      46.7237      46.7237      46.7237 
   30000    111.57095   -7416.0103   -6817.7137   -626.19365     102002.7      46.7237      46.7237      46.7237 
   31000    110.54081   -7425.4857   -6832.7131   -425.43398     102002.7      46.7237      46.7237      46.7237 
   32000    106.92663   -7428.9572   -6855.5655    -522.8562     102002.7      46.7237      46.7237      46.7237 
   33000    106.01203   -7421.4452   -6852.9581   -553.69564     102002.7      46.7237      46.7237      46.7237 
   34000    110.26937   -7425.4217   -6834.1047   -554.36875     102002.7      46.7237      46.7237      46.7237 
   35000    109.33098   -7419.1993   -6832.9144   -621.06159     102002.7      46.7237      46.7237      46.7237 
   36000    107.26846   -7435.3583   -6860.1336   -435.35761     102002.7      46.7237      46.7237      46.7237 
   37000    111.63587   -7440.4339   -6841.7891   -391.79566     102002.7      46.7237      46.7237      46.7237 
   38000     110.9577   -7404.7763   -6809.7681   -293.72971     102002.7      46.7237      46.7237      46.7237 
   39000    108.69277   -7426.0606   -6843.1981    -627.1326     102002.7      46.7237      46.7237      46.7237 
   40000    113.27307   -7436.0633    -6828.639   -750.90902     102002.7      46.7237      46.7237      46.7237 
   41000    114.56434   -7420.8251   -6806.4764   -728.10505     102002.7      46.7237      46.7237      46.7237 
   42000    105.39905    -7415.967    -6850.767   -820.89874     102002.7      46.7237      46.7237      46.7237 
   43000    111.08116   -7415.0631   -6819.3929   -553.59334     102002.7      46.7237      46.7237      46.7237 
   44000    110.76601   -7387.1362   -6793.1559   -665.61095     102002.7      46.7237      46.7237      46.7237 
   45000    108.72895   -7421.6225    -6838.566    -855.3904     102002.7      46.7237      46.7237      46.7237 
   46000    115.13177   -7395.7664   -6778.3749   -721.04191     102002.7      46.7237      46.7237      46.7237 
   47000    108.57663   -7424.4068   -6842.1671   -791.51763     102002.7      46.7237      46.7237      46.7237 
   48000    106.61325   -7437.5676   -6865.8564   -663.81508     102002.7      46.7237      46.7237      46.7237 
   49000    108.77688   -7414.1053   -6830.7917   -409.44037     102002.7      46.7237      46.7237      46.7237 
   50000    110.98823   -7410.6644   -6815.4926   -801.62793     102002.7      46.7237      46.7237      46.7237 
   51000    111.39352   -7428.3087   -6830.9635   -506.33791     102002.7      46.7237      46.7237      46.7237 
   52000    106.19334   -7430.1695   -6860.7101   -503.28679     102002.7      46.7237      46.7237      46.7237 
   53000    112.15637   -7445.5608   -6844.1248   -432.55515     102002.7      46.7237      46.7237      46.7237 
   54000    106.82704   -7417.6501   -6844.7925   -691.54614     102002.7      46.7237      46.7237      46.7237 
   55000    111.55482   -7440.4613    -6842.251   -765.79696     102002.7      46.7237      46.7237      46.7237 
   56000    109.24699   -7441.5363   -6855.7019   -630.68868     102002.7      46.7237      46.7237      46.7237 
   57000    109.38078   -7408.6791   -6822.1271   -719.41971     102002.7      46.7237      46.7237      46.7237 
   58000    107.67685   -7412.2437    -6834.829    -569.1851     102002.7      46.7237      46.7237      46.7237 
   59000    108.76164   -7433.8228   -6850.5909   -675.57586     102002.7      46.7237      46.7237      46.7237 
   60000    111.70269   -7423.3877   -6824.3846   -567.54431     102002.7      46.7237      46.7237      46.7237 
   61000    111.13539    -7418.901     -6822.94   -701.73055     102002.7      46.7237      46.7237      46.7237 
   62000    112.55459   -7436.0208   -6832.4494    -499.9389     102002.7      46.7237      46.7237      46.7237 
   63000    111.21335   -7424.5218   -6828.1427   -824.59795     102002.7      46.7237      46.7237      46.7237 
   64000    108.79008   -7429.1364   -6845.7521   -508.33178     102002.7      46.7237      46.7237      46.7237 
   65000    107.45182   -7414.7739   -6838.5659   -872.36728     102002.7      46.7237      46.7237      46.7237 
   66000    108.43193   -7420.0488    -6838.585   -675.71179     102002.7      46.7237      46.7237      46.7237 
   67000     111.1086   -7428.4761   -6832.6588   -431.43671     102002.7      46.7237      46.7237      46.7237 
   68000    108.16681   -7404.0314   -6823.9893   -610.40412     102002.7      46.7237      46.7237      46.7237 
   69000    107.12434   -7430.1028    -6855.651   -239.94009     102002.7      46.7237      46.7237      46.7237 
   70000    110.91524   -7428.8159   -6834.0354   -691.15674     102002.7      46.7237      46.7237      46.7237 
   71000    106.51949     -7439.89   -6868.6816   -856.56552     102002.7      46.7237      46.7237      46.7237 
   72000    112.15808   -7422.4848   -6821.0397   -492.54727     102002.7      46.7237      46.7237      46.7237 
   73000    109.87528   -7431.3343   -6842.1306   -556.48252     102002.7      46.7237      46.7237      46.7237 
   74000    110.92695   -7415.6623    -6820.819    -795.4669     102002.7      46.7237      46.7237      46.7237 
   75000    110.20493   -7430.8857   -6839.9143   -531.95165     102002.7      46.7237      46.7237      46.7237 
   76000    113.71443    -7418.409   -6808.6179   -585.73391     102002.7      46.7237      46.7237      46.7237 
   77000    104.74359   -7421.4135   -6859.7284   -737.89411     102002.7      46.7237      46.7237      46.7237 
   78000     108.9006     -7417.04    -6833.063   -972.88596     102002.7      46.7237      46.7237      46.7237 
   79000    110.17839   -7403.7563   -6812.9272   -812.66017     102002.7      46.7237      46.7237      46.7237 
   80000    112.22981   -7439.9683   -6838.1385   -624.92631     102002.7      46.7237      46.7237      46.7237 
   81000    113.07599   -7428.0077   -6821.6403     -224.694     102002.7      46.7237      46.7237      46.7237 
   82000    111.21334    -7427.324    -6830.945   -646.61917     102002.7      46.7237      46.7237      46.7237 
   83000    112.44321   -7425.5477   -6822.5735   -487.87723     102002.7      46.7237      46.7237      46.7237 
   84000    111.25958   -7438.0552   -6841.4282   -728.15911     102002.7      46.7237      46.7237      46.7237 
   85000    110.77765   -7436.0744   -6842.0318   -476.82978     102002.7      46.7237      46.7237      46.7237 
   86000    111.77942   -7426.4869   -6827.0723   -539.14069     102002.7      46.7237      46.7237      46.7237 
   87000    109.40997    -7436.551   -6849.8425    -634.0047     102002.7      46.7237      46.7237      46.7237 
   88000    109.67745   -7422.6602   -6834.5173   -593.85876     102002.7      46.7237      46.7237      46.7237 
   89000    109.38051   -7424.3651   -6837.8146   -831.53425     102002.7      46.7237      46.7237      46.7237 
   90000    108.23901   -7435.1643   -6854.7351   -917.17535     102002.7      46.7237      46.7237      46.7237 
   91000    106.33147   -7422.3663   -6852.1662   -722.43613     102002.7      46.7237      46.7237      46.7237 
   92000    109.05263   -7433.6786   -6848.8864   -803.38645     102002.7      46.7237      46.7237      46.7237 
   93000    113.40738   -7422.2267   -6814.0822   -593.88342     102002.7      46.7237      46.7237      46.7237 
   94000     107.6141    -7420.783   -6843.7048   -658.94495     102002.7      46.7237      46.7237      46.7237 
   95000    111.61386   -7393.9284   -6795.4016   -780.23049     102002.7      46.7237      46.7237      46.7237 
   96000    109.63688   -7419.0745   -6831.1492   -602.74984     102002.7      46.7237      46.7237      46.7237 
   97000    108.71224   -7424.3265   -6841.3596   -481.09576     102002.7      46.7237      46.7237      46.7237 
   98000     109.3722    -7429.386   -6842.8801   -775.39797     102002.7      46.7237      46.7237      46.7237 
   99000    113.50213     -7403.13   -6794.4774   -670.75527     102002.7      46.7237      46.7237      46.7237 
  100000    111.83229   -7414.9731    -6815.275    -781.7558     102002.7      46.7237      46.7237      46.7237 
  101000    108.92165    -7434.962   -6850.8721   -637.87936     102002.7      46.7237      46.7237      46.7237 
  102000    109.74952    -7421.133   -6832.6037   -598.81254     102002.7      46.7237      46.7237      46.7237 
  103000    112.45701   -7407.5917   -6804.5436   -637.34481     102002.7      46.7237      46.7237      46.7237 
  104000    111.17075   -7427.7345   -6831.5839    -628.1708     102002.7      46.7237      46.7237      46.7237 
  105000    108.67371   -7416.6773    -6833.917   -729.68249     102002.7      46.7237      46.7237      46.7237 
  106000    112.67999   -7421.2978   -6817.0539   -989.08993     102002.7      46.7237      46.7237      46.7237 
  107000    111.36211   -7430.6172   -6833.4405   -571.17963     102002.7      46.7237      46.7237      46.7237 
  108000    106.00475   -7416.4282   -6847.9802   -942.13021     102002.7      46.7237      46.7237      46.7237 
  109000    106.96141   -7428.6929   -6855.1148   -637.26804     102002.7      46.7237      46.7237      46.7237 
  110000    110.55034   -7405.7035   -6812.8798   -731.52723     102002.7      46.7237      46.7237      46.7237 
  111000    106.77626   -7419.0059   -6846.4206   -707.14999     102002.7      46.7237      46.7237      46.7237 
  112000    111.01609   -7421.3839   -6826.0626   -875.70096     102002.7      46.7237      46.7237      46.7237 
  113000    108.24459   -7435.9171    -6855.458   -957.17396     102002.7      46.7237      46.7237      46.7237 
  114000    111.49456   -7406.0745   -6808.1874   -515.99241     102002.7      46.7237      46.7237      46.7237 
  115000    108.78386   -7420.7791   -6837.4282   -753.32106     102002.7      46.7237      46.7237      46.7237 
  116000    110.39587   -7414.3817   -6822.3863   -727.79495     102002.7      46.7237      46.7237      46.7237 
  117000    112.05587   -7436.9688   -6836.0717   -739.30601     102002.7      46.7237      46.7237      46.7237 
  118000    110.66956   -7425.5907   -6832.1277    -474.6458     102002.7      46.7237      46.7237      46.7237 
  119000    109.78125   -7410.1756   -6821.4762   -573.37506     102002.7      46.7237      46.7237      46.7237 
  120000    108.85958   -7441.3662   -6857.6092   -601.28492     102002.7      46.7237      46.7237      46.7237 
  121000    110.45927   -7418.7219   -6826.3866   -463.19663     102002.7      46.7237      46.7237      46.7237 
  122000    108.98384   -7436.9326   -6852.5092   -588.23072     102002.7      46.7237      46.7237      46.7237 
  123000    108.38013    -7421.393    -6840.207   -741.54383     102002.7      46.7237      46.7237      46.7237 
  124000    109.14383   -7399.6687   -6814.3874   -859.30171     102002.7      46.7237      46.7237      46.7237 
  125000    109.43615   -7431.4561   -6844.6073   -514.21186     102002.7      46.7237      46.7237      46.7237 
  126000     111.8629   -7410.6675   -6810.8052   -926.85963     102002.7      46.7237      46.7237      46.7237 
  127000    109.49399   -7405.2136   -6818.0546   -609.65241     102002.7      46.7237      46.7237      46.7237 
  128000    107.16818   -7434.1532   -6859.4663   -824.71136     102002.7      46.7237      46.7237      46.7237 
  129000    109.97158   -7412.0554   -6822.3353       -655.4     102002.7      46.7237      46.7237      46.7237 
  130000    107.08587   -7409.2089   -6834.9634    -558.9906     102002.7      46.7237      46.7237      46.7237 
  131000    109.37188   -7398.5363   -6812.0321   -653.56662     102002.7      46.7237      46.7237      46.7237 
  132000    109.23201   -7426.0598   -6840.3056   -659.22131     102002.7      46.7237      46.7237      46.7237 
  133000    112.94715   -7410.9968   -6805.3203    -673.2292     102002.7      46.7237      46.7237      46.7237 
  134000    109.29561    -7428.043   -6841.9477   -592.61327     102002.7      46.7237      46.7237      46.7237 
  135000    111.48799    -7409.248   -6811.3962   -906.87672     102002.7      46.7237      46.7237      46.7237 
  136000    112.90706   -7423.3232   -6817.8617   -622.91276     102002.7      46.7237      46.7237      46.7237 
  137000    110.32408   -7438.0371   -6846.4268   -751.13419     102002.7      46.7237      46.7237      46.7237 
  138000    106.57198   -7413.3624   -6841.8725   -419.33461     102002.7      46.7237      46.7237      46.7237 
  139000    110.74567   -7414.6342   -6820.7631   -684.90567     102002.7      46.7237      46.7237      46.7237 
  140000    109.59294   -7428.0154   -6840.3257   -733.73653     102002.7      46.7237      46.7237      46.7237 
  141000    107.49401   -7408.2284   -6831.7942   -705.77896     102002.7      46.7237      46.7237      46.7237 
  142000    107.05324   -7412.3185   -6838.2479   -795.56506     102002.7      46.7237      46.7237      46.7237 
  143000    109.15407   -7425.3057   -6839.9695   -868.25569     102002.7      46.7237      46.7237      46.7237 
  144000    110.03345   -7406.9317   -6816.8798   -541.31036     102002.7      46.7237      46.7237      46.7237 
  145000    108.54431   -7423.6151   -6841.5487   -739.76018     102002.7      46.7237      46.7237      46.7237 
  146000    108.89838   -7417.0224   -6833.0573   -722.40707     102002.7      46.7237      46.7237      46.7237 
  147000    109.13605   -7419.5389   -6834.2993   -661.51428     102002.7      46.7237      46.7237      46.7237 
  148000    110.11399   -7411.2262   -6820.7425   -611.13612     102002.7      46.7237      46.7237      46.7237 
  149000    109.48612   -7422.8907   -6835.7739   -818.22171     102002.7      46.7237      46.7237      46.7237 
  150000    112.55752   -7408.4074   -6804.8202   -588.14274     102002.7      46.7237      46.7237      46.7237 
  151000    109.90287   -7414.1669   -6824.8153    -831.3977     102002.7      46.7237      46.7237      46.7237 
  152000    110.67762   -7413.2593   -6819.7531   -776.25527     102002.7      46.7237      46.7237      46.7237 
  153000    112.45377   -7423.6368    -6820.606   -440.19984     102002.7      46.7237      46.7237      46.7237 
  154000    108.25142   -7425.0061   -6844.5103   -791.17122     102002.7      46.7237      46.7237      46.7237 
  155000     108.1172    -7435.478    -6855.702   -501.64595     102002.7      46.7237      46.7237      46.7237 
  156000    110.10043   -7438.4106   -6847.9995   -916.50879     102002.7      46.7237      46.7237      46.7237 
  157000    113.78686   -7414.0532   -6803.8738   -742.57255     102002.7      46.7237      46.7237      46.7237 
  158000    106.05345   -7427.0294   -6858.3202   -728.22074     102002.7      46.7237      46.7237      46.7237 
  159000    112.62113    -7424.642   -6820.7137   -603.75974     102002.7      46.7237      46.7237      46.7237 
  160000    113.40887   -7418.2667   -6810.1143   -847.40754     102002.7      46.7237      46.7237      46.7237 
  161000    109.97831   -7433.9107   -6844.1545   -626.32093     102002.7      46.7237      46.7237      46.7237 
  162000    110.54998   -7418.5616   -6825.7398   -671.64739     102002.7      46.7237      46.7237      46.7237 
  163000    111.31183   -7424.0173   -6827.1101   -644.16555     102002.7      46.7237      46.7237      46.7237 
  164000    109.17944   -7419.8857   -6834.4134   -712.32906     102002.7      46.7237      46.7237      46.7237 
  165000    111.97342   -7403.6145   -6803.1596   -711.27999     102002.7      46.7237      46.7237      46.7237 
  166000    107.48458   -7419.4187    -6843.035   -511.80894     102002.7      46.7237      46.7237      46.7237 
  167000    108.80202   -7414.5038   -6831.0555   -783.60678     102002.7      46.7237      46.7237      46.7237 
  168000    109.03151   -7414.0509   -6829.3719   -636.71345     102002.7      46.7237      46.7237      46.7237 
  169000    108.85004   -7391.7827   -6808.0768   -880.04136     102002.7      46.7237      46.7237      46.7237 
  170000    109.45403   -7438.6134   -6851.6686   -600.78509     102002.7      46.7237      46.7237      46.7237 
  171000     108.5823   -7414.3634   -6832.0933   -538.40917     102002.7      46.7237      46.7237      46.7237 
  172000    111.13268   -7393.9343   -6797.9878    -683.5524     102002.7      46.7237      46.7237      46.7237 
  173000    109.09783   -7416.2866    -6831.252   -995.81639     102002.7      46.7237      46.7237      46.7237 
  174000    110.42105    -7424.385   -6832.2546   -483.26333     102002.7      46.7237      46.7237      46.7237 
  175000    113.49615   -7425.3289   -6816.7084   -831.16253     102002.7      46.7237      46.7237      46.7237 
  176000    110.72685   -7415.4364   -6821.6662   -669.99062     102002.7      46.7237      46.7237      46.7237 
  177000    109.16183   -7421.7947   -6836.4169   -856.81605     102002.7      46.7237      46.7237      46.7237 
  178000    108.64783   -7400.7953   -6818.1738   -755.12021     102002.7      46.7237      46.7237      46.7237 
  179000    107.74948   -7406.5945   -6828.7903   -676.02732     102002.7      46.7237      46.7237      46.7237 
  180000    109.82353   -7434.6442    -6845.718   -1007.6193     102002.7      46.7237      46.7237      46.7237 
  181000    114.22278   -7414.7993   -6802.2822   -274.12837     102002.7      46.7237      46.7237      46.7237 
  182000    110.05213   -7397.7353   -6807.5832   -769.55091     102002.7      46.7237      46.7237      46.7237 
  183000    110.09129   -7440.0156   -6849.6535   -808.90646     102002.7      46.7237      46.7237      46.7237 
  184000    108.45878   -7414.1822   -6832.5744   -794.99164     102002.7      46.7237      46.7237      46.7237 
  185000     108.8222   -7401.2274   -6817.6708   -764.86605     102002.7      46.7237      46.7237      46.7237 
  186000    109.25385   -7426.2599   -6840.3886   -682.49891     102002.7      46.7237      46.7237      46.7237 
  187000    113.55252   -7421.9273   -6813.0045   -572.06299     102002.7      46.7237      46.7237      46.7237 
  188000    110.72671   -7419.7185   -6825.9491   -643.01195     102002.7      46.7237      46.7237      46.7237 
  189000     108.9548   -7425.8719   -6841.6043   -661.34739     102002.7      46.7237      46.7237      46.7237 
  190000    112.77093   -7416.7516   -6812.0201   -510.32663     102002.7      46.7237      46.7237      46.7237 
  191000    107.37356   -7420.3979   -6844.6096   -708.06349     102002.7      46.7237      46.7237      46.7237 
  192000    110.19435   -7417.9971   -6827.0823   -966.47951     102002.7      46.7237      46.7237      46.7237 
  193000    106.86399   -7425.4203   -6852.3646   -741.21777     102002.7      46.7237      46.7237      46.7237 
  194000    114.24625    -7437.593     -6824.95   -876.83737     102002.7      46.7237      46.7237      46.7237 
  195000    111.78581   -7407.9219    -6808.473   -793.71001     102002.7      46.7237      46.7237      46.7237 
  196000    106.71994   -7418.8398   -6846.5565   -572.80544     102002.7      46.7237      46.7237      46.7237 
  197000    109.18779   -7428.6424   -6843.1253   -816.68688     102002.7      46.7237      46.7237      46.7237 
  198000    113.75056   -7417.1679   -6807.1831   -639.00313     102002.7      46.7237      46.7237      46.7237 
  199000    112.64507   -7397.6945   -6793.6379   -709.62451     102002.7      46.7237      46.7237      46.7237 
  200000    108.77162   -7413.5566   -6830.2713   -297.04358     102002.7      46.7237      46.7237      46.7237 
  201000    108.01758   -7433.0398    -6853.798   -703.65691     102002.7      46.7237      46.7237      46.7237 
  202000    107.30845   -7415.7002   -6840.2611   -617.11104     102002.7      46.7237      46.7237      46.7237 
  203000    111.39108   -7431.6447   -6834.3125   -736.44592     102002.7      46.7237      46.7237      46.7237 
  204000    111.83866   -7422.7802    -6823.048   -479.54145     102002.7      46.7237      46.7237      46.7237 
  205000    112.73669   -7435.6229    -6831.075   -693.25306     102002.7      46.7237      46.7237      46.7237 
  206000    109.22127   -7437.5083   -6851.8118   -469.36291     102002.7      46.7237      46.7237      46.7237 
  207000    111.04505   -7432.9588   -6837.4823   -229.51257     102002.7      46.7237      46.7237      46.7237 
  208000    111.21652   -7422.3097   -6825.9136   -749.28153     102002.7      46.7237      46.7237      46.7237 
  209000    109.30019   -7422.1671   -6836.0474   -826.52152     102002.7      46.7237      46.7237      46.7237 
  210000    106.59289   -7403.4564   -6831.8545   -757.38507     102002.7      46.7237      46.7237      46.7237 
  211000    112.34081   -7400.6309   -6798.2058   -1073.5794     102002.7      46.7237      46.7237      46.7237 
  212000    109.47418    -7422.854   -6835.8012   -848.07226     102002.7      46.7237      46.7237      46.7237 
  213000    113.85094    -7403.181   -6792.6579   -723.26297     102002.7      46.7237      46.7237      46.7237 
  214000    109.95546   -7416.2018   -6826.5681   -515.87796     102002.7      46.7237      46.7237      46.7237 
  215000    110.75319   -7429.6958   -6835.7844    -387.5688     102002.7      46.7237      46.7237      46.7237 
  216000    114.77327    -7429.282   -6813.8129   -900.18468     102002.7      46.7237      46.7237      46.7237 
  217000    107.16013   -7411.7677   -6837.1239   -913.73329     102002.7      46.7237      46.7237      46.7237 
  218000    113.43963   -7422.6055   -6814.2881   -559.65332     102002.7      46.7237      46.7237      46.7237 
  219000    109.47558    -7411.732   -6824.6717   -936.49855     102002.7      46.7237      46.7237      46.7237 
  220000    106.69504   -7416.6523   -6844.5025   -879.87432     102002.7      46.7237      46.7237      46.7237 
  221000    109.75458   -7416.6834    -6828.127   -806.93685     102002.7      46.7237      46.7237      46.7237 
  222000    110.34513   -7436.0603    -6844.337   -892.37873     102002.7      46.7237      46.7237      46.7237 
  223000    111.61419   -7411.8634   -6813.3348   -821.74432     102002.7      46.7237      46.7237      46.7237 
  224000    106.16818    -7412.885   -6843.5605   -789.00888     102002.7      46.7237      46.7237      46.7237 
  225000    109.62918   -7426.9666   -6839.0827   -689.33699     102002.7      46.7237      46.7237      46.7237 
  226000    113.55394    -7434.965   -6826.0346    -737.8527     102002.7      46.7237      46.7237      46.7237 
  227000    109.55402   -7429.8143   -6842.3334   -869.72578     102002.7      46.7237      46.7237      46.7237 
  228000    108.57498   -7413.6673   -6831.4364   -532.13014     102002.7      46.7237      46.7237      46.7237 
  229000    113.95867   -7415.8241   -6804.7233   -677.76046     102002.7      46.7237      46.7237      46.7237 
  230000    108.17697     -7419.78   -6839.6835   -713.38201     102002.7      46.7237      46.7237      46.7237 
  231000    113.45655   -7414.7747   -6806.3665   -714.99061     102002.7      46.7237      46.7237      46.7237 
  232000    110.71976   -7421.2612   -6827.5289   -451.08616     102002.7      46.7237      46.7237      46.7237 
  233000    107.59793   -7443.2912   -6866.2998   -500.55584     102002.7      46.7237      46.7237      46.7237 
  234000    112.31734   -7437.8123   -6835.5131   -278.50418     102002.7      46.7237      46.7237      46.7237 
  235000    110.22401   -7411.1429   -6820.0691   -384.87194     102002.7      46.7237      46.7237      46.7237 
  236000    113.59663    -7426.161   -6817.0017   -348.29432     102002.7      46.7237      46.7237      46.7237 
  237000    112.12677   -7438.0996   -6836.8224   -585.19762     102002.7      46.7237      46.7237      46.7237 
  238000    111.81814   -7419.0863   -6819.4641   -712.21592     102002.7      46.7237      46.7237      46.7237 
  239000    109.17777   -7420.9742   -6835.5109   -392.18176     102002.7      46.7237      46.7237      46.7237 
  240000    109.83839   -7440.3755   -6851.3696   -641.67514     102002.7      46.7237      46.7237      46.7237 
  241000    107.44252   -7413.5507   -6837.3926   -650.27101     102002.7      46.7237      46.7237      46.7237 
  242000    106.91743   -7422.5819   -6849.2396   -625.07047     102002.7      46.7237      46.7237      46.7237 
  243000    109.26701   -7420.8123   -6834.8704   -898.69397     102002.7      46.7237      46.7237      46.7237 
  244000    112.01822   -7446.0842    -6845.389   -878.31691     102002.7      46.7237      46.7237      46.7237 
  245000    110.48384   -7414.0229   -6821.5558   -698.33188     102002.7      46.7237      46.7237      46.7237 
  246000    108.75511   -7431.6281   -6848.4313   -722.37516     102002.7      46.7237      46.7237      46.7237 
  247000    111.69388   -7437.3378   -6838.3818   -607.72999     102002.7      46.7237      46.7237      46.7237 
  248000    108.73226    -7434.542   -6851.4677   -703.32675     102002.7      46.7237      46.7237      46.7237 
  249000    110.76975   -7420.9385   -6826.9383   -485.84678     102002.7      46.7237      46.7237      46.7237 
  250000    105.14238   -7430.1922   -6866.3685   -735.56212     102002.7      46.7237      46.7237      46.7237 
  251000     110.9151   -7433.0472   -6838.2675    -962.9992     102002.7      46.7237      46.7237      46.7237 
  252000    111.45141   -7421.7649   -6824.1093    -609.8992     102002.7      46.7237      46.7237      46.7237 
  253000    106.18532   -7427.6344    -6858.218   -932.77871     102002.7      46.7237      46.7237      46.7237 
  254000    107.70789   -7411.5343   -6833.9532   -612.04252     102002.7      46.7237      46.7237      46.7237 
  255000    111.60406   -7432.4158   -6833.9416   -443.25801     102002.7      46.7237      46.7237      46.7237 
  256000    111.37009   -7424.6596     -6827.44   -625.34283     102002.7      46.7237      46.7237      46.7237 
  257000    110.74034   -7416.3817   -6822.5391    -314.0076     102002.7      46.7237      46.7237      46.7237 
  258000    110.74026   -7416.1517   -6822.3096    -679.4963     102002.7      46.7237      46.7237      46.7237 
  259000    110.95906   -7412.4091   -6817.3936   -587.03181     102002.7      46.7237      46.7237      46.7237 
  260000    107.97743   -7424.3843   -6845.3578   -639.43484     102002.7      46.7237      46.7237      46.7237 
  261000     113.1297   -7426.7234   -6820.0679   -940.82501     102002.7      46.7237      46.7237      46.7237 
  262000    115.66008   -7430.6703   -6810.4458   -629.44081     102002.7      46.7237      46.7237      46.7237 
  263000    107.97454   -7419.5222   -6840.5112    -721.5978     102002.7      46.7237      46.7237      46.7237 
  264000    111.02906   -7409.8506   -6814.4598    -711.9285     102002.7      46.7237      46.7237      46.7237 
  265000    111.12408   -7419.3656   -6823.4653   -722.93586     102002.7      46.7237      46.7237      46.7237 
  266000    109.71675   -7433.9838   -6845.6302   -389.56775     102002.7      46.7237      46.7237      46.7237 
  267000    110.80566   -7417.7706   -6823.5777   -614.29656     102002.7      46.7237      46.7237      46.7237 
  268000    111.45988   -7418.1135   -6820.4124   -482.94303     102002.7      46.7237      46.7237      46.7237 
  269000    109.92796   -7419.9736   -6830.4874   -560.62075     102002.7      46.7237      46.7237      46.7237 
  270000    111.37716   -7418.9578   -6821.7003   -861.60239     102002.7      46.7237      46.7237      46.7237 
  271000    107.81394    -7426.177   -6848.0272   -709.68822     102002.7      46.7237      46.7237      46.7237 
  272000    108.98484   -7408.1034   -6823.6747   -656.79605     102002.7      46.7237      46.7237      46.7237 
  273000    109.03446   -7435.2629   -6850.5681   -516.74715     102002.7      46.7237      46.7237      46.7237 
  274000    112.57515   -7433.7435   -6830.0617   -716.56155     102002.7      46.7237      46.7237      46.7237 
  275000    113.99354   -7397.9132   -6786.6254   -691.19092     102002.7      46.7237      46.7237      46.7237 
  276000    108.33088   -7421.6012   -6840.6793   -476.09938     102002.7      46.7237      46.7237      46.7237 
  277000    108.89704   -7420.9498   -6836.9919   -623.95538     102002.7      46.7237      46.7237      46.7237 
  278000    107.99576   -7412.7707   -6833.6459    -570.2829     102002.7      46.7237      46.7237      46.7237 
  279000    111.90023   -7408.4695   -6808.4071   -746.86387     102002.7      46.7237      46.7237      46.7237 
  280000    109.98484   -7431.9651   -6842.1739   -574.69929     102002.7      46.7237      46.7237      46.7237 
  281000    108.59442   -7435.8618   -6853.5267   -627.64204     102002.7      46.7237      46.7237      46.7237 
  282000    107.50019   -7425.0687   -6848.6013   -709.76015     102002.7      46.7237      46.7237      46.7237 
  283000    110.47908   -7412.1273   -6819.6857    -814.7794     102002.7      46.7237      46.7237      46.7237 
  284000    112.01325   -7428.8106    -6828.142   -635.60895     102002.7      46.7237      46.7237      46.7237 
  285000    115.35448   -7428.8746   -6810.2889   -668.30911     102002.7      46.7237      46.7237      46.7237 
  286000    107.90234   -7423.6422   -6845.0183   -852.66775     102002.7      46.7237      46.7237      46.7237 
  287000    109.38328   -7427.5207   -6840.9554   -462.35433     102002.7      46.7237      46.7237      46.7237 
  288000    110.33993   -7423.0524   -6831.3571    -899.1633     102002.7      46.7237      46.7237      46.7237 
  289000    106.62694   -7420.8556   -6849.0711    -1072.552     102002.7      46.7237      46.7237      46.7237 
  290000    109.70798   -7412.2504   -6823.9439   -930.00378     102002.7      46.7237      46.7237      46.7237 
  291000    109.28541   -7430.0415    -6844.001   -853.53718     102002.7      46.7237      46.7237      46.7237 
  292000    112.32975   -7405.9938   -6803.6281     -742.965     102002.7      46.7237      46.7237      46.7237 
  293000    107.78767    -7421.721    -6843.712   -854.25998     102002.7      46.7237      46.7237      46.7237 
  294000    110.51155   -7413.2694   -6820.6537   -656.15685     102002.7      46.7237      46.7237      46.7237 
  295000    111.40768   -7432.6377   -6835.2165   -584.93741     102002.7      46.7237      46.7237      46.7237 
  296000    111.32754    -7416.218   -6819.2265    -976.0326     102002.7      46.7237      46.7237      46.7237 
  297000    108.24354   -7414.9399   -6834.4864   -787.20579     102002.7      46.7237      46.7237      46.7237 
  298000    109.34441   -7416.0526   -6829.6957   -863.58089     102002.7      46.7237      46.7237      46.7237 
  299000    109.80106   -7412.7618   -6823.9561   -706.73938     102002.7      46.7237      46.7237      46.7237 
  300000    109.11531   -7428.3827   -6843.2543    -634.2749     102002.7      46.7237      46.7237      46.7237 
  301000    109.59897    -7394.914    -6807.192   -292.80088     102002.7      46.7237      46.7237      46.7237 
  302000    109.92491   -7429.3635   -6839.8937   -1007.5312     102002.7      46.7237      46.7237      46.7237 
  303000    109.98857    -7410.847   -6821.0357   -648.46357     102002.7      46.7237      46.7237      46.7237 
  304000    108.78616   -7442.8719   -6859.5086   -499.84232     102002.7      46.7237      46.7237      46.7237 
  305000    110.13406   -7428.1715   -6837.5801   -847.73689     102002.7      46.7237      46.7237      46.7237 
  306000    110.90931   -7432.6016    -6837.853   -604.83526     102002.7      46.7237      46.7237      46.7237 
  307000    112.44862   -7402.6002    -6799.597   -702.93901     102002.7      46.7237      46.7237      46.7237 
  308000    111.71151   -7423.2718   -6824.2214   -494.55103     102002.7      46.7237      46.7237      46.7237 
  309000    111.00453   -7427.3577   -6832.0984   -569.85528     102002.7      46.7237      46.7237      46.7237 
  310000    107.68551   -7418.5567   -6841.0955   -842.74619     102002.7      46.7237      46.7237      46.7237 
  311000    109.95721   -7383.7092   -6794.0662   -220.56095     102002.7      46.7237      46.7237      46.7237 
  312000    109.07468   -7416.9179   -6832.0074   -940.12427     102002.7      46.7237      46.7237      46.7237 
  313000    112.39254    -7408.278   -6805.5756   -470.13795     102002.7      46.7237      46.7237      46.7237 
  314000    109.93139   -7421.4059   -6831.9013   -541.66643     102002.7      46.7237      46.7237      46.7237 
  315000    109.75805   -7410.5296   -6821.9545   -444.77653     102002.7      46.7237      46.7237      46.7237 
  316000    106.18166   -7438.6394   -6869.2427   -882.54047     102002.7      46.7237      46.7237      46.7237 
  317000    107.93136   -7402.4924   -6823.7129    -785.8101     102002.7      46.7237      46.7237      46.7237 
  318000    108.21903   -7432.9175   -6852.5954   -818.53119     102002.7      46.7237      46.7237      46.7237 
  319000    113.08114   -7430.9068   -6824.5118   -622.22831     102002.7      46.7237      46.7237      46.7237 
  320000    108.25664   -7419.0933   -6838.5695    -863.0774     102002.7      46.7237      46.7237      46.7237 
  321000    104.34857   -7432.7204   -6873.1536   -928.69973     102002.7      46.7237      46.7237      46.7237 
  322000    111.15106    -7415.993    -6819.948   -459.10859     102002.7      46.7237      46.7237      46.7237 
  323000    111.22548   -7429.4655   -6833.0214   -764.51348     102002.7      46.7237      46.7237      46.7237 
  324000    111.14372   -7418.3064   -6822.3008   -677.43322     102002.7      46.7237      46.7237      46.7237 
  325000    108.39025   -7426.3936   -6845.1533   -827.81102     102002.7      46.7237      46.7237      46.7237 
  326000    110.36573   -7406.9714   -6815.1377   -534.81597     102002.7      46.7237      46.7237      46.7237 
  327000    113.40408   -7435.0502   -6826.9234    -700.2316     102002.7      46.7237      46.7237      46.7237 
  328000    109.40942   -7425.1679   -6838.4624   -718.82973     102002.7      46.7237      46.7237      46.7237 
  329000    108.82508   -7422.6863   -6839.1143   -569.50957     102002.7      46.7237      46.7237      46.7237 
  330000    110.45002   -7405.9628    -6813.677   -759.45362     102002.7      46.7237      46.7237      46.7237 
  331000    112.27823   -7434.0669   -6831.9775   -646.35443     102002.7      46.7237      46.7237      46.7237 
  332000     112.0446   -7426.2176    -6825.381   -918.08632     102002.7      46.7237      46.7237      46.7237 
  333000    111.55521   -7414.4938   -6816.2816   -910.78328     102002.7      46.7237      46.7237      46.7237 
  334000    109.80284   -7417.8471   -6829.0319   -730.90388     102002.7      46.7237      46.7237      46.7237 
  335000    106.68629   -7423.4675   -6851.3647   -813.67297     102002.7      46.7237      46.7237      46.7237 
  336000     113.6747   -7435.6226   -6826.0446   -555.88747     102002.7      46.7237      46.7237      46.7237 
  337000    109.86011     -7411.67   -6822.5476   -768.77619     102002.7      46.7237      46.7237      46.7237 
  338000    109.49135   -7441.6205   -6854.4756   -558.67884     102002.7      46.7237      46.7237      46.7237 
  339000    110.88185   -7429.2131   -6834.6117   -610.07243     102002.7      46.7237      46.7237      46.7237 
  340000    114.78698   -7427.0176   -6811.4751   -828.70055     102002.7      46.7237      46.7237      46.7237 
  341000    108.67392   -7414.6319   -6831.8704   -699.33971     102002.7      46.7237      46.7237      46.7237 
  342000    110.27632   -7423.1317   -6831.7775   -422.44416     102002.7      46.7237      46.7237      46.7237 
  343000    114.59287   -7406.9642   -6792.4626   -528.29925     102002.7      46.7237      46.7237      46.7237 
  344000    107.57971   -7427.0308   -6850.1371   -508.37423     102002.7      46.7237      46.7237      46.7237 
  345000    109.00448   -7401.0694   -6816.5354   -974.40838     102002.7      46.7237      46.7237      46.7237 
  346000    107.01788   -7423.3809      -6849.5   -621.38556     102002.7      46.7237      46.7237      46.7237 
  347000    108.64827   -7415.8811   -6833.2572   -738.91672     102002.7      46.7237      46.7237      46.7237 
  348000    108.79027   -7404.4263   -6821.0409   -566.29032     102002.7      46.7237      46.7237      46.7237 
  349000    108.75195   -7411.7693   -6828.5895   -636.02406     102002.7      46.7237      46.7237      46.7237 
  350000     109.6688   -7416.1853   -6828.0888   -809.93233     102002.7      46.7237      46.7237      46.7237 
  351000    109.98615   -7426.0613   -6836.2631   -468.05357     102002.7      46.7237      46.7237      46.7237 
  352000    109.72585   -7444.3177   -6855.9153   -764.85455     102002.7      46.7237      46.7237      46.7237 
  353000    112.13021   -7427.4192   -6826.1235    -773.4203     102002.7      46.7237      46.7237      46.7237 
  354000    108.36588    -7439.849   -6858.7394   -664.63039     102002.7      46.7237      46.7237      46.7237 
  355000    110.06068    -7414.757   -6824.5591   -855.16916     102002.7      46.7237      46.7237      46.7237 
  356000    111.75197    -7400.695   -6801.4276   -504.65138     102002.7      46.7237      46.7237      46.7237 
  357000    109.83212   -7438.9161   -6849.9439   -577.50989     102002.7      46.7237      46.7237      46.7237 
  358000    107.77307    -7427.206   -6849.2754   -693.23773     102002.7      46.7237      46.7237      46.7237 
  359000    113.06585   -7428.6566   -6822.3435     -468.892     102002.7      46.7237      46.7237      46.7237 
  360000    110.95935   -7418.3595   -6823.3425   -637.46509     102002.7      46.7237      46.7237      46.7237 
  361000    113.28066   -7414.0098   -6806.5448   -490.64303     102002.7      46.7237      46.7237      46.7237 
  362000    107.84336   -7418.3752   -6840.0676    -714.3598     102002.7      46.7237      46.7237      46.7237 
  363000    112.15133   -7430.7556   -6829.3466    -622.3097     102002.7      46.7237      46.7237      46.7237 
  364000    112.36345   -7412.3374   -6809.7909   -744.21069     102002.7      46.7237      46.7237      46.7237 
  365000    107.03759   -7420.3806   -6846.3939   -803.88346     102002.7      46.7237      46.7237      46.7237 
  366000    109.95544   -7404.8599   -6815.2264   -421.57077     102002.7      46.7237      46.7237      46.7237 
  367000    108.67536   -7423.2777   -6840.5085   -522.28035     102002.7      46.7237      46.7237      46.7237 
  368000    115.02149   -7423.1495   -6806.3494   -707.82311     102002.7      46.7237      46.7237      46.7237 
  369000    109.46394   -7417.2498   -6830.2519   -751.83097     102002.7      46.7237      46.7237      46.7237 
  370000     111.2723   -7447.0824   -6850.3873   -718.19262     102002.7      46.7237      46.7237      46.7237 
  371000    113.37883   -7405.4948   -6797.5034   -1068.4943     102002.7      46.7237      46.7237      46.7237 
  372000    108.33762   -7410.8715   -6829.9135   -819.65891     102002.7      46.7237      46.7237      46.7237 
  373000    110.43688   -7395.4289   -6803.2136   -876.53116     102002.7      46.7237      46.7237      46.7237 
  374000    111.09134   -7442.3628   -6846.6381   -629.16462     102002.7      46.7237      46.7237      46.7237 
  375000    109.03058   -7413.1223   -6828.4483   -676.50305     102002.7      46.7237      46.7237      46.7237 
  376000     111.2721   -7420.5625   -6823.8684   -379.53734     102002.7      46.7237      46.7237      46.7237 
  377000    109.51439   -7412.7252   -6825.4568   -584.05046     102002.7      46.7237      46.7237      46.7237 
  378000    113.52453   -7409.8878    -6801.115   -647.83204     102002.7      46.7237      46.7237      46.7237 
  379000    107.88976   -7423.4683   -6844.9118   -542.52174     102002.7      46.7237      46.7237      46.7237 
  380000    113.19023   -7416.1525   -6809.1724   -627.19209     102002.7      46.7237      46.7237      46.7237 
  381000    111.84098   -7437.3994   -6837.6547   -672.34686     102002.7      46.7237      46.7237      46.7237 
  382000    106.68518   -7414.5168     -6842.42   -536.38328     102002.7      46.7237      46.7237      46.7237 
  383000    111.77065   -7431.0661   -6831.6986   -606.22901     102002.7      46.7237      46.7237      46.7237 
  384000    112.39351    -7401.313   -6798.6054   -997.14405     102002.7      46.7237      46.7237      46.7237 
  385000    106.50821    -7412.137   -6840.9892   -788.23773     102002.7      46.7237      46.7237      46.7237 
  386000     110.9166   -7428.7045   -6833.9168   -814.58427     102002.7      46.7237      46.7237      46.7237 
  387000    111.44032   -7418.9212    -6821.325   -787.29791     102002.7      46.7237      46.7237      46.7237 
  388000     109.3303   -7429.6902    -6843.409   -608.94134     102002.7      46.7237      46.7237      46.7237 
  389000    110.70013   -7420.8968   -6827.2698    -540.9453     102002.7      46.7237      46.7237      46.7237 
  390000    110.18759   -7447.4924    -6856.614   -375.49939     102002.7      46.7237      46.7237      46.7237 
  391000    111.38699   -7449.0552    -6851.745   -534.64489     102002.7      46.7237      46.7237      46.7237 
  392000    108.83399   -7413.2385   -6829.6187   -596.45151     102002.7      46.7237      46.7237      46.7237 
  393000    111.76642   -7424.4119    -6825.067   -815.54209     102002.7      46.7237      46.7237      46.7237 
  394000    110.42484   -7404.9816   -6812.8308   -606.28218     102002.7      46.7237      46.7237      46.7237 
  395000    108.11489   -7428.4578   -6848.6942   -824.01549     102002.7      46.7237      46.7237      46.7237 
  396000    110.73717   -7406.1816    -6812.356   -971.35002     102002.7      46.7237      46.7237      46.7237 
  397000    109.00978   -7413.7771   -6829.2146   -610.87881     102002.7      46.7237      46.7237      46.7237 
  398000    110.72914    -7415.385   -6821.6025   -760.88061     102002.7      46.7237      46.7237      46.7237 
  399000     114.4269   -7403.7747   -6790.1631   -657.61498     102002.7      46.7237      46.7237      46.7237 
  400000    108.27066   -7416.1615   -6835.5625   -572.31011     102002.7      46.7237      46.7237      46.7237 
  401000     113.1015   -7418.5248   -6812.0206   -667.86206     102002.7      46.7237      46.7237      46.7237 
  402000    112.07056   -7405.7475   -6804.7717   -876.40102     102002.7      46.7237      46.7237      46.7237 
  403000    112.23811   -7424.2183   -6822.3439     -1015.88     102002.7      46.7237      46.7237      46.7237 
  404000    111.92636   -7399.5547   -6799.3522   -706.09179     102002.7      46.7237      46.7237      46.7237 
  405000    108.44536   -7419.7779   -6838.2421   -877.88104     102002.7      46.7237      46.7237      46.7237 
  406000     108.8745   -7424.6979   -6840.8609   -446.36982     102002.7      46.7237      46.7237      46.7237 
  407000     107.0595   -7417.6223   -6843.5182   -818.04272     102002.7      46.7237      46.7237      46.7237 
  408000    113.21661   -7427.9245    -6820.803   -609.02489     102002.7      46.7237      46.7237      46.7237 
  409000    110.55958   -7430.9516   -6838.0784   -1045.6468     102002.7      46.7237      46.7237      46.7237 
  410000    110.29891   -7418.6171   -6827.1417   -1057.4854     102002.7      46.7237      46.7237      46.7237 
  411000    109.43533   -7414.4011   -6827.5566   -881.29822     102002.7      46.7237      46.7237      46.7237 
  412000    109.03213   -7423.5629   -6838.8805   -789.41997     102002.7      46.7237      46.7237      46.7237 
  413000    112.11903   -7418.7502   -6817.5144    -724.2286     102002.7      46.7237      46.7237      46.7237 
  414000    107.61519   -7424.2824   -6847.1984   -632.75771     102002.7      46.7237      46.7237      46.7237 
  415000    108.34325    -7439.065   -6858.0768   -672.95395     102002.7      46.7237      46.7237      46.7237 
  416000    110.46641   -7433.8543   -6841.4807   -891.56088     102002.7      46.7237      46.7237      46.7237 
  417000    109.42759   -7430.9599    -6844.157   -733.02656     102002.7      46.7237      46.7237      46.7237 
  418000    112.80199   -7410.2125   -6805.3144   -758.72343     102002.7      46.7237      46.7237      46.7237 
  419000    109.19258   -7426.1413   -6840.5985   -336.46749     102002.7      46.7237      46.7237      46.7237 
  420000    109.36923   -7434.7835   -6848.2935   -251.90164     102002.7      46.7237      46.7237      46.7237 
  421000    110.93602   -7408.9441   -6814.0522   -551.40618     102002.7      46.7237      46.7237      46.7237 
  422000     106.1798   -7434.3426   -6864.9558   -590.49933     102002.7      46.7237      46.7237      46.7237 
  423000    110.53371   -7408.1731   -6815.4386   -835.60683     102002.7      46.7237      46.7237      46.7237 
  424000      108.242   -7408.1793    -6827.734   -536.04096     102002.7      46.7237      46.7237      46.7237 
  425000     110.7736   -7400.8052   -6806.7843   -788.09929     102002.7      46.7237      46.7237      46.7237 
  426000    109.85009   -7426.2948   -6837.2262   -579.79707     102002.7      46.7237      46.7237      46.7237 
  427000     112.4742   -7412.8008   -6809.6605   -492.03989     102002.7      46.7237      46.7237      46.7237 
  428000    108.79046   -7416.6685   -6833.2821   -728.27158     102002.7      46.7237      46.7237      46.7237 
  429000    111.20066   -7401.6882   -6805.3772   -655.21337     102002.7      46.7237      46.7237      46.7237 
  430000    108.54692   -7417.5657   -6835.4853   -543.76157     102002.7      46.7237      46.7237      46.7237 
  431000    108.84216   -7412.4029   -6828.7393   -579.60308     102002.7      46.7237      46.7237      46.7237 
  432000    113.23566   -7409.3222   -6802.0986   -581.84772     102002.7      46.7237      46.7237      46.7237 
  433000    113.82775   -7426.9716   -6816.5729   -510.18974     102002.7      46.7237      46.7237      46.7237 
  434000    111.90786   -7410.3098   -6810.2065   -672.24697     102002.7      46.7237      46.7237      46.7237 
  435000    110.72441   -7421.7716   -6828.0145   -596.29434     102002.7      46.7237      46.7237      46.7237 
  436000    107.12438   -7426.4113   -6851.9593   -518.71171     102002.7      46.7237      46.7237      46.7237 
  437000    109.58052   -7398.0805   -6810.4574   -823.25359     102002.7      46.7237      46.7237      46.7237 
  438000     107.9979   -7416.6767   -6837.5404   -706.88924     102002.7      46.7237      46.7237      46.7237 
  439000    113.07048   -7426.9867   -6820.6489   -636.98951     102002.7      46.7237      46.7237      46.7237 
  440000    111.99521   -7437.2096   -6836.6378    -850.0265     102002.7      46.7237      46.7237      46.7237 
  441000    111.98077   -7414.9174    -6814.423   -901.91563     102002.7      46.7237      46.7237      46.7237 
  442000    107.93882   -7419.3095   -6840.4901   -646.11991     102002.7      46.7237      46.7237      46.7237 
  443000    109.85781   -7423.7051   -6834.5951    -832.6949     102002.7      46.7237      46.7237      46.7237 
  444000    111.25254   -7429.7664   -6833.1771   -928.04385     102002.7      46.7237      46.7237      46.7237 
  445000    107.21289   -7418.1074   -6843.1807   -615.31227     102002.7      46.7237      46.7237      46.7237 
  446000    110.22031   -7415.4112   -6824.3573   -808.16634     102002.7      46.7237      46.7237      46.7237 
  447000    111.34849   -7416.4037      -6819.3   -707.94561     102002.7      46.7237      46.7237      46.7237 
  448000    109.42735   -7444.7152   -6857.9135   -700.34148     102002.7      46.7237      46.7237      46.7237 
  449000      108.295   -7407.3431   -6826.6136   -935.04661     102002.7      46.7237      46.7237      46.7237 
  450000    111.55806   -7429.6864   -6831.4588   -880.92433     102002.7      46.7237      46.7237      46.7237 
  451000    113.67235   -7414.7538   -6805.1884   -304.80653     102002.7      46.7237      46.7237      46.7237 
  452000    107.07376   -7419.3235   -6845.1429    -759.8731     102002.7      46.7237      46.7237      46.7237 
  453000    109.40022   -7419.1588   -6832.5025    -775.4856     102002.7      46.7237      46.7237      46.7237 
  454000    111.55569   -7415.6425   -6817.4277   -469.17105     102002.7      46.7237      46.7237      46.7237 
  455000    111.40272   -7408.1675   -6810.7729   -939.45397     102002.7      46.7237      46.7237      46.7237 
  456000    108.56377   -7412.4098    -6830.239   -778.36862     102002.7      46.7237      46.7237      46.7237 
  457000    110.24821   -7408.3518   -6817.1482    -737.3618     102002.7      46.7237      46.7237      46.7237 
  458000    107.51976   -7430.1029   -6853.5306   -567.07547     102002.7      46.7237      46.7237      46.7237 
  459000    112.55912   -7441.5909   -6837.9952   -823.02549     102002.7      46.7237      46.7237      46.7237 
  460000    108.45772   -7402.6203   -6821.0183   -861.96602     102002.7      46.7237      46.7237      46.7237 
  461000    108.27388   -7416.4023   -6835.7861   -686.01547     102002.7      46.7237      46.7237      46.7237 
  462000    112.37739   -7424.6756   -6822.0544    -945.5925     102002.7      46.7237      46.7237      46.7237 
  463000     104.3055   -7439.1148   -6879.7789   -556.28435     102002.7      46.7237      46.7237      46.7237 
  464000    110.95781    -7419.676   -6824.6673   -787.97725     102002.7      46.7237      46.7237      46.7237 
  465000    111.36777   -7410.3854   -6813.1782   -709.82241     102002.7      46.7237      46.7237      46.7237 
  466000     109.4054   -7417.7936   -6831.1097   -683.70493     102002.7      46.7237      46.7237      46.7237 
  467000    113.24655   -7421.2908   -6814.0088   -808.57925     102002.7      46.7237      46.7237      46.7237 
  468000    111.12344   -7409.3873   -6813.4904   -722.32744     102002.7      46.7237      46.7237      46.7237 
  469000    111.59065   -7424.1027   -6825.7004   -766.73653     102002.7      46.7237      46.7237      46.7237 
  470000    109.78363   -7427.5741   -6838.8618   -807.35296     102002.7      46.7237      46.7237      46.7237 
  471000    113.42074   -7413.7341   -6805.5179   -796.35855     102002.7      46.7237      46.7237      46.7237 
  472000    112.97309   -7429.2537    -6823.438   -844.39824     102002.7      46.7237      46.7237      46.7237 
  473000    108.52561   -7418.3907   -6836.4245   -274.31862     102002.7      46.7237      46.7237      46.7237 
  474000     111.8339   -7410.1405   -6810.4337   -801.50654     102002.7      46.7237      46.7237      46.7237 
  475000    110.21142   -7432.9996   -6841.9933   -508.66967     102002.7      46.7237      46.7237      46.7237 
  476000    113.13742   -7427.3735   -6820.6767   -571.39634     102002.7      46.7237      46.7237      46.7237 
  477000    107.50463   -7407.8268   -6831.3356   -893.57756     102002.7      46.7237      46.7237      46.7237 
  478000    114.10771   -7425.6004   -6813.7004   -402.02029     102002.7      46.7237      46.7237      46.7237 
  479000    111.80142   -7418.4252   -6818.8926   -661.65276     102002.7      46.7237      46.7237      46.7237 
  480000    112.85655   -7432.5307     -6827.34   -399.56153     102002.7      46.7237      46.7237      46.7237 
  481000    112.29298   -7440.4495   -6838.2809   -875.84624     102002.7      46.7237      46.7237      46.7237 
  482000    112.77629   -7420.8396   -6816.0793   -645.60623     102002.7      46.7237      46.7237      46.7237 
  483000    112.26247   -7413.2043   -6811.1994   -420.84061     102002.7      46.7237      46.7237      46.7237 
  484000    108.53753    -7412.434    -6830.404   -606.49734     102002.7      46.7237      46.7237      46.7237 
  485000    113.72169   -7420.4233   -6810.5933   -657.33347     102002.7      46.7237      46.7237      46.7237 
  486000     109.7821   -7415.3296   -6826.6256   -778.33289     102002.7      46.7237      46.7237      46.7237 
  487000    109.95486   -7411.1471   -6821.5167   -826.57751     102002.7      46.7237      46.7237      46.7237 
  488000    109.75862   -7428.4464   -6839.8683   -797.12477     102002.7      46.7237      46.7237      46.7237 
  489000    108.34355   -7423.0152   -6842.0254   -764.11947     102002.7      46.7237      46.7237      46.7237 
  490000    112.12579   -7421.2845   -6820.0125   -868.32928     102002.7      46.7237      46.7237      46.7237 
  491000    108.70503   -7415.3619   -6832.4336   -774.54297     102002.7      46.7237      46.7237      46.7237 
  492000    111.90559   -7433.7587   -6833.6675   -974.40809     102002.7      46.7237      46.7237      46.7237 
  493000    110.54058   -7419.9906   -6827.2193    -806.5102     102002.7      46.7237      46.7237      46.7237 
  494000    112.34933   -7443.1172   -6840.6465   -807.62981     102002.7      46.7237      46.7237      46.7237 
  495000    108.92534   -7403.7089   -6819.5992   -750.55526     102002.7      46.7237      46.7237      46.7237 
  496000    105.71021   -7422.0998   -6855.2313    -731.1269     102002.7      46.7237      46.7237      46.7237 
  497000    109.51219   -7423.9301   -6836.6735   -412.43578     102002.7      46.7237      46.7237      46.7237 
  498000    114.66844   -7414.6926   -6799.7857   -727.47956     102002.7      46.7237      46.7237      46.7237 
  499000    110.22819   -7407.8082    -6816.712   -744.78615     102002.7      46.7237      46.7237      46.7237 
  500000    106.75116   -7436.7253   -6864.2747    -711.8434     102002.7      46.7237      46.7237      46.7237 
  500504    110.58464   -7407.5088   -6814.5012    -700.3093     102002.7      46.7237      46.7237      46.7237 
Loop time of 583.065 on 24 procs for 500000 steps with 1800 atoms

Performance: 74.091 ns/day, 0.324 hours/ns, 857.537 timesteps/s
99.9% CPU use with 24 MPI tasks x no OpenMP threads

MPI task timing breakdown:
Section |  min time  |  avg time  |  max time  |%varavg| %total
---------------------------------------------------------------
Pair    | 191.88     | 282.77     | 374.47     | 326.7 | 48.50
Bond    | 70.073     | 78.102     | 87.418     |  49.7 | 13.40
Neigh   | 2.3084     | 2.3358     | 2.3585     |   1.1 |  0.40
Comm    | 121.11     | 212.46     | 302.75     | 389.2 | 36.44
Output  | 0.30627    | 0.3066     | 0.3109     |   0.2 |  0.05
Modify  | 3.5197     | 4.0405     | 4.3215     |  12.4 |  0.69
Other   |            | 3.051      |            |       |  0.52

Nlocal:    75 ave 102 max 52 min
Histogram: 2 2 1 4 5 3 4 1 0 2
Nghost:    2043.21 ave 2188 max 1950 min
Histogram: 6 9 1 0 0 0 0 0 0 8
Neighs:    7646.29 ave 12407 max 5036 min
Histogram: 5 2 3 5 2 4 1 1 0 1

Total # of neighbors = 183511
Ave neighs/atom = 101.951
Ave special neighs/atom = 6.4
Neighbor list builds = 3975
Dangerous builds = 0
Neighbor list info ...
  update every 1 steps, delay 10 steps, check yes
  max neighbors/atom: 2000, page size: 100000
  master list distance cutoff = 16
  ghost atom cutoff = 16
  binsize = 8, bins = 6 6 6
  3 neighbor lists, perpetual/occasional/extra = 3 0 0
  (1) pair buck6d/coul/gauss/dsf, perpetual, skip from (3)
      attributes: half, newton on
      pair build: skip
      stencil: none
      bin: none
  (2) pair lj/cut, perpetual, skip from (3)
      attributes: half, newton on
      pair build: skip
      stencil: none
      bin: none
  (3) neighbor class addition, perpetual
      attributes: half, newton on
      pair build: half/bin/newton
      stencil: half/bin/3d/newton
      bin: standard
Setting up Verlet run ...
  Unit style    : real
  Current step  : 500504
  Time step     : 1
WARNING: Inconsistent image flags (../domain.cpp:786)
Per MPI rank memory allocation (min/avg/max) = 24.13 | 24.49 | 24.58 Mbytes
Step Time TotEng KinEng PotEng E_mol E_pair Temp Pxx Pyy Pzz Pxy Pxz Pyz Cella Cellb Cellc CellAlpha CellBeta CellGamma Volume Press 
  500504       500000   -6814.5012     593.0076   -7407.5088     4305.374   -11712.883    110.58464   -631.79506   -817.78106   -651.35177    154.78253    164.14185    171.57211      46.7237      46.7237      46.7237           90           90           90     102002.7    -700.3093 
  501000       500496   -6837.1521    597.20288    -7434.355    4302.5479   -11736.903    111.36698   -1035.7698   -573.00901   -1137.2279   -20.812278    18.037945     49.77138      46.7237      46.7237      46.7237           90           90           90     102002.7   -915.33559 
  502000       501496   -6806.8527    595.17312   -7402.0258    4310.5869   -11712.613    110.98846   -594.68588   -635.25409   -695.34812   -134.33314   -55.686736    67.510901      46.7237      46.7237      46.7237           90           90           90     102002.7   -641.76269 
  503000       502496   -6820.4459     600.6796   -7421.1255    4282.4043    -11703.53    112.01532   -756.31181   -947.37075   -621.80905    22.171468    37.291921   -49.734083      46.7237      46.7237      46.7237           90           90           90     102002.7   -775.16387 
  504000       503496   -6849.3873    587.81424   -7437.2015    4299.4005   -11736.602    109.61617   -722.90219   -555.15109   -915.85572    78.402758    156.98857    120.30255      46.7237      46.7237      46.7237           90           90           90     102002.7     -731.303 
  505000       504496   -6805.1798    597.57107   -7402.7509    4323.7586    -11726.51    111.43564    -868.9367   -357.22488   -338.09345   -206.45892   -214.00075    -171.7094      46.7237      46.7237      46.7237           90           90           90     102002.7   -521.41834 
  506000       505496   -6838.1788    592.35049   -7430.5293    4272.3589   -11702.888     110.4621   -1023.7947   -851.26179   -546.53693    -232.4708   -171.78692    261.03909      46.7237      46.7237      46.7237           90           90           90     102002.7   -807.19781 
  507000       506496   -6824.6356    587.39916   -7412.0347     4282.761   -11694.796    109.53877   -606.94471   -975.52269   -382.81989    -1.078131   -252.67229    91.292679      46.7237      46.7237      46.7237           90           90           90     102002.7   -655.09577 
  508000       507496    -6858.834    580.37442   -7439.2084    4280.3598   -11719.568    108.22879   -1159.8945   -733.05379   -694.63287   -64.901643   -181.73674    43.388275      46.7237      46.7237      46.7237           90           90           90     102002.7   -862.52706 
  509000       508496    -6826.395    589.52824   -7415.9232    4295.2454   -11711.169     109.9358   -220.49511   -626.51599   -969.73253    105.55988   -211.45275    186.71489      46.7237      46.7237      46.7237           90           90           90     102002.7   -605.58121 
  510000       509496   -6847.5503    591.53416   -7439.0844     4278.646    -11717.73    110.30987    -416.6016   -744.16198   -359.33995   -162.13979    159.45116    123.53855      46.7237      46.7237      46.7237           90           90           90     102002.7   -506.70118 
  511000       510496   -6821.9988    599.74398   -7421.7428    4293.0386   -11714.781    111.84084   -350.29215   -624.73664   -786.80584    291.51119   -96.502144   -233.80934      46.7237      46.7237      46.7237           90           90           90     102002.7   -587.27821 
  512000       511496   -6810.4273    586.76363    -7397.191    4322.2792    -11719.47    109.42026   -387.55553   -404.52524   -852.78046   -145.87003    181.86653   -167.18653      46.7237      46.7237      46.7237           90           90           90     102002.7   -548.28708 
  513000       512496   -6839.4212    564.10792   -7403.5291    4309.2364   -11712.765     105.1954   -692.69463   -499.15892   -847.92929   -48.425357   -148.44298    130.91933      46.7237      46.7237      46.7237           90           90           90     102002.7   -679.92761 
  514000       513496   -6822.1884    594.61017   -7416.7986    4288.2212    -11705.02    110.88348   -746.99493   -882.81166   -858.57121    118.94871   -295.21737   -251.60766      46.7237      46.7237      46.7237           90           90           90     102002.7   -829.45927 
  515000       514496   -6818.0967    598.51982   -7416.6165    4295.0668   -11711.683    111.61256   -1182.3168   -862.18817   -552.81676    107.44632    51.132056   -47.917486      46.7237      46.7237      46.7237           90           90           90     102002.7   -865.77391 
  516000       515496   -6806.9772    604.73435   -7411.7116    4304.4043   -11716.116    112.77145   -689.32368   -276.13973   -869.30833   -47.456642   -101.54521   -74.645187      46.7237      46.7237      46.7237           90           90           90     102002.7   -611.59058 
  517000       516496   -6843.4438    576.30864   -7419.7525     4287.127   -11706.879     107.4706   -1051.9934   -601.09218   -905.38725    48.449805    50.302678    164.25994      46.7237      46.7237      46.7237           90           90           90     102002.7   -852.82429 
  518000       517496   -6819.5783    600.46182   -7420.0401    4301.5207   -11721.561    111.97471   -598.95682   -706.33651   -962.13553     64.50102   -200.99763    101.73178      46.7237      46.7237      46.7237           90           90           90     102002.7   -755.80962 
  519000       518496   -6815.5005    610.03221   -7425.5327    4288.5148   -11714.048     113.7594   -734.18798    -63.01136   -596.00864    82.633238    23.474581   -4.8619511      46.7237      46.7237      46.7237           90           90           90     102002.7   -464.40266 
  520000       519496   -6824.1299    593.91422   -7418.0441    4279.4129   -11697.457     110.7537   -721.93846    -835.4789   -881.06055   -161.79581   -159.69806   -142.36573      46.7237      46.7237      46.7237           90           90           90     102002.7   -812.82597 
  521000       520496   -6837.2826    583.03592   -7420.3185    4295.1556   -11715.474    108.72511   -701.10521   -1022.2186   -1044.8355   -366.05262    27.395006    120.31971      46.7237      46.7237      46.7237           90           90           90     102002.7   -922.71976 
  522000       521496   -6833.2776    588.41399   -7421.6916    4310.9632   -11732.655    109.72802   -941.57477   -706.93504   -578.81103    -263.4008   -244.65035   -45.204361      46.7237      46.7237      46.7237           90           90           90     102002.7   -742.44028 
  523000       522496    -6802.432    588.47184   -7390.9039    4312.8426   -11703.746     109.7388   -549.05534   -250.28041   -951.22101   -62.221277    115.96255   -63.140225      46.7237      46.7237      46.7237           90           90           90     102002.7   -583.51892 
  524000       523496    -6840.487    580.13875   -7420.6257    4316.7462   -11737.372    108.18484   -320.11774   -447.66626   -709.01987   -91.180367    51.373393    305.74555      46.7237      46.7237      46.7237           90           90           90     102002.7   -492.26796 
  525000       524496   -6837.7079    574.58477   -7412.2927     4301.998   -11714.291    107.14913   -702.84996   -1155.9413   -571.18098    169.07171     122.9105    -68.03098      46.7237      46.7237      46.7237           90           90           90     102002.7   -809.99076 
  526000       525496    -6828.518    592.88426   -7421.4023    4295.9329   -11717.335    110.56164   -671.55456   -271.92493   -649.37321   -36.921626   -1.9066711    95.134064      46.7237      46.7237      46.7237           90           90           90     102002.7    -530.9509 
  527000       526496   -6830.0356    587.07608   -7417.1117    4307.4827   -11724.594    109.47852   -361.18583   -937.69423   -609.13573   -158.37312   -258.73276   -81.768226      46.7237      46.7237      46.7237           90           90           90     102002.7   -636.00526 
  528000       527496    -6811.188    598.94889   -7410.1368    4290.9358   -11701.073    111.69257   -827.29075   -1223.1905   -802.36754       75.467    229.99604   -18.489564      46.7237      46.7237      46.7237           90           90           90     102002.7   -950.94958 
  529000       528496    -6825.043    591.42347   -7416.4664    4296.8952   -11713.362    110.28923   -752.07025   -859.19554   -722.19663   -41.131135    384.51169      52.3839      46.7237      46.7237      46.7237           90           90           90     102002.7   -777.82081 
  530000       529496   -6830.0547    602.61758   -7432.6723    4303.5039   -11736.176    112.37671   -584.12806   -744.18905   -927.00032    112.59057    363.10859   -149.24913      46.7237      46.7237      46.7237           90           90           90     102002.7   -751.77248 
  531000       530496   -6852.9547    590.47112   -7443.4258    4273.2285   -11716.654    110.11163   -473.72451   -883.35076   -781.26508   -201.92533    110.02147   -183.31795      46.7237      46.7237      46.7237           90           90           90     102002.7   -712.78012 
  532000       531496    -6828.129    595.33934   -7423.4684    4294.1347   -11717.603    111.01946   -428.44714   -744.12868   -367.29757    181.83218   -112.27423    65.304813      46.7237      46.7237      46.7237           90           90           90     102002.7   -513.29113 
  533000       532496   -6845.9552    596.14573    -7442.101    4273.4014   -11715.502    111.16984   -509.60704   -715.25868   -667.88244    110.72871    403.04586   -216.16974      46.7237      46.7237      46.7237           90           90           90     102002.7   -630.91605 
  534000       533496   -6830.0385    582.33972   -7412.3782    4293.4691   -11705.847    108.59528   -641.93912   -778.83885    -473.7896   -79.180952    195.42005   -60.002716      46.7237      46.7237      46.7237           90           90           90     102002.7   -631.52252 
  535000       534496   -6818.1769    596.44692   -7414.6238    4315.1472   -11729.771      111.226   -769.19921   -1081.9223   -789.68771    48.466411    5.3716856   -148.39469      46.7237      46.7237      46.7237           90           90           90     102002.7   -880.26974 
  536000       535496   -6841.5094     590.0655   -7431.5749    4267.7225   -11699.297    110.03599   -373.18643   -928.41695   -772.56816    16.684508   -366.39053    42.624306      46.7237      46.7237      46.7237           90           90           90     102002.7   -691.39051 
  537000       536496   -6855.7904    571.02079   -7426.8112    4274.9417   -11701.753    106.48451   -618.41724   -407.72043   -245.23055   -92.961719   -39.499974    195.71554      46.7237      46.7237      46.7237           90           90           90     102002.7   -423.78941 
  538000       537496   -6821.2513    589.58609   -7410.8374    4307.2091   -11718.046    109.94659   -853.08743   -1035.5458   -800.09114   -39.711912    32.884733    -109.7911      46.7237      46.7237      46.7237           90           90           90     102002.7   -896.24146 
  539000       538496   -6806.3745    601.02924   -7407.4037    4288.0086   -11695.412    112.08052     -779.944   -1183.7933   -652.14863     13.51795    84.038397    53.848182      46.7237      46.7237      46.7237           90           90           90     102002.7   -871.96197 
  540000       539496   -6853.8957    581.14753   -7435.0433    4270.3653   -11705.409    108.37296   -856.89274    -525.1483   -283.85503    108.82252     173.8253    3.7299598      46.7237      46.7237      46.7237           90           90           90     102002.7   -555.29869 
  541000       540496   -6834.3099    596.90607   -7431.2159    4277.0655   -11708.281    111.31163   -1360.9714   -838.00814   -454.77434    45.949411    -33.46861    85.684408      46.7237      46.7237      46.7237           90           90           90     102002.7   -884.58462 
  542000       541496   -6805.4288    616.82002   -7422.2488    4292.2947   -11714.544     115.0252   -558.36397   -1375.3462   -555.09017    71.832918    298.94316   -113.35109      46.7237      46.7237      46.7237           90           90           90     102002.7   -829.60013 
  543000       542496   -6841.2714    585.53601   -7426.8075    4308.6362   -11735.444    109.19133   -658.33577   -907.50776   -986.06301   -107.83922   -19.372646   -180.79512      46.7237      46.7237      46.7237           90           90           90     102002.7   -850.63551 
  544000       543496   -6849.5735    582.73519   -7432.3087    4279.8461   -11712.155    108.66903   -810.42239   -1033.3639   -840.96098    135.79398   -19.271101    67.083877      46.7237      46.7237      46.7237           90           90           90     102002.7   -894.91578 
  545000       544496   -6821.2019    592.43605    -7413.638     4303.913   -11717.551    110.47805   -563.52928   -957.25051   -743.81327   -113.53621   -25.093776   -175.63004      46.7237      46.7237      46.7237           90           90           90     102002.7   -754.86436 
  546000       545496   -6864.6947    569.70308   -7434.3978    4285.4374   -11719.835    106.23879   -635.03904   -655.25076   -823.83847   -363.58063   -25.688977    70.329176      46.7237      46.7237      46.7237           90           90           90     102002.7   -704.70942 
  547000       546496   -6850.4887    581.59433    -7432.083    4278.2915   -11710.375    108.45628    -536.8472   -618.25365   -265.71792    11.647768   -15.937766    315.71029      46.7237      46.7237      46.7237           90           90           90     102002.7   -473.60626 
  548000       547496   -6821.3416    602.10884   -7423.4504      4281.69    -11705.14    112.28184   -691.18548   -732.92012   -468.43767   -99.646702   -245.76423   -3.4797976      46.7237      46.7237      46.7237           90           90           90     102002.7   -630.84776 
  549000       548496   -6807.5628    603.33119    -7410.894    4307.4186   -11718.313    112.50979   -620.97178   -640.90323   -281.09396   -57.223111    214.28159    2.7171423      46.7237      46.7237      46.7237           90           90           90     102002.7   -514.32299 
  550000       549496   -6844.5244    577.88259    -7422.407    4288.1716   -11710.579    107.76411   -482.60609   -856.69586   -863.78992   -51.300596   -85.896225    158.90041      46.7237      46.7237      46.7237           90           90           90     102002.7   -734.36396 
  551000       550496   -6837.4638    574.10185   -7411.5656    4292.5591   -11704.125    107.05907   -695.93266   -764.59621    -857.7942    72.869487    102.08166    228.01727      46.7237      46.7237      46.7237           90           90           90     102002.7   -772.77436 
  552000       551496   -6813.3462    597.09259   -7410.4388    4293.9656   -11704.404    111.34641   -563.68445   -313.24368   -841.09406    66.899941   -78.508965   -3.0469603      46.7237      46.7237      46.7237           90           90           90     102002.7   -572.67406 
  553000       552496   -6850.0439    574.98037   -7425.0242     4278.426    -11703.45     107.2229   -530.20057   -1224.5437   -791.18712   -216.99981    80.296902   -95.388658      46.7237      46.7237      46.7237           90           90           90     102002.7   -848.64379 
  554000       553496   -6822.1351    616.74861   -7438.8837    4265.4347   -11704.318    115.01188   -846.60269    -549.6055   -759.87928   -95.796609    131.49666    17.114717      46.7237      46.7237      46.7237           90           90           90     102002.7   -718.69582 
  555000       554496    -6816.916    590.66895   -7407.5849    4306.9058   -11714.491    110.14852   -955.39817    -1005.159   -907.13024     56.73135   -153.95214     160.3866      46.7237      46.7237      46.7237           90           90           90     102002.7    -955.8958 
[...]
  936000       935496   -6821.1798    600.98254   -7422.1624    4298.0301   -11720.192    112.07181   -896.97503   -259.74749   -519.10116     163.8471    33.138051    246.04217      46.7237      46.7237      46.7237           90           90           90     102002.7   -558.60789 
  937000       936496    -6852.138    598.64633   -7450.7843    4277.0732   -11727.857    111.63615    -619.9287   -443.14915   -557.56624    49.648183   -81.478126   -54.000324      46.7237      46.7237      46.7237           90           90           90     102002.7    -540.2147 
  938000       937496   -6838.5639    580.96925   -7419.5332    4295.9572    -11715.49    108.33971   -706.50323   -537.09294   -829.21733   -160.91363    -180.4976   -135.30242      46.7237      46.7237      46.7237           90           90           90     102002.7   -690.93783 
  939000       938496   -6803.3323    601.88104   -7405.2133    4316.2849   -11721.498    112.23936   -604.17277   -1116.9808   -306.66154    290.17077    5.1996065   -111.21083      46.7237      46.7237      46.7237           90           90           90     102002.7   -675.93835 
  940000       939496   -6831.1081    593.46027   -7424.5683    4292.0762   -11716.645    110.66905   -349.87494   -338.71737    -652.2658   -117.53276    82.571637    304.01756      46.7237      46.7237      46.7237           90           90           90     102002.7    -446.9527 
  941000       940496   -6849.4808    600.87923     -7450.36     4285.723   -11736.083    112.05254   -578.97976   -393.93444   -1000.6838   -118.79239   -79.769272   -156.75896      46.7237      46.7237      46.7237           90           90           90     102002.7     -657.866 
  942000       941496   -6818.3479    595.14537   -7413.4933    4304.4621   -11717.955    110.98329   -641.38751   -676.69738   -546.71905   -91.006525     189.0722   -152.56623      46.7237      46.7237      46.7237           90           90           90     102002.7   -621.60132 
  943000       942496   -6843.6484    574.51998   -7418.1684    4315.5816    -11733.75    107.13705   -585.33276   -967.60213    -1226.116    153.62996    94.373867   -41.400391      46.7237      46.7237      46.7237           90           90           90     102002.7    -926.3503 
  944000       943496    -6830.624    591.43971   -7422.0637    4297.2843   -11719.348    110.29226   -783.23661   -670.19292    -1035.657   -2.3094542    20.537294    1.9257788      46.7237      46.7237      46.7237           90           90           90     102002.7   -829.69552 
  945000       944496   -6850.8742    587.15978    -7438.034    4261.7531   -11699.787    109.49413    -813.9468   -1240.8116    -884.8382   -347.99048    275.21412    77.215447      46.7237      46.7237      46.7237           90           90           90     102002.7   -979.86554 
  946000       945496   -6806.0422    585.75577   -7391.7979    4320.5725    -11712.37    109.23231   -1344.3467    -803.7296   -1084.5897   -50.536024    157.90427    97.759561      46.7237      46.7237      46.7237           90           90           90     102002.7   -1077.5554 
  947000       946496   -6856.6434    574.38055   -7431.0239    4282.5242   -11713.548    107.11105   -1025.3108    -1077.334   -731.74711   -41.343121   -69.652053     17.22264      46.7237      46.7237      46.7237           90           90           90     102002.7    -944.7973 
  948000       947496   -6828.2715    594.46895   -7422.7405    4299.2741   -11722.015    110.85715   -1025.1206   -755.26778   -1199.0337   -213.49218    11.051302    26.261908      46.7237      46.7237      46.7237           90           90           90     102002.7    -993.1407 
  949000       948496   -6830.3455     591.4479   -7421.7934    4294.7674   -11716.561    110.29378   -736.80014   -619.70802   -318.51851    6.7268658   -114.86819     -21.5977      46.7237      46.7237      46.7237           90           90           90     102002.7   -558.34222 
  950000       949496   -6859.5281    551.29806   -7410.8262    4308.4287   -11719.255     102.8066   -1119.2586   -712.47758   -1062.6054    212.25048    57.228241    17.754375      46.7237      46.7237      46.7237           90           90           90     102002.7   -964.78053 
  951000       950496   -6813.7787     604.7011   -7418.4798    4306.2672   -11724.747    112.76525   -586.85065   -696.04363   -760.24907   -115.77682    45.049765    73.577186      46.7237      46.7237      46.7237           90           90           90     102002.7   -681.04779 
  952000       951496   -6806.4833    615.49187   -7421.9752    4285.7561   -11707.731    114.77753   -977.64439   -384.17785   -630.85665   -128.39899   -21.875556    5.7588293      46.7237      46.7237      46.7237           90           90           90     102002.7   -664.22629 
  953000       952496   -6844.2613    564.35332   -7408.6146    4320.6219   -11729.237    105.24116   -1010.5706   -575.18683   -1030.0652    101.09175   -189.85778   -89.247489      46.7237      46.7237      46.7237           90           90           90     102002.7   -871.94085 
  954000       953496   -6817.3911    597.93939   -7415.3305    4297.7873   -11713.118    111.50432   -673.88889   -752.86643   -450.67209    120.49752   -108.06977    125.14226      46.7237      46.7237      46.7237           90           90           90     102002.7   -625.80914 
  955000       954496   -6820.2143    605.45892   -7425.6732    4278.6174   -11704.291    112.90657   -699.54734     -648.098   -540.05451   -154.33818   -79.423891   -101.01213      46.7237      46.7237      46.7237           90           90           90     102002.7   -629.23328 
  956000       955496   -6852.6619    598.14593   -7450.8079    4252.1901   -11702.998    111.54284   -626.52185   -429.84859   -187.91472    94.963478   -194.94194   -30.042713      46.7237      46.7237      46.7237           90           90           90     102002.7   -414.76172 
  957000       956496   -6834.5717    604.59716   -7439.1689    4276.3883   -11715.557    112.74587   -295.30805   -576.73697   -715.92721    27.398695    27.251458    133.69238      46.7237      46.7237      46.7237           90           90           90     102002.7   -529.32407 
  958000       957496   -6831.9616    593.13029   -7425.0919    4294.0759   -11719.168    110.60752   -885.37759   -254.54977   -428.78354   -121.27854   -110.25014    46.418098      46.7237      46.7237      46.7237           90           90           90     102002.7   -522.90363 
  959000       958496   -6808.8954    597.39647   -7406.2919    4290.5452   -11696.837    111.40308   -147.90657   -526.69784   -382.36269   -124.29039    38.973398   -32.971317      46.7237      46.7237      46.7237           90           90           90     102002.7   -352.32237 
  960000       959496   -6823.8582    607.87957   -7431.7378    4278.7496   -11710.487    113.35798   -655.22433   -918.07832   -969.83459    70.072453    38.044753    20.266329      46.7237      46.7237      46.7237           90           90           90     102002.7   -847.71241 
  961000       960496   -6830.2731    596.44787    -7426.721    4289.4209   -11716.142    111.22618   -419.97368   -597.00241    -990.1044    574.77306     127.1574    106.99782      46.7237      46.7237      46.7237           90           90           90     102002.7   -669.02683 
  962000       961496   -6840.8053    590.30899   -7431.1143    4287.1658    -11718.28     110.0814   -820.32346   -519.84916   -536.18044   -25.477068   -38.829348   -53.441774      46.7237      46.7237      46.7237           90           90           90     102002.7   -625.45102 
  963000       962496   -6844.0135    589.01762   -7433.0311    4291.5578   -11724.589    109.84058   -784.30016   -709.56122   -342.48171   -192.27129    130.44058     16.13709      46.7237      46.7237      46.7237           90           90           90     102002.7   -612.11436 
  964000       963496   -6798.3627     620.1107   -7418.4734    4307.2128   -11725.686    115.63885   -819.61678   -719.71925   -863.40169    87.346259    61.407028    86.252455      46.7237      46.7237      46.7237           90           90           90     102002.7   -800.91257 
  965000       964496    -6819.469    602.06739   -7421.5364    4291.4946   -11713.031    112.27411   -232.34249   -458.71347   -745.05417     -65.3617   -197.78966    26.049967      46.7237      46.7237      46.7237           90           90           90     102002.7   -478.70338 
  966000       965496   -6834.1527    593.46057   -7427.6133     4267.776   -11695.389    110.66911   -546.38037   -180.17725    -804.7905    154.55028   -75.656139    120.87427      46.7237      46.7237      46.7237           90           90           90     102002.7   -510.44937 
  967000       966496   -6832.9494    607.49054   -7440.4399     4281.407   -11721.847    113.28543   -1113.5733   -1067.7757   -271.95247    -31.35131    -30.63045   -276.09809      46.7237      46.7237      46.7237           90           90           90     102002.7   -817.76716 
  968000       967496    -6840.479     597.2859   -7437.7649    4275.4717   -11713.237    111.38246   -616.23672   -372.65633   -857.90497   -65.280574    155.54262    96.037247      46.7237      46.7237      46.7237           90           90           90     102002.7   -615.59934 
  969000       968496   -6823.6531    596.31595   -7419.9691    4301.8952   -11721.864    111.20158    -829.0901    -851.3312   -629.68608    58.332951   -86.589041     52.38898      46.7237      46.7237      46.7237           90           90           90     102002.7   -770.03579 
  970000       969496    -6837.803    574.23811   -7412.0412    4284.6531   -11696.694    107.08448    -702.3446    -482.6679   -537.72359    -82.02616    98.632464   -5.2405726      46.7237      46.7237      46.7237           90           90           90     102002.7   -574.24536 
  971000       970496   -6830.5779    603.94752   -7434.5255     4257.611   -11692.136    112.62472   -735.77981   -559.24704   -318.69321   -22.149463    114.29664    177.25024      46.7237      46.7237      46.7237           90           90           90     102002.7   -537.90668 
  972000       971496   -6845.2369    588.81415   -7434.0511    4281.9425   -11715.994    109.80264   -970.54133   -555.42178   -1067.4989     65.13436   -45.488143    244.92057      46.7237      46.7237      46.7237           90           90           90     102002.7   -864.48733 
  973000       972496   -6823.6108    598.79731   -7422.4081     4301.773   -11724.181    111.66431   -936.17458   -695.42243   -577.00204    50.145336   -111.24146    218.93829      46.7237      46.7237      46.7237           90           90           90     102002.7   -736.19968 
  974000       973496   -6842.3633    590.89572   -7433.2591    4284.4164   -11717.675    110.19081    -687.1228   -735.98183   -642.73516   0.47533223   -154.04976    186.20499      46.7237      46.7237      46.7237           90           90           90     102002.7   -688.61327 
  975000       974496    -6825.566    575.18124   -7400.7473    4320.2637   -11721.011    107.26036   -475.86094   -684.14755    -1232.241   -22.180359     43.89806    68.232403      46.7237      46.7237      46.7237           90           90           90     102002.7   -797.41649 
  976000       975496   -6830.5498    591.53677   -7422.0865    4290.7711   -11712.858    110.31035   -954.20687   -639.70526   -934.90682   -80.093403   -91.233171    113.07049      46.7237      46.7237      46.7237           90           90           90     102002.7   -842.93965 
  977000       976496   -6834.7171    586.43133   -7421.1484    4295.4401   -11716.588    109.35829   -1133.6467   -892.14499   -1085.0217   -86.755514   -61.464962    159.51271      46.7237      46.7237      46.7237           90           90           90     102002.7   -1036.9378 
  978000       977496   -6822.8019    579.51701   -7402.3189    4307.1248   -11709.444     108.0689   -753.27443   -674.49195   -976.28325   -85.153361   -314.15317   -190.71381      46.7237      46.7237      46.7237           90           90           90     102002.7   -801.34988 
  979000       978496   -6847.2858    573.74735   -7421.0331    4294.9705   -11716.004    106.99297   -923.58763   -292.64335   -507.39984   -93.908238   -21.953533   -133.14908      46.7237      46.7237      46.7237           90           90           90     102002.7   -574.54361 
  980000       979496   -6822.7412    599.50563   -7422.2469    4308.0794   -11730.326     111.7964   -794.44677   -820.94077   -635.97447    58.283485    49.646661   -2.9599292      46.7237      46.7237      46.7237           90           90           90     102002.7     -750.454 
  981000       980496   -6840.6871    583.92411   -7424.6112    4305.2277   -11729.839    108.89074   -604.55113   -377.82876   -904.12354   -25.977834     22.93657    365.88266      46.7237      46.7237      46.7237           90           90           90     102002.7   -628.83448 
  982000       981496   -6843.2428    577.25147   -7420.4943    4286.4931   -11706.987    107.64642   -816.47401    -349.6298   -576.03401    23.273942    65.554719    22.193997      46.7237      46.7237      46.7237           90           90           90     102002.7   -580.71261 
  983000       982496   -6850.7065    582.55163   -7433.2581    4303.6995   -11736.958     108.6348   -307.58387   -1093.6814   -433.67662    -21.85422   -31.682052   -184.42418      46.7237      46.7237      46.7237           90           90           90     102002.7   -611.64729 
  984000       983496   -6811.8239    594.14986   -7405.9738    4297.5718   -11703.546    110.79765   -414.93341   -701.26903   -1042.7877   -69.039654     197.4242   -47.728683      46.7237      46.7237      46.7237           90           90           90     102002.7   -719.66338 
  985000       984496   -6836.5024    579.28963    -7415.792    4301.1142   -11716.906     108.0265   -314.51334   -879.98972   -889.69736    207.85989   -15.856239    216.01201      46.7237      46.7237      46.7237           90           90           90     102002.7   -694.73347 
  986000       985496   -6829.6453    575.23773   -7404.8831    4333.0434   -11737.926    107.27089   -312.59276   -960.64104    -690.8819   -34.294484   -184.99797    122.41716      46.7237      46.7237      46.7237           90           90           90     102002.7   -654.70523 
  987000       986496   -6816.2866    588.47947    -7404.766    4319.0927   -11723.859    109.74023   -800.72134   -1011.4676   -801.67882   -83.451762    -67.74948   -77.038117      46.7237      46.7237      46.7237           90           90           90     102002.7   -871.28926 
  988000       987496   -6814.9165    600.84871   -7415.7652    4286.4226   -11702.188    112.04685   -813.54308    -929.1537   -748.13578    31.427897    153.83451    157.77388      46.7237      46.7237      46.7237           90           90           90     102002.7   -830.27752 
  989000       988496   -6852.5166     592.0577   -7444.5743    4268.0981   -11712.672     110.4075   -734.06969   -415.02491   -444.38207    53.138344   -53.343624    3.2172852      46.7237      46.7237      46.7237           90           90           90     102002.7   -531.15889 
  990000       989496   -6865.0245     570.9005    -7435.925    4282.5266   -11718.452    106.46208   -814.33854   -867.62485   -805.39392   -118.20669   -78.847301   -170.91006      46.7237      46.7237      46.7237           90           90           90     102002.7    -829.1191 
  991000       990496    -6818.579    581.84719   -7400.4262    4312.4562   -11712.882    108.50343    -453.6629   -416.86353   -667.18856    162.69101    131.48038    188.88761      46.7237      46.7237      46.7237           90           90           90     102002.7   -512.57166 
  992000       991496   -6833.8376    583.18249   -7417.0201    4290.8621   -11707.882    108.75244   -480.24882   -417.56412   -605.33321    226.43944    31.142136   -186.71344      46.7237      46.7237      46.7237           90           90           90     102002.7   -501.04872 
  993000       992496   -6828.5538    572.58209   -7401.1358    4320.2872   -11721.423    106.77567   -540.05558    -673.2168   -454.67664   -23.098662   -109.98455     -154.405      46.7237      46.7237      46.7237           90           90           90     102002.7   -555.98301 
  994000       993496    -6789.387    617.11748   -7406.5045    4308.1195   -11714.624    115.08067   -807.60741   -234.94637   -653.61545    65.255447   -32.390835   -89.792719      46.7237      46.7237      46.7237           90           90           90     102002.7   -565.38974 
  995000       994496   -6846.5458    571.52634   -7418.0722    4302.0565   -11720.129    106.57879   -294.62051   -947.10326   -1147.7206   -100.11163    11.934249   -76.770407      46.7237      46.7237      46.7237           90           90           90     102002.7   -796.48144 
  996000       995496   -6842.7721    590.83398   -7433.6061    4277.6331   -11711.239     110.1793   -675.70479   -1096.0714   -791.30285   -5.9870852   -75.631609    61.986739      46.7237      46.7237      46.7237           90           90           90     102002.7   -854.35968 
  997000       996496   -6845.6117    588.39979   -7434.0115    4270.2874   -11704.299    109.72537   -611.72289   -136.35153   -531.42193   0.41506447   -6.6857618    16.306531      46.7237      46.7237      46.7237           90           90           90     102002.7   -426.49878 
  998000       997496   -6810.2135    616.47806   -7426.6916    4292.5726   -11719.264    114.96143   -430.92474   -630.87389   -669.80056    28.201168   -139.48502   -34.926454      46.7237      46.7237      46.7237           90           90           90     102002.7   -577.19973 
  999000       998496   -6810.7512    594.06266   -7404.8139    4305.6051   -11710.419    110.78138   -654.88916   -919.85106   -429.21241   -64.409092    130.96111    179.51592      46.7237      46.7237      46.7237           90           90           90     102002.7   -667.98421 
 1000000       999496   -6816.1208    607.48148   -7423.6022    4289.7667   -11713.369    113.28374   -509.32655   -330.04615   -881.54214     55.55683   -33.751889    81.587707      46.7237      46.7237      46.7237           90           90           90     102002.7   -573.63828 
 1000504      1000000   -6828.7289      579.115   -7407.8439    4299.0092   -11706.853    107.99393   -753.06917   -529.40963   -648.56574    101.97167    35.185316   -45.696103      46.7237      46.7237      46.7237           90           90           90     102002.7   -643.68151 
Loop time of 604.024 on 24 procs for 500000 steps with 1800 atoms

Performance: 71.520 ns/day, 0.336 hours/ns, 827.782 timesteps/s
99.9% CPU use with 24 MPI tasks x no OpenMP threads

MPI task timing breakdown:
Section |  min time  |  avg time  |  max time  |%varavg| %total
---------------------------------------------------------------
Pair    | 257.3      | 313.98     | 364.57     | 184.8 | 51.98
Bond    | 56.241     | 82.1       | 105.92     | 141.1 | 13.59
Neigh   | 2.2517     | 2.2734     | 2.2879     |   0.9 |  0.38
Comm    | 141.19     | 189.95     | 258.62     | 234.3 | 31.45
Output  | 0.38103    | 0.41117    | 0.41262    |   1.0 |  0.07
Modify  | 11.835     | 12.21      | 12.908     |   9.7 |  2.02
Other   |            | 3.102      |            |       |  0.51

Nlocal:    75 ave 97 max 48 min
Histogram: 1 2 1 0 4 7 3 3 2 1
Nghost:    2044.38 ave 2197 max 1956 min
Histogram: 13 3 0 0 0 0 0 0 0 8
Neighs:    7647 ave 10289 max 5721 min
Histogram: 4 1 4 3 3 3 1 3 1 1

Total # of neighbors = 183528
Ave neighs/atom = 101.96
Ave special neighs/atom = 6.4
Neighbor list builds = 3954
Dangerous builds = 0
Total wall time: 0:19:48
