LAMMPS (30 Mar 2018)
Reading data file ...
  orthogonal box = (0 0 0) to (46.7237 46.7237 46.7237)
  2 by 2 by 4 MPI processor grid
  reading atoms ...
  1732 atoms
  scanning bonds ...
  5 = max bonds/atom
  scanning angles ...
  10 = max angles/atom
  scanning dihedrals ...
  32 = max dihedrals/atom
  scanning impropers ...
  3 = max impropers/atom
  reading bonds ...
  2064 bonds
  reading angles ...
  3696 angles
  reading dihedrals ...
  6240 dihedrals
  reading impropers ...
  1008 impropers
Finding 1-2 1-3 1-4 neighbors ...
  special bond factors lj:   0          0          0         
  special bond factors coul: 0          0          0         
  5 = max # of 1-2 neighbors
  8 = max # of 1-3 neighbors
  20 = max # of 1-4 neighbors
  19 = max # of special neighbors
Finding 1-2 1-3 1-4 neighbors ...
  special bond factors lj:   0          0          1         
  special bond factors coul: 1          1          1         
  5 = max # of 1-2 neighbors
  8 = max # of 1-3 neighbors
  19 = max # of special neighbors
WARNING: Using 'neigh_modify every 1 delay 0 check yes' setting during minimization (../min.cpp:168)
Neighbor list info ...
  update every 1 steps, delay 0 steps, check yes
  max neighbors/atom: 2000, page size: 100000
  master list distance cutoff = 16
  ghost atom cutoff = 16
  binsize = 8, bins = 6 6 6
  3 neighbor lists, perpetual/occasional/extra = 3 0 0
  (1) pair buck6d/coul/gauss/dsf, perpetual, skip from (3)
      attributes: half, newton on
      pair build: skip
      stencil: none
      bin: none
  (2) pair lj/cut, perpetual, skip from (3)
      attributes: half, newton on
      pair build: skip
      stencil: none
      bin: none
  (3) neighbor class addition, perpetual
      attributes: half, newton on
      pair build: half/bin/newton
      stencil: half/bin/3d/newton
      bin: standard
Setting up cg style minimization ...
  Unit style    : real
  Current step  : 0
WARNING: Inconsistent image flags (../domain.cpp:786)
Per MPI rank memory allocation (min/avg/max) = 22.89 | 23.35 | 23.79 Mbytes
Step Temp E_pair E_mol TotEng Press 
       0            0    -11524.78    6482.8914   -5041.8882    6285.4051 
     503            0    -11544.16    3736.5822   -7807.5774   -482.09315 
Loop time of 4.12166 on 16 procs for 503 steps with 1732 atoms

99.9% CPU use with 16 MPI tasks x no OpenMP threads

Minimization stats:
  Stopping criterion = max force evaluations
  Energy initial, next-to-last, final = 
        -5041.88824753     -7807.53848609       -7807.577373
  Force two-norm initial, final = 2576.97 8.91008
  Force max component initial, final = 151.966 1.08902
  Final line search alpha, max atom move = 0.0109947 0.0119734
  Iterations, force evaluations = 503 1001

MPI task timing breakdown:
Section |  min time  |  avg time  |  max time  |%varavg| %total
---------------------------------------------------------------
Pair    | 1.2264     | 1.908      | 3.1678     |  35.2 | 46.29
Bond    | 0.3455     | 0.39715    | 0.49771    |   6.2 |  9.64
Neigh   | 0.022634   | 0.022927   | 0.023198   |   0.1 |  0.56
Comm    | 0.452      | 1.7504     | 2.4403     |  37.9 | 42.47
Output  | 0          | 0          | 0          |   0.0 |  0.00
Modify  | 0          | 0          | 0          |   0.0 |  0.00
Other   |            | 0.04318    |            |       |  1.05

Nlocal:    108.25 ave 127 max 95 min
Histogram: 2 1 2 3 3 3 0 0 1 1
Nghost:    2186.75 ave 2200 max 2168 min
Histogram: 1 1 0 0 1 5 3 2 2 1
Neighs:    11447.2 ave 15940 max 7449 min
Histogram: 2 2 3 1 0 1 1 3 2 1

Total # of neighbors = 183155
Ave neighs/atom = 105.748
Ave special neighs/atom = 6.65127
Neighbor list builds = 13
Dangerous builds = 0
Neighbor list info ...
  update every 1 steps, delay 10 steps, check yes
  max neighbors/atom: 2000, page size: 100000
  master list distance cutoff = 16
  ghost atom cutoff = 16
  binsize = 8, bins = 6 6 6
  3 neighbor lists, perpetual/occasional/extra = 3 0 0
  (1) pair buck6d/coul/gauss/dsf, perpetual, skip from (3)
      attributes: half, newton on
      pair build: skip
      stencil: none
      bin: none
  (2) pair lj/cut, perpetual, skip from (3)
      attributes: half, newton on
      pair build: skip
      stencil: none
      bin: none
  (3) neighbor class addition, perpetual
      attributes: half, newton on
      pair build: half/bin/newton
      stencil: half/bin/3d/newton
      bin: standard
Setting up Verlet run ...
  Unit style    : real
  Current step  : 503
  Time step     : 1
WARNING: Inconsistent image flags (../domain.cpp:786)
Per MPI rank memory allocation (min/avg/max) = 22.54 | 22.65 | 23.2 Mbytes
Step Temp PotEng TotEng Press Volume Lx Ly Lz 
     503          130   -7807.5774   -7136.8057   -181.48836     102002.7      46.7237      46.7237      46.7237 
    1000    115.83348   -7216.5438   -6618.8683   -743.40768     102002.7      46.7237      46.7237      46.7237 
    2000    130.33742   -7107.6098   -6435.0971   -503.73439     102002.7      46.7237      46.7237      46.7237 
    3000    126.70175   -7126.0771   -6472.3236   -780.36021     102002.7      46.7237      46.7237      46.7237 
    4000    127.07314   -7116.6209   -6460.9511   -553.10708     102002.7      46.7237      46.7237      46.7237 
    5000     132.6796   -7128.9035   -6444.3056   -756.71532     102002.7      46.7237      46.7237      46.7237 
    6000    124.32606   -7134.7829   -6493.2875   -717.89802     102002.7      46.7237      46.7237      46.7237 
    7000    132.77039   -7119.7003    -6434.634   -470.82411     102002.7      46.7237      46.7237      46.7237 
    8000     124.8244   -7109.0096   -6464.9429   -669.94716     102002.7      46.7237      46.7237      46.7237 
    9000    125.78162   -7126.7517   -6477.7459   -801.65199     102002.7      46.7237      46.7237      46.7237 
   10000    127.26245   -7097.4757   -6440.8291   -740.57021     102002.7      46.7237      46.7237      46.7237 
   11000    135.91536   -7124.5993   -6423.3056   -1061.7446     102002.7      46.7237      46.7237      46.7237 
   12000    131.16119   -7131.8841    -6455.121   -801.19234     102002.7      46.7237      46.7237      46.7237 
   13000    127.50663   -7142.6796   -6484.7731   -924.65315     102002.7      46.7237      46.7237      46.7237 
   14000    133.68464   -7134.0498   -6444.2662   -916.84809     102002.7      46.7237      46.7237      46.7237 
   15000    127.27993   -7130.0385   -6473.3018   -424.73968     102002.7      46.7237      46.7237      46.7237 
   16000    128.23864   -7127.5973   -6465.9139   -819.24183     102002.7      46.7237      46.7237      46.7237 
   17000    127.21341   -7128.8242   -6472.4307   -831.64187     102002.7      46.7237      46.7237      46.7237 
   18000    128.71101   -7101.7006   -6437.5798   -400.00107     102002.7      46.7237      46.7237      46.7237 
   19000    130.88272    -7126.514   -6451.1876   -622.45984     102002.7      46.7237      46.7237      46.7237 
   20000    127.35566   -7127.9061   -6470.7787   -656.77322     102002.7      46.7237      46.7237      46.7237 
   21000    130.75651   -7138.2127   -6463.5376   -849.16277     102002.7      46.7237      46.7237      46.7237 
   22000    134.14998   -7107.1782   -6414.9935   -698.00215     102002.7      46.7237      46.7237      46.7237 
   23000    132.31596   -7123.6889   -6440.9673     -675.355     102002.7      46.7237      46.7237      46.7237 
   24000    130.74017   -7123.2852   -6448.6944   -646.22018     102002.7      46.7237      46.7237      46.7237 
   25000    123.68828   -7149.8404   -6511.6358   -407.77372     102002.7      46.7237      46.7237      46.7237 
   26000    130.75992    -7122.397   -6447.7043   -687.04431     102002.7      46.7237      46.7237      46.7237 
   27000    131.96789     -7118.26   -6437.3344   -775.12576     102002.7      46.7237      46.7237      46.7237 
   28000    126.53553   -7117.2739   -6464.3782   -1218.2584     102002.7      46.7237      46.7237      46.7237 
   29000    134.38039   -7116.3447   -6422.9712    -877.6512     102002.7      46.7237      46.7237      46.7237 
   30000     129.5352    -7107.575   -6439.2016   -998.11473     102002.7      46.7237      46.7237      46.7237 
   31000     130.0798   -7140.8147   -6469.6313   -806.48105     102002.7      46.7237      46.7237      46.7237 
   32000    128.79941   -7123.4357   -6458.8588   -613.50484     102002.7      46.7237      46.7237      46.7237 
   33000    131.59573   -7118.4867   -6439.4814   -744.47749     102002.7      46.7237      46.7237      46.7237 
   34000    129.23794   -7136.5102   -6469.6705   -625.30144     102002.7      46.7237      46.7237      46.7237 
   35000    136.49176   -7145.4149   -6441.1471   -536.56268     102002.7      46.7237      46.7237      46.7237 
   36000    128.80792   -7111.4117   -6446.7908   -695.01091     102002.7      46.7237      46.7237      46.7237 
   37000    127.29907   -7143.9163   -6487.0808   -844.77191     102002.7      46.7237      46.7237      46.7237 
   38000    125.35146   -7114.7076   -6467.9214   -547.07054     102002.7      46.7237      46.7237      46.7237 
   39000    131.47728   -7125.9991   -6447.6049   -623.35151     102002.7      46.7237      46.7237      46.7237 
   40000    135.06251   -7134.3261    -6437.433   -412.12916     102002.7      46.7237      46.7237      46.7237 
   41000     130.9378   -7134.5868   -6458.9763   -589.41729     102002.7      46.7237      46.7237      46.7237 
   42000     127.7819   -7116.4893   -6457.1625   -452.62625     102002.7      46.7237      46.7237      46.7237 
   43000    128.74018   -7134.3171   -6470.0458   -573.98919     102002.7      46.7237      46.7237      46.7237 
   44000    131.82763   -7136.7322   -6456.5304   -613.09162     102002.7      46.7237      46.7237      46.7237 
   45000    138.07149   -7125.7602   -6413.3414   -479.74281     102002.7      46.7237      46.7237      46.7237 
   46000    128.85485   -7125.8106   -6460.9477   -641.20006     102002.7      46.7237      46.7237      46.7237 
   47000    132.87821   -7148.1749   -6462.5523   -351.84794     102002.7      46.7237      46.7237      46.7237 
   48000    131.43446   -7116.6439   -6438.4707   -534.75697     102002.7      46.7237      46.7237      46.7237 
   49000    128.51258   -7138.8348   -6475.7378   -691.59978     102002.7      46.7237      46.7237      46.7237 
   50000    129.61552   -7126.5012   -6457.7134    -412.6718     102002.7      46.7237      46.7237      46.7237 
   51000    129.77607   -7112.1155   -6442.4992   -876.58532     102002.7      46.7237      46.7237      46.7237 
   52000    126.85942   -7140.6163   -6486.0493   -487.42572     102002.7      46.7237      46.7237      46.7237 
   53000    128.59961   -7127.6296   -6464.0836   -681.62222     102002.7      46.7237      46.7237      46.7237 
   54000    133.25676   -7115.9855   -6428.4097   -916.30623     102002.7      46.7237      46.7237      46.7237 
   55000    132.58975   -7130.1182    -6445.984   -1018.7271     102002.7      46.7237      46.7237      46.7237 
   56000    129.48491   -7137.3865   -6469.2726   -699.08228     102002.7      46.7237      46.7237      46.7237 
   57000    126.33355   -7145.6212   -6493.7676   -586.59553     102002.7      46.7237      46.7237      46.7237 
   58000    128.88879   -7117.6125   -6452.5745   -473.85465     102002.7      46.7237      46.7237      46.7237 
   59000    125.41728   -7128.0035   -6480.8777   -723.74593     102002.7      46.7237      46.7237      46.7237 
   60000    132.49624   -7122.4647    -6438.813   -541.41987     102002.7      46.7237      46.7237      46.7237 
   61000    131.32512   -7124.5404   -6446.9314   -661.30425     102002.7      46.7237      46.7237      46.7237 
   62000    134.18303   -7118.9737   -6426.6185   -643.84618     102002.7      46.7237      46.7237      46.7237 
   63000    128.47302   -7130.8601   -6467.9673   -789.58037     102002.7      46.7237      46.7237      46.7237 
   64000    128.77584   -7124.0773    -6459.622   -659.73723     102002.7      46.7237      46.7237      46.7237 
   65000    130.29905    -7117.912   -6445.5973   -519.80127     102002.7      46.7237      46.7237      46.7237 
   66000    126.23542   -7120.7317   -6469.3845   -795.81068     102002.7      46.7237      46.7237      46.7237 
   67000     130.7221   -7130.3126    -6455.815   -477.10698     102002.7      46.7237      46.7237      46.7237 
   68000    126.94351   -7112.4543   -6457.4535   -785.69505     102002.7      46.7237      46.7237      46.7237 
   69000    130.23087   -7092.2042   -6420.2413   -844.69304     102002.7      46.7237      46.7237      46.7237 
   70000    125.64921   -7123.0189   -6474.6963   -571.75108     102002.7      46.7237      46.7237      46.7237 
   71000    128.42866    -7109.266   -6446.6021   -735.73544     102002.7      46.7237      46.7237      46.7237 
   72000    126.04849   -7113.9934   -6463.6106   -927.47876     102002.7      46.7237      46.7237      46.7237 
   73000     128.3748   -7119.8484   -6457.4624   -928.90515     102002.7      46.7237      46.7237      46.7237 
   74000    130.97105   -7117.3284   -6441.5463   -654.80854     102002.7      46.7237      46.7237      46.7237 
   75000    127.58571   -7128.9788   -6470.6643   -900.20748     102002.7      46.7237      46.7237      46.7237 
   76000    125.01301   -7115.2737   -6470.2338   -448.93159     102002.7      46.7237      46.7237      46.7237 
   77000    133.81882   -7126.4664   -6435.9904   -811.67018     102002.7      46.7237      46.7237      46.7237 
   78000     128.2075   -7137.1491   -6475.6263   -554.23333     102002.7      46.7237      46.7237      46.7237 
   79000    128.03414    -7107.437   -6446.8087   -545.71985     102002.7      46.7237      46.7237      46.7237 
   80000    129.64998   -7144.2454   -6475.2797   -856.19382     102002.7      46.7237      46.7237      46.7237 
   81000    128.34368   -7138.5971   -6476.3716   -530.23015     102002.7      46.7237      46.7237      46.7237 
   82000    129.64739   -7140.8402   -6471.8879   -657.08317     102002.7      46.7237      46.7237      46.7237 
   83000     132.6985   -7093.1943    -6408.499   -497.61938     102002.7      46.7237      46.7237      46.7237 
   84000    128.33876    -7138.049    -6475.849   -360.54674     102002.7      46.7237      46.7237      46.7237 
   85000    127.94665   -7122.6315   -6462.4547   -448.31281     102002.7      46.7237      46.7237      46.7237 
   86000    130.98727   -7112.3504   -6436.4846   -587.43802     102002.7      46.7237      46.7237      46.7237 
   87000    130.73813   -7136.9272   -6462.3469   -987.85591     102002.7      46.7237      46.7237      46.7237 
   88000    130.23196   -7135.8153   -6463.8467   -712.80712     102002.7      46.7237      46.7237      46.7237 
   89000    132.59715   -7139.0992   -6454.9268   -612.08479     102002.7      46.7237      46.7237      46.7237 
   90000    126.11124   -7101.4365     -6450.73   -591.76516     102002.7      46.7237      46.7237      46.7237 
   91000    128.18162   -7125.0832   -6463.6939   -620.74457     102002.7      46.7237      46.7237      46.7237 
   92000    136.84846   -7156.3689   -6450.2607   -393.39047     102002.7      46.7237      46.7237      46.7237 
   93000    126.10047   -7113.8631   -6463.2121   -852.10048     102002.7      46.7237      46.7237      46.7237 
   94000     132.6811   -7140.2607   -6455.6551   -871.50335     102002.7      46.7237      46.7237      46.7237 
   95000     124.3866   -7090.0804   -6448.2726   -819.41983     102002.7      46.7237      46.7237      46.7237 
   96000    126.44803    -7153.545   -6501.1007    -790.9382     102002.7      46.7237      46.7237      46.7237 
   97000    128.88442   -7147.4388   -6482.4233    -993.2285     102002.7      46.7237      46.7237      46.7237 
   98000    128.20006   -7117.8486   -6456.3642   -1212.8518     102002.7      46.7237      46.7237      46.7237 
   99000    133.27228   -7108.5385   -6420.8826     -559.889     102002.7      46.7237      46.7237      46.7237 
  100000     128.8908   -7137.4731   -6472.4247   -431.11906     102002.7      46.7237      46.7237      46.7237 
  101000    130.71384   -7120.0213   -6445.5664   -665.55193     102002.7      46.7237      46.7237      46.7237 
  102000     128.9689   -7110.1634    -6444.712   -565.12791     102002.7      46.7237      46.7237      46.7237 
  103000     130.0653    -7131.445   -6460.3364    -921.3844     102002.7      46.7237      46.7237      46.7237 
  104000    133.81485   -7090.7525    -6400.297   -714.56646     102002.7      46.7237      46.7237      46.7237 
  105000     128.0627   -7131.6965   -6470.9208   -755.95427     102002.7      46.7237      46.7237      46.7237 
  106000    128.74957   -7145.3866   -6481.0669   -757.30373     102002.7      46.7237      46.7237      46.7237 
  107000    130.88018   -7131.9512    -6456.638   -697.83421     102002.7      46.7237      46.7237      46.7237 
  108000    132.94052   -7149.4703   -6463.5261   -683.61328     102002.7      46.7237      46.7237      46.7237 
  109000    130.29567   -7137.2199   -6464.9226   -887.48638     102002.7      46.7237      46.7237      46.7237 
  110000    133.56319   -7123.0656   -6433.9087   -711.58345     102002.7      46.7237      46.7237      46.7237 
  111000    125.11473   -7118.5551   -6472.9904    -551.6184     102002.7      46.7237      46.7237      46.7237 
  112000    132.52264   -7111.7541   -6427.9661   -597.66386     102002.7      46.7237      46.7237      46.7237 
  113000    129.51127   -7128.6261   -6460.3761   -497.46144     102002.7      46.7237      46.7237      46.7237 
  114000    130.08482   -7137.8894   -6466.6801   -736.81401     102002.7      46.7237      46.7237      46.7237 
  115000    128.73589   -7094.2147   -6429.9655   -711.62953     102002.7      46.7237      46.7237      46.7237 
  116000    133.59031   -7151.1648   -6461.8679    -930.0148     102002.7      46.7237      46.7237      46.7237 
  117000    130.57107   -7127.7936   -6454.0753   -700.46816     102002.7      46.7237      46.7237      46.7237 
  118000    136.39147   -7118.9285   -6415.1782    -668.2393     102002.7      46.7237      46.7237      46.7237 
  119000    130.06817   -7137.0964   -6465.9729   -801.52979     102002.7      46.7237      46.7237      46.7237 
  120000    124.49095   -7105.9301    -6463.584   -502.44782     102002.7      46.7237      46.7237      46.7237 
  121000     132.6912   -7125.0598   -6440.4021   -817.61385     102002.7      46.7237      46.7237      46.7237 
  122000    124.21905   -7112.2054   -6471.2622   -693.47716     102002.7      46.7237      46.7237      46.7237 
  123000    129.78365   -7121.0862   -6451.4308   -1026.8178     102002.7      46.7237      46.7237      46.7237 
  124000    126.33384   -7132.0421    -6480.187     -724.773     102002.7      46.7237      46.7237      46.7237 
  125000    130.60511   -7128.6321   -6454.7381   -1071.5489     102002.7      46.7237      46.7237      46.7237 
  126000    129.61034   -7124.6945   -6455.9334   -1018.1072     102002.7      46.7237      46.7237      46.7237 
  127000    130.80259   -7154.7686   -6479.8557   -997.41105     102002.7      46.7237      46.7237      46.7237 
  128000    132.12575   -7132.1824   -6450.4423   -839.30301     102002.7      46.7237      46.7237      46.7237 
  129000    128.29332   -7128.7096    -6466.744   -537.03115     102002.7      46.7237      46.7237      46.7237 
  130000    130.34114   -7107.9541   -6435.4222   -756.47109     102002.7      46.7237      46.7237      46.7237 
  131000    130.60113   -7123.0975   -6449.2241   -655.87339     102002.7      46.7237      46.7237      46.7237 
  132000    128.75936    -7128.918   -6464.5478   -846.33071     102002.7      46.7237      46.7237      46.7237 
  133000    126.83794   -7141.0511    -6486.595   -560.91963     102002.7      46.7237      46.7237      46.7237 
  134000    128.58352   -7127.3774   -6463.9145   -540.05175     102002.7      46.7237      46.7237      46.7237 
  135000    132.77098   -7096.8805   -6411.8112   -916.15912     102002.7      46.7237      46.7237      46.7237 
  136000    130.31634   -7127.3023   -6454.8984   -341.54414     102002.7      46.7237      46.7237      46.7237 
  137000    131.13349   -7139.9493    -6463.329   -753.98502     102002.7      46.7237      46.7237      46.7237 
  138000    129.75607    -7152.385   -6482.8719   -784.38956     102002.7      46.7237      46.7237      46.7237 
  139000    125.98376   -7117.7122   -6467.6635   -885.10426     102002.7      46.7237      46.7237      46.7237 
  140000    126.81735   -7128.9494   -6474.5995   -417.97408     102002.7      46.7237      46.7237      46.7237 
  141000    127.72698    -7114.197   -6455.1536    -749.7737     102002.7      46.7237      46.7237      46.7237 
  142000    128.19576   -7144.9531   -6483.4909   -975.55948     102002.7      46.7237      46.7237      46.7237 
  143000    129.59964    -7125.017    -6456.311   -857.49254     102002.7      46.7237      46.7237      46.7237 
  144000    127.91496   -7128.6281   -6468.6148   -790.71795     102002.7      46.7237      46.7237      46.7237 
  145000    129.68546   -7118.2518   -6449.1031   -690.18912     102002.7      46.7237      46.7237      46.7237 
  146000    129.17647   -7134.7939   -6468.2715   -421.30801     102002.7      46.7237      46.7237      46.7237 
  147000    125.13512   -7129.8018   -6484.1318   -890.82619     102002.7      46.7237      46.7237      46.7237 
  148000    135.33339   -7136.4776   -6438.1868   -468.83881     102002.7      46.7237      46.7237      46.7237 
  149000    135.11854   -7118.2197   -6421.0375   -863.32493     102002.7      46.7237      46.7237      46.7237 
  150000    132.35849   -7166.8206   -6483.8796   -931.59229     102002.7      46.7237      46.7237      46.7237 
  151000    131.17424   -7121.7427   -6444.9122   -856.52501     102002.7      46.7237      46.7237      46.7237 
  152000    130.62659   -7099.3047      -6425.3   -994.75781     102002.7      46.7237      46.7237      46.7237 
  153000    130.00574   -7140.7067   -6469.9054   -871.13106     102002.7      46.7237      46.7237      46.7237 
  154000    136.59122   -7119.7448   -6414.9638   -1002.6384     102002.7      46.7237      46.7237      46.7237 
  155000    129.91222   -7118.6367   -6448.3179   -590.68248     102002.7      46.7237      46.7237      46.7237 
  156000    125.44589   -7153.5606   -6506.2871   -761.09556     102002.7      46.7237      46.7237      46.7237 
  157000    133.89575   -7130.7245   -6439.8515   -712.13217     102002.7      46.7237      46.7237      46.7237 
  158000    135.19916   -7124.1185   -6426.5202   -862.43808     102002.7      46.7237      46.7237      46.7237 
  159000    130.81743   -7134.6237   -6459.6342   -815.17887     102002.7      46.7237      46.7237      46.7237 
  160000    132.86806   -7110.1145   -6424.5443   -485.45686     102002.7      46.7237      46.7237      46.7237 
  161000    128.35742   -7123.9121   -6461.6157   -295.04303     102002.7      46.7237      46.7237      46.7237 
  162000    135.95689   -7126.6756   -6425.1677   -480.98214     102002.7      46.7237      46.7237      46.7237 
  163000     131.4403   -7132.4784   -6454.2751   -812.73652     102002.7      46.7237      46.7237      46.7237 
  164000    126.54149   -7114.3078   -6461.3813     -835.675     102002.7      46.7237      46.7237      46.7237 
  165000    130.42574   -7109.5473   -6436.5788   -755.00311     102002.7      46.7237      46.7237      46.7237 
  166000    128.09258   -7121.7638    -6460.834   -1051.1311     102002.7      46.7237      46.7237      46.7237 
  167000    132.43649   -7115.4393   -6432.0958   -954.06944     102002.7      46.7237      46.7237      46.7237 
  168000     129.1164   -7125.7699   -6459.5574   -887.67846     102002.7      46.7237      46.7237      46.7237 
  169000    126.99604   -7130.9706   -6475.6987   -586.63467     102002.7      46.7237      46.7237      46.7237 
  170000    128.35018   -7124.9092   -6462.6502    -1070.463     102002.7      46.7237      46.7237      46.7237 
  171000     128.1357   -7123.0071   -6461.8549   -909.08873     102002.7      46.7237      46.7237      46.7237 
  172000    126.86406   -7135.8322   -6481.2413   -818.96752     102002.7      46.7237      46.7237      46.7237 
  173000    130.23425   -7118.2202   -6446.2398   -952.29869     102002.7      46.7237      46.7237      46.7237 
  174000    127.26713    -7132.618   -6475.9473   -535.16317     102002.7      46.7237      46.7237      46.7237 
  175000    128.99835   -7120.5435   -6454.9402   -723.69275     102002.7      46.7237      46.7237      46.7237 
  176000    125.72375   -7136.0303   -6487.3231   -746.92348     102002.7      46.7237      46.7237      46.7237 
  177000    133.37294   -7140.1209   -6451.9456    -582.2953     102002.7      46.7237      46.7237      46.7237 
  178000    126.90892   -7145.0198   -6490.1974   -588.95315     102002.7      46.7237      46.7237      46.7237 
  179000    130.39697   -7111.1739   -6438.3539   -529.44591     102002.7      46.7237      46.7237      46.7237 
  180000    134.29486   -7116.3578   -6423.4255   -857.19554     102002.7      46.7237      46.7237      46.7237 
  181000    132.23612   -7145.0383   -6462.7287    -647.0786     102002.7      46.7237      46.7237      46.7237 
  182000    130.72469   -7107.0365   -6432.5256   -646.81032     102002.7      46.7237      46.7237      46.7237 
  183000      129.176    -7135.395    -6468.875   -853.62226     102002.7      46.7237      46.7237      46.7237 
  184000    135.55084     -7123.96   -6424.5472   -531.41465     102002.7      46.7237      46.7237      46.7237 
  185000    127.08941   -7133.7067   -6477.9531   -910.42995     102002.7      46.7237      46.7237      46.7237 
  186000    133.91983   -7152.2682   -6461.2711   -576.41453     102002.7      46.7237      46.7237      46.7237 
  187000    131.34105   -7128.8894   -6451.1982   -817.96623     102002.7      46.7237      46.7237      46.7237 
  188000    124.50317   -7147.3609   -6504.9517   -713.09927     102002.7      46.7237      46.7237      46.7237 
  189000        132.4   -7123.2688   -6440.1136   -390.52293     102002.7      46.7237      46.7237      46.7237 
  190000    128.60251   -7121.2027   -6457.6418   -585.06577     102002.7      46.7237      46.7237      46.7237 
  191000    126.71356   -7138.6343   -6484.8199   -621.53384     102002.7      46.7237      46.7237      46.7237 
  192000    129.91054   -7118.9161    -6448.606       -598.4     102002.7      46.7237      46.7237      46.7237 
  193000    127.03284   -7123.2623   -6467.8006   -416.74937     102002.7      46.7237      46.7237      46.7237 
  194000    130.83604   -7114.3015    -6439.216     -636.641     102002.7      46.7237      46.7237      46.7237 
  195000    132.73629   -7104.7804     -6419.89   -888.96024     102002.7      46.7237      46.7237      46.7237 
  196000    129.80547   -7140.2282   -6470.4602   -559.75122     102002.7      46.7237      46.7237      46.7237 
  197000    136.73775    -7128.686    -6423.149   -656.14815     102002.7      46.7237      46.7237      46.7237 
  198000    128.13089   -7128.9842   -6467.8567   -800.59155     102002.7      46.7237      46.7237      46.7237 
  199000    126.16087   -7133.5574   -6482.5948   -894.13938     102002.7      46.7237      46.7237      46.7237 
  200000    131.54135   -7132.6457    -6453.921   -664.03789     102002.7      46.7237      46.7237      46.7237 
  201000    128.83975   -7115.9869   -6451.2019    -876.9914     102002.7      46.7237      46.7237      46.7237 
  202000    133.14168   -7124.4939   -6437.5118   -1025.8124     102002.7      46.7237      46.7237      46.7237 
  203000    128.28087   -7127.6521   -6465.7507   -889.29936     102002.7      46.7237      46.7237      46.7237 
  204000    132.79078     -7138.55   -6453.3785   -853.45602     102002.7      46.7237      46.7237      46.7237 
  205000    133.68419   -7133.9468   -6444.1655   -822.15823     102002.7      46.7237      46.7237      46.7237 
  206000    130.07978   -7123.7079   -6452.5246    -794.4324     102002.7      46.7237      46.7237      46.7237 
  207000    125.62196   -7108.6059   -6460.4239   -617.60725     102002.7      46.7237      46.7237      46.7237 
  208000    131.99792   -7112.2262   -6431.1457   -781.18164     102002.7      46.7237      46.7237      46.7237 
  209000    130.88392   -7147.6677   -6472.3352   -742.30983     102002.7      46.7237      46.7237      46.7237 
  210000     125.6387   -7131.3508   -6483.0825   -856.60669     102002.7      46.7237      46.7237      46.7237 
  211000    133.57481   -7136.5226   -6447.3057   -352.01684     102002.7      46.7237      46.7237      46.7237 
  212000    130.71566   -7141.0179   -6466.5535   -541.89281     102002.7      46.7237      46.7237      46.7237 
  213000    130.33442    -7115.331   -6442.8338   -520.60233     102002.7      46.7237      46.7237      46.7237 
  214000    129.45709    -7140.526   -6472.5557   -655.74256     102002.7      46.7237      46.7237      46.7237 
  215000    130.27092   -7120.3503   -6448.1807   -767.25447     102002.7      46.7237      46.7237      46.7237 
  216000    127.68789   -7151.5948   -6492.7531   -615.87562     102002.7      46.7237      46.7237      46.7237 
  217000    129.46172   -7132.5536   -6464.5593   -684.93504     102002.7      46.7237      46.7237      46.7237 
  218000    130.66308   -7123.4239   -6449.2309   -653.25113     102002.7      46.7237      46.7237      46.7237 
  219000    128.42197   -7101.1392   -6438.5098   -757.20786     102002.7      46.7237      46.7237      46.7237 
  220000    130.62952   -7131.0191   -6456.9992   -527.38514     102002.7      46.7237      46.7237      46.7237 
  221000     126.8004   -7142.5358   -6488.2734    -790.1284     102002.7      46.7237      46.7237      46.7237 
  222000    128.17428   -7137.7796   -6476.4282    -672.7966     102002.7      46.7237      46.7237      46.7237 
  223000    130.59748   -7123.3114   -6449.4568    -395.5936     102002.7      46.7237      46.7237      46.7237 
  224000    132.93481   -7124.3745   -6438.4599   -610.07395     102002.7      46.7237      46.7237      46.7237 
  225000    126.65518   -7116.9469   -6463.4338   -608.78852     102002.7      46.7237      46.7237      46.7237 
  226000     128.9693   -7121.6088   -6456.1553   -661.86103     102002.7      46.7237      46.7237      46.7237 
  227000    128.95195   -7141.6932   -6476.3293   -696.25531     102002.7      46.7237      46.7237      46.7237 
  228000    129.78303   -7114.0764   -6444.4242   -815.95234     102002.7      46.7237      46.7237      46.7237 
  229000    129.56737   -7132.2457   -6463.7064   -887.58295     102002.7      46.7237      46.7237      46.7237 
  230000    130.00966   -7127.0979   -6456.2763   -907.19406     102002.7      46.7237      46.7237      46.7237 
  231000    131.07973   -7136.1229   -6459.7801   -1061.7371     102002.7      46.7237      46.7237      46.7237 
  232000    130.09451   -7114.0598   -6442.8005   -772.27719     102002.7      46.7237      46.7237      46.7237 
  233000    130.09778   -7149.5014   -6478.2252   -963.04641     102002.7      46.7237      46.7237      46.7237 
  234000    128.28173   -7097.4079   -6435.5021   -974.50746     102002.7      46.7237      46.7237      46.7237 
  235000    126.37614   -7131.5673   -6479.4939   -916.77203     102002.7      46.7237      46.7237      46.7237 
  236000    133.57169    -7135.905   -6446.7042    -695.4309     102002.7      46.7237      46.7237      46.7237 
  237000    128.42476   -7125.2808    -6462.637   -553.48559     102002.7      46.7237      46.7237      46.7237 
  238000    129.35626   -7118.2762    -6450.826   -879.57137     102002.7      46.7237      46.7237      46.7237 
  239000     129.7759   -7126.1558   -6456.5404   -543.07561     102002.7      46.7237      46.7237      46.7237 
  240000    128.48096    -7129.949   -6467.0152   -945.06115     102002.7      46.7237      46.7237      46.7237 
  241000    131.73071   -7121.0359   -6441.3341   -914.01837     102002.7      46.7237      46.7237      46.7237 
  242000    131.14996   -7111.0041   -6434.2989   -1268.6757     102002.7      46.7237      46.7237      46.7237 
  243000     127.9966   -7120.6755   -6460.2409   -906.66707     102002.7      46.7237      46.7237      46.7237 
  244000    130.02673   -7126.3077   -6455.3981   -771.76475     102002.7      46.7237      46.7237      46.7237 
  245000     127.5122     -7112.33   -6454.3948   -791.94369     102002.7      46.7237      46.7237      46.7237 
  246000    131.19999   -7141.0943    -6464.131   -1192.9669     102002.7      46.7237      46.7237      46.7237 
  247000    129.42456   -7130.9792   -6463.1767   -833.67194     102002.7      46.7237      46.7237      46.7237 
  248000    126.83229   -7099.8681   -6445.4411   -840.50495     102002.7      46.7237      46.7237      46.7237 
  249000    134.17409   -7129.8498   -6437.5407    -1145.621     102002.7      46.7237      46.7237      46.7237 
  250000    129.06134    -7135.093   -6469.1646   -718.15374     102002.7      46.7237      46.7237      46.7237 
  251000    128.18973   -7121.3367   -6459.9056   -997.87891     102002.7      46.7237      46.7237      46.7237 
  252000    132.59062   -7145.4792   -6461.3405   -631.34245     102002.7      46.7237      46.7237      46.7237 
  253000    129.19325   -7108.7163   -6442.1073   -650.14532     102002.7      46.7237      46.7237      46.7237 
  254000    133.39611   -7120.9306   -6432.6357   -579.12612     102002.7      46.7237      46.7237      46.7237 
  255000    126.72423   -7114.2326   -6460.3632   -816.58747     102002.7      46.7237      46.7237      46.7237 
  256000    132.85523   -7122.3793   -6436.8752   -769.63403     102002.7      46.7237      46.7237      46.7237 
  257000    130.25901   -7141.5784   -6469.4703   -659.66748     102002.7      46.7237      46.7237      46.7237 
  258000    131.06533   -7130.8244   -6454.5559   -869.56697     102002.7      46.7237      46.7237      46.7237 
  259000    131.38879   -7110.3943   -6432.4567    -410.6029     102002.7      46.7237      46.7237      46.7237 
  260000    130.90635   -7129.5608   -6454.1126   -988.17766     102002.7      46.7237      46.7237      46.7237 
  261000    126.82196   -7110.7204   -6456.3467    -783.4815     102002.7      46.7237      46.7237      46.7237 
  262000    135.60771   -7135.7039   -6435.9976   -717.65544     102002.7      46.7237      46.7237      46.7237 
  263000     131.5166   -7141.7777   -6463.1807    -618.9163     102002.7      46.7237      46.7237      46.7237 
  264000      135.174   -7127.1287   -6429.6603    -832.8597     102002.7      46.7237      46.7237      46.7237 
  265000    129.39321   -7123.1038    -6455.463    -1140.622     102002.7      46.7237      46.7237      46.7237 
  266000    129.30562   -7130.6943   -6463.5055   -770.81952     102002.7      46.7237      46.7237      46.7237 
  267000    130.12159   -7117.8473   -6446.4482   -486.47335     102002.7      46.7237      46.7237      46.7237 
  268000    126.97641   -7115.3655   -6460.1949   -877.07326     102002.7      46.7237      46.7237      46.7237 
  269000    128.80363   -7128.0558   -6463.4571   -835.90163     102002.7      46.7237      46.7237      46.7237 
  270000    131.59577   -7158.8698   -6479.8643    -668.0061     102002.7      46.7237      46.7237      46.7237 
  271000    130.49884   -7117.0259   -6443.6804   -847.25293     102002.7      46.7237      46.7237      46.7237 
  272000    131.80101    -7143.198   -6463.1335   -874.76361     102002.7      46.7237      46.7237      46.7237 
  273000    135.04566   -7110.7616   -6413.9554   -706.92689     102002.7      46.7237      46.7237      46.7237 
  274000    128.29387   -7131.8574    -6469.889    -760.7633     102002.7      46.7237      46.7237      46.7237 
  275000    131.71179   -7120.6161   -6441.0119   -310.95969     102002.7      46.7237      46.7237      46.7237 
  276000    127.14712   -7093.5871   -6437.5357   -650.91946     102002.7      46.7237      46.7237      46.7237 
  277000    127.86686   -7137.2823   -6477.5172   -550.93026     102002.7      46.7237      46.7237      46.7237 
  278000    126.50846   -7128.0298   -6475.2737   -658.24751     102002.7      46.7237      46.7237      46.7237 
  279000    131.42491   -7104.5561   -6426.4322   -496.32721     102002.7      46.7237      46.7237      46.7237 
  280000    129.63674   -7112.2397   -6443.3423   -561.54209     102002.7      46.7237      46.7237      46.7237 
  281000    128.37361   -7143.8383   -6481.4585   -819.72945     102002.7      46.7237      46.7237      46.7237 
  282000    128.99062   -7141.5039   -6475.9403   -601.23022     102002.7      46.7237      46.7237      46.7237 
  283000    125.30166   -7126.5571   -6480.0278   -337.20461     102002.7      46.7237      46.7237      46.7237 
  284000    135.01814   -7104.5685   -6407.9043   -948.34205     102002.7      46.7237      46.7237      46.7237 
  285000    129.85801   -7133.0557   -6463.0167   -790.56566     102002.7      46.7237      46.7237      46.7237 
  286000    129.51866   -7142.1672   -6473.8791   -426.41765     102002.7      46.7237      46.7237      46.7237 
  287000    127.43304   -7137.8724   -6480.3457   -874.54733     102002.7      46.7237      46.7237      46.7237 
  288000    129.97908    -7122.314   -6451.6502   -359.61745     102002.7      46.7237      46.7237      46.7237 
  289000    134.39997   -7106.4797   -6413.0051   -580.11983     102002.7      46.7237      46.7237      46.7237 
  290000    128.86377   -7143.0267   -6478.1177   -845.54291     102002.7      46.7237      46.7237      46.7237 
  291000    125.45963   -7114.4791   -6467.1348   -737.78934     102002.7      46.7237      46.7237      46.7237 
  292000    128.53721   -7128.9662   -6465.7421   -486.60321     102002.7      46.7237      46.7237      46.7237 
  293000    128.28282   -7113.3066   -6451.3952    -687.0456     102002.7      46.7237      46.7237      46.7237 
  294000    128.67828   -7148.9819     -6485.03   -570.98738     102002.7      46.7237      46.7237      46.7237 
  295000     126.1337   -7122.6844    -6471.862   -464.24772     102002.7      46.7237      46.7237      46.7237 
  296000    132.84999   -7109.6648   -6424.1878   -688.84266     102002.7      46.7237      46.7237      46.7237 
  297000    129.15088   -7131.9152   -6465.5248    -697.9481     102002.7      46.7237      46.7237      46.7237 
  298000    126.61986   -7137.9415   -6484.6106   -767.32776     102002.7      46.7237      46.7237      46.7237 
  299000    131.95036   -7123.5182   -6442.6831   -824.95873     102002.7      46.7237      46.7237      46.7237 
  300000    127.92285   -7119.8781   -6459.8241   -1026.8387     102002.7      46.7237      46.7237      46.7237 
  301000    128.34617   -7119.3552    -6457.117   -644.35978     102002.7      46.7237      46.7237      46.7237 
  302000    128.29779   -7129.3318   -6467.3431    -838.0942     102002.7      46.7237      46.7237      46.7237 
  303000    127.79231   -7107.8287   -6448.4482   -451.88937     102002.7      46.7237      46.7237      46.7237 
  304000     130.0816   -7140.1087    -6468.916    -709.1907     102002.7      46.7237      46.7237      46.7237 
  305000    126.10409   -7122.3878   -6471.7182   -578.61427     102002.7      46.7237      46.7237      46.7237 
  306000    133.31975   -7118.2936   -6430.3927     -517.566     102002.7      46.7237      46.7237      46.7237 
  307000    130.84288    -7147.825   -6472.7042   -566.90057     102002.7      46.7237      46.7237      46.7237 
  308000    130.77951   -7137.1931   -6462.3993   -749.20159     102002.7      46.7237      46.7237      46.7237 
  309000    133.14189   -7098.4786   -6411.4954   -670.57517     102002.7      46.7237      46.7237      46.7237 
  310000    129.22601   -7127.0849   -6460.3068   -754.69951     102002.7      46.7237      46.7237      46.7237 
  311000    133.06862   -7114.9234   -6428.3183   -706.45837     102002.7      46.7237      46.7237      46.7237 
  312000    131.66494   -7135.1159   -6455.7535    -911.9871     102002.7      46.7237      46.7237      46.7237 
  313000    133.14349   -7110.4211   -6423.4296    -779.9308     102002.7      46.7237      46.7237      46.7237 
  314000    129.69783   -7139.9557   -6470.7432   -663.96232     102002.7      46.7237      46.7237      46.7237 
  315000    131.79454   -7129.0037   -6448.9725   -767.67911     102002.7      46.7237      46.7237      46.7237 
  316000    129.67311   -7149.1218   -6480.0368   -808.64958     102002.7      46.7237      46.7237      46.7237 
  317000     131.9459   -7127.1972    -6446.385   -797.22468     102002.7      46.7237      46.7237      46.7237 
  318000    125.30756   -7112.0655   -6465.5058   -841.21685     102002.7      46.7237      46.7237      46.7237 
  319000    128.12588   -7124.1179   -6463.0163   -768.92091     102002.7      46.7237      46.7237      46.7237 
  320000    127.30523    -7109.446   -6452.5787   -919.20268     102002.7      46.7237      46.7237      46.7237 
  321000    123.83369   -7137.8747   -6498.9198   -836.16009     102002.7      46.7237      46.7237      46.7237 
  322000    128.54823   -7102.9892   -6439.7083   -326.84939     102002.7      46.7237      46.7237      46.7237 
  323000    128.59577   -7148.0211    -6484.495   -725.35608     102002.7      46.7237      46.7237      46.7237 
  324000    128.78848   -7128.0906     -6463.57   -387.72159     102002.7      46.7237      46.7237      46.7237 
  325000    128.55607   -7119.3211   -6455.9998   -699.01769     102002.7      46.7237      46.7237      46.7237 
  326000    130.50494   -7145.5081    -6472.131   -698.67986     102002.7      46.7237      46.7237      46.7237 
  327000    135.08496   -7125.8214   -6428.8124   -667.65889     102002.7      46.7237      46.7237      46.7237 
  328000    128.81564   -7135.1608   -6470.5001   -656.27035     102002.7      46.7237      46.7237      46.7237 
  329000    127.65215   -7120.0018   -6461.3445   -979.48851     102002.7      46.7237      46.7237      46.7237 
  330000    128.07038   -7114.2722   -6453.4569   -644.77623     102002.7      46.7237      46.7237      46.7237 
  331000     125.7788   -7130.8802    -6481.889   -485.73663     102002.7      46.7237      46.7237      46.7237 
  332000    128.77944   -7127.1793   -6462.7055   -834.34227     102002.7      46.7237      46.7237      46.7237 
  333000    131.34771   -7109.0271   -6431.3016   -566.21731     102002.7      46.7237      46.7237      46.7237 
  334000    130.74738   -7145.0388   -6470.4108   -665.81916     102002.7      46.7237      46.7237      46.7237 
  335000    127.30386   -7143.4509   -6486.5908   -689.33281     102002.7      46.7237      46.7237      46.7237 
  336000     130.3075    -7108.688   -6436.3296   -806.84965     102002.7      46.7237      46.7237      46.7237 
  337000     129.9438   -7134.4909   -6464.0092   -787.54585     102002.7      46.7237      46.7237      46.7237 
  338000    129.02593   -7154.3466   -6488.6009   -627.27774     102002.7      46.7237      46.7237      46.7237 
  339000    128.43112   -7122.0138   -6459.3372     -708.379     102002.7      46.7237      46.7237      46.7237 
  340000    133.16603   -7142.8155   -6455.7078   -799.81615     102002.7      46.7237      46.7237      46.7237 
  341000    128.84106   -7120.7677   -6455.9759   -709.02845     102002.7      46.7237      46.7237      46.7237 
  342000    133.48742   -7108.7048   -6419.9388   -429.55021     102002.7      46.7237      46.7237      46.7237 
  343000    132.78487   -7134.8903   -6449.7493   -452.04952     102002.7      46.7237      46.7237      46.7237 
  344000    127.13397   -7137.5259   -6481.5423   -837.02853     102002.7      46.7237      46.7237      46.7237 
  345000    128.42819   -7127.2015     -6464.54   -766.59884     102002.7      46.7237      46.7237      46.7237 
  346000    132.46428   -7108.9157   -6425.4288   -590.23516     102002.7      46.7237      46.7237      46.7237 
  347000    130.44188   -7142.9415   -6469.8898   -945.79846     102002.7      46.7237      46.7237      46.7237 
  348000    127.46776   -7147.2965   -6489.5906   -659.91968     102002.7      46.7237      46.7237      46.7237 
  349000    127.94639   -7122.5218   -6462.3463   -516.16356     102002.7      46.7237      46.7237      46.7237 
  350000    134.58206   -7101.1622   -6406.7481   -1045.7026     102002.7      46.7237      46.7237      46.7237 
  351000    127.65196   -7132.8894   -6474.2332   -833.53723     102002.7      46.7237      46.7237      46.7237 
  352000    124.18434    -7125.505   -6484.7409   -854.51334     102002.7      46.7237      46.7237      46.7237 
  353000    131.77419   -7131.9063   -6451.9802   -984.45245     102002.7      46.7237      46.7237      46.7237 
  354000    128.88209   -7158.8987   -6493.8952   -857.51661     102002.7      46.7237      46.7237      46.7237 
  355000    126.95226   -7103.8456   -6448.7996    -879.9735     102002.7      46.7237      46.7237      46.7237 
  356000     128.0537   -7134.1031   -6473.3739   -849.72447     102002.7      46.7237      46.7237      46.7237 
  357000     134.4838    -7133.976   -6440.0689   -814.29618     102002.7      46.7237      46.7237      46.7237 
  358000    131.50531   -7132.5695   -6454.0308   -760.16517     102002.7      46.7237      46.7237      46.7237 
  359000     130.0925   -7088.9375   -6417.6885   -820.42021     102002.7      46.7237      46.7237      46.7237 
  360000    129.03469   -7129.9541   -6464.1632   -949.23354     102002.7      46.7237      46.7237      46.7237 
  361000    132.47168   -7115.7097   -6432.1847    -581.7246     102002.7      46.7237      46.7237      46.7237 
  362000    131.33165   -7129.0942   -6451.4516   -334.46649     102002.7      46.7237      46.7237      46.7237 
  363000    131.83797   -7121.8889   -6441.6337   -582.62315     102002.7      46.7237      46.7237      46.7237 
  364000    131.21798   -7120.4674   -6443.4112   -860.04901     102002.7      46.7237      46.7237      46.7237 
  365000    128.69165   -7127.5582   -6463.5373   -594.95065     102002.7      46.7237      46.7237      46.7237 
  366000    130.90849   -7115.3382   -6439.8789   -688.63185     102002.7      46.7237      46.7237      46.7237 
  367000    129.30124   -7140.6617   -6473.4955    -665.2702     102002.7      46.7237      46.7237      46.7237 
  368000    128.55188    -7154.458   -6491.1583   -609.75816     102002.7      46.7237      46.7237      46.7237 
  369000    131.06146   -7139.3765   -6463.1279   -550.95884     102002.7      46.7237      46.7237      46.7237 
  370000    130.14608    -7118.459   -6446.9336   -1173.6998     102002.7      46.7237      46.7237      46.7237 
  371000    124.69799   -7140.2887   -6496.8743   -462.37997     102002.7      46.7237      46.7237      46.7237 
  372000    129.91323   -7127.2873   -6456.9633   -979.22348     102002.7      46.7237      46.7237      46.7237 
  373000    133.27956   -7113.6381   -6425.9446   -966.45466     102002.7      46.7237      46.7237      46.7237 
  374000    131.93316   -7147.0983   -6466.3519   -766.74671     102002.7      46.7237      46.7237      46.7237 
  375000    131.77476   -7121.6008   -6441.6717   -854.37379     102002.7      46.7237      46.7237      46.7237 
  376000    127.35677   -7127.3408   -6470.2076   -455.32934     102002.7      46.7237      46.7237      46.7237 
  377000    131.10328   -7121.0184   -6444.5541   -752.57148     102002.7      46.7237      46.7237      46.7237 
  378000    127.46612   -7111.0067   -6453.3093   -802.57939     102002.7      46.7237      46.7237      46.7237 
  379000    134.25496   -7109.4538   -6416.7274   -653.29792     102002.7      46.7237      46.7237      46.7237 
  380000    129.35907   -7125.7951   -6458.3305   -785.02249     102002.7      46.7237      46.7237      46.7237 
  381000    128.72158    -7143.937   -6479.7617   -798.51219     102002.7      46.7237      46.7237      46.7237 
  382000    130.55712    -7123.243   -6449.5967   -890.63374     102002.7      46.7237      46.7237      46.7237 
  383000    127.36364   -7113.4693   -6456.3006   -661.75226     102002.7      46.7237      46.7237      46.7237 
  384000    125.90837     -7128.51   -6478.8503   -780.12694     102002.7      46.7237      46.7237      46.7237 
  385000     129.2637    -7123.686   -6456.7135   -728.80424     102002.7      46.7237      46.7237      46.7237 
  386000    133.42559   -7128.1201   -6439.6731   -788.06444     102002.7      46.7237      46.7237      46.7237 
  387000    124.34706   -7123.8986   -6482.2948   -880.06056     102002.7      46.7237      46.7237      46.7237 
  388000    129.24881   -7136.3216   -6469.4259   -669.46018     102002.7      46.7237      46.7237      46.7237 
  389000    132.81223   -7115.0582   -6429.7761   -971.52658     102002.7      46.7237      46.7237      46.7237 
  390000    130.81532   -7132.5633   -6457.5847   -929.72738     102002.7      46.7237      46.7237      46.7237 
  391000    126.12315   -7131.7885   -6481.0205   -721.35894     102002.7      46.7237      46.7237      46.7237 
  392000     129.3749   -7127.4303    -6459.884   -687.70017     102002.7      46.7237      46.7237      46.7237 
  393000     129.6502   -7116.2466   -6447.2798   -627.07417     102002.7      46.7237      46.7237      46.7237 
  394000    128.94683   -7128.4275   -6463.0899   -906.28856     102002.7      46.7237      46.7237      46.7237 
  395000    132.38688   -7120.8416   -6437.7541   -634.58731     102002.7      46.7237      46.7237      46.7237 
  396000    128.06042   -7156.2916   -6495.5278    -694.4371     102002.7      46.7237      46.7237      46.7237 
  397000    131.29648    -7120.014   -6442.5528   -809.79701     102002.7      46.7237      46.7237      46.7237 
  398000    126.54169   -7132.5011   -6479.5735    -555.1945     102002.7      46.7237      46.7237      46.7237 
  399000    126.52467   -7138.6739   -6485.8341   -520.36653     102002.7      46.7237      46.7237      46.7237 
  400000    131.02398   -7115.8768   -6439.8216   -636.78609     102002.7      46.7237      46.7237      46.7237 
  401000    130.34066   -7136.2384    -6463.709   -517.49477     102002.7      46.7237      46.7237      46.7237 
  402000    132.33423   -7104.1177   -6421.3019   -771.97302     102002.7      46.7237      46.7237      46.7237 
  403000    128.46322   -7128.1455   -6465.3033   -432.92682     102002.7      46.7237      46.7237      46.7237 
  404000    136.09338   -7128.9179   -6426.7057   -676.20739     102002.7      46.7237      46.7237      46.7237 
  405000    132.73193   -7135.2542   -6450.3864   -637.66732     102002.7      46.7237      46.7237      46.7237 
  406000    131.87762   -7147.5679   -6467.1081   -782.16988     102002.7      46.7237      46.7237      46.7237 
  407000    131.26353   -7131.4419   -6454.1507   -586.03578     102002.7      46.7237      46.7237      46.7237 
  408000    128.10907   -7096.8003   -6435.7854   -763.25904     102002.7      46.7237      46.7237      46.7237 
  409000     126.1544   -7123.9325   -6473.0033   -715.09712     102002.7      46.7237      46.7237      46.7237 
  410000    133.50608   -7111.0976   -6422.2353   -677.91298     102002.7      46.7237      46.7237      46.7237 
  411000    127.48114   -7094.7566   -6436.9816   -1014.1547     102002.7      46.7237      46.7237      46.7237 
  412000    128.84936   -7144.0591   -6479.2245   -505.18768     102002.7      46.7237      46.7237      46.7237 
  413000    132.43677   -7123.1195   -6439.7746   -848.35587     102002.7      46.7237      46.7237      46.7237 
  414000    131.19543   -7133.1039    -6456.164   -812.15763     102002.7      46.7237      46.7237      46.7237 
  415000    126.33563   -7123.3445   -6471.4801   -926.86529     102002.7      46.7237      46.7237      46.7237 
  416000    131.70269   -7115.9746   -6436.4175   -571.66884     102002.7      46.7237      46.7237      46.7237 
  417000    121.10304   -7144.4587   -6519.5934   -842.69906     102002.7      46.7237      46.7237      46.7237 
  418000    132.01805   -7119.9812   -6438.7968   -794.70631     102002.7      46.7237      46.7237      46.7237 
  419000     131.3507   -7105.8304   -6428.0894   -903.44915     102002.7      46.7237      46.7237      46.7237 
  420000    129.04752   -7131.0338   -6465.1767   -553.57157     102002.7      46.7237      46.7237      46.7237 
  421000     128.8942   -7125.6754   -6460.6094   -740.42198     102002.7      46.7237      46.7237      46.7237 
  422000    131.10801    -7100.443   -6423.9543   -593.79826     102002.7      46.7237      46.7237      46.7237 
  423000    131.16157   -7145.6447   -6468.8796   -669.05632     102002.7      46.7237      46.7237      46.7237 
  424000    131.15426   -7121.8494    -6445.122   -528.24417     102002.7      46.7237      46.7237      46.7237 
  425000    130.01138   -7149.7671   -6478.9367   -568.90312     102002.7      46.7237      46.7237      46.7237 
  426000    132.49641    -7138.172   -6454.5194   -1032.7533     102002.7      46.7237      46.7237      46.7237 
  427000    127.98643   -7134.8384   -6474.4562   -983.96073     102002.7      46.7237      46.7237      46.7237 
  428000    130.83817   -7141.7572   -6466.6607   -928.69475     102002.7      46.7237      46.7237      46.7237 
  429000    132.70619   -7097.2019   -6412.4669   -727.14392     102002.7      46.7237      46.7237      46.7237 
  430000    128.78165   -7129.3978   -6464.9126   -495.00184     102002.7      46.7237      46.7237      46.7237 
  431000    132.23851   -7094.5449    -6412.223   -501.00919     102002.7      46.7237      46.7237      46.7237 
  432000    131.08523   -7126.7955   -6450.4243   -1217.7757     102002.7      46.7237      46.7237      46.7237 
  433000    134.21791   -7096.0228   -6403.4876   -677.88444     102002.7      46.7237      46.7237      46.7237 
  434000    131.33921    -7138.765   -6461.0832   -841.07443     102002.7      46.7237      46.7237      46.7237 
  435000    131.64789   -7130.4724    -6451.198   -789.15047     102002.7      46.7237      46.7237      46.7237 
  436000    126.49245   -7107.7254   -6455.0519   -1008.4361     102002.7      46.7237      46.7237      46.7237 
  437000    127.16722   -7122.1094   -6465.9543   -1089.6158     102002.7      46.7237      46.7237      46.7237 
  438000    130.34627   -7114.2577   -6441.6993   -939.39341     102002.7      46.7237      46.7237      46.7237 
  439000    128.12347   -7145.8578   -6484.7686   -499.37769     102002.7      46.7237      46.7237      46.7237 
  440000    128.69415   -7136.9799   -6472.9461   -453.55824     102002.7      46.7237      46.7237      46.7237 
  441000    132.51741   -7135.5033   -6451.7424   -741.76503     102002.7      46.7237      46.7237      46.7237 
  442000     132.5957    -7112.618    -6428.453   -470.23882     102002.7      46.7237      46.7237      46.7237 
  443000    134.67261   -7117.6582   -6422.7769   -705.69325     102002.7      46.7237      46.7237      46.7237 
  444000    131.36972   -7150.6731   -6472.8339   -321.08661     102002.7      46.7237      46.7237      46.7237 
  445000    125.50198   -7132.4309    -6484.868    -599.9636     102002.7      46.7237      46.7237      46.7237 
  446000     134.8174   -7131.8494    -6436.221   -914.33637     102002.7      46.7237      46.7237      46.7237 
  447000    126.75281   -7109.3342   -6455.3172    -681.6194     102002.7      46.7237      46.7237      46.7237 
  448000    126.93419   -7124.2539   -6469.3012   -822.13863     102002.7      46.7237      46.7237      46.7237 
  449000     132.9945   -7145.7007   -6459.4781   -796.29536     102002.7      46.7237      46.7237      46.7237 
  450000    129.06586   -7115.3677    -6449.416   -770.64928     102002.7      46.7237      46.7237      46.7237 
  451000     129.5134   -7113.5488   -6445.2878    -622.2689     102002.7      46.7237      46.7237      46.7237 
  452000    127.77623   -7131.1499   -6471.8523   -710.16094     102002.7      46.7237      46.7237      46.7237 
  453000    128.52264   -7137.6851   -6474.5362   -491.68974     102002.7      46.7237      46.7237      46.7237 
  454000     130.0489   -7118.0594   -6447.0353   -854.23171     102002.7      46.7237      46.7237      46.7237 
  455000    131.04595   -7127.3672   -6451.1986   -635.25303     102002.7      46.7237      46.7237      46.7237 
  456000    124.87556    -7114.108   -6469.7773   -543.70546     102002.7      46.7237      46.7237      46.7237 
  457000    135.94665   -7135.1399   -6433.6848   -772.70899     102002.7      46.7237      46.7237      46.7237 
  458000    123.82746   -7101.2319   -6462.3092   -628.88145     102002.7      46.7237      46.7237      46.7237 
  459000    129.12472   -7132.0318   -6465.7764   -777.10306     102002.7      46.7237      46.7237      46.7237 
  460000    133.48979    -7132.296   -6443.5178   -1031.0927     102002.7      46.7237      46.7237      46.7237 
  461000    134.45117   -7138.7217    -6444.983   -787.56358     102002.7      46.7237      46.7237      46.7237 
  462000    132.08537    -7141.605   -6460.0732   -631.08496     102002.7      46.7237      46.7237      46.7237 
  463000    127.34694   -7128.6795    -6471.597   -745.22139     102002.7      46.7237      46.7237      46.7237 
  464000    127.34273   -7132.7756   -6475.7148   -491.93101     102002.7      46.7237      46.7237      46.7237 
  465000    132.14913   -7139.7553   -6457.8946   -908.33922     102002.7      46.7237      46.7237      46.7237 
  466000    130.37425   -7134.9466   -6462.2438   -779.74859     102002.7      46.7237      46.7237      46.7237 
  467000    128.08497   -7113.8333   -6452.9427   -1020.9581     102002.7      46.7237      46.7237      46.7237 
  468000    124.99233   -7133.1081   -6488.1748   -741.93634     102002.7      46.7237      46.7237      46.7237 
  469000    131.86638   -7130.5566   -6450.1548   -505.33422     102002.7      46.7237      46.7237      46.7237 
  470000    125.95577   -7132.8018   -6482.8975   -611.15325     102002.7      46.7237      46.7237      46.7237 
  471000    126.27799   -7127.0748   -6475.5078   -660.87937     102002.7      46.7237      46.7237      46.7237 
  472000     132.2044   -7135.9858   -6453.8399   -384.37393     102002.7      46.7237      46.7237      46.7237 
  473000    123.46891   -7119.3605   -6482.2878   -869.05227     102002.7      46.7237      46.7237      46.7237 
  474000    132.01726   -7115.2387   -6434.0584   -620.64464     102002.7      46.7237      46.7237      46.7237 
  475000    128.51088   -7140.6137   -6477.5255   -774.34814     102002.7      46.7237      46.7237      46.7237 
  476000    129.22739   -7121.6756   -6454.8904   -610.55433     102002.7      46.7237      46.7237      46.7237 
  477000      132.136   -7118.9245   -6437.1316   -601.78096     102002.7      46.7237      46.7237      46.7237 
  478000    127.83153   -7120.2363   -6460.6535   -734.87947     102002.7      46.7237      46.7237      46.7237 
  479000    130.37016   -7114.8032   -6442.1216   -622.19972     102002.7      46.7237      46.7237      46.7237 
  480000    129.58334   -7158.5847   -6489.9629   -724.80669     102002.7      46.7237      46.7237      46.7237 
  481000    127.85181    -7111.063   -6451.3755   -981.14496     102002.7      46.7237      46.7237      46.7237 
  482000    136.58528   -7124.1733    -6419.423    -571.6116     102002.7      46.7237      46.7237      46.7237 
  483000    128.06202   -7140.1077   -6479.3356   -943.67303     102002.7      46.7237      46.7237      46.7237 
  484000    132.89907   -7126.7449   -6441.0147    -728.6447     102002.7      46.7237      46.7237      46.7237 
  485000    133.99391    -7125.818   -6434.4387   -804.44578     102002.7      46.7237      46.7237      46.7237 
  486000    128.25973   -7132.3341   -6470.5419   -619.31922     102002.7      46.7237      46.7237      46.7237 
  487000    132.42896   -7128.8015   -6445.4969   -745.77235     102002.7      46.7237      46.7237      46.7237 
  488000    131.26247   -7128.3878   -6451.1021   -222.49275     102002.7      46.7237      46.7237      46.7237 
  489000    129.86148   -7147.1257   -6477.0688   -458.34333     102002.7      46.7237      46.7237      46.7237 
  490000      128.896   -7120.0509   -6454.9756   -425.00709     102002.7      46.7237      46.7237      46.7237 
  491000    130.00931   -7127.0576   -6456.2379   -690.08017     102002.7      46.7237      46.7237      46.7237 
  492000    128.78938   -7142.4068   -6477.8817   -638.19162     102002.7      46.7237      46.7237      46.7237 
  493000    128.55639   -7104.2024   -6440.8795   -406.37725     102002.7      46.7237      46.7237      46.7237 
  494000    133.93515   -7125.9684   -6434.8922   -554.25833     102002.7      46.7237      46.7237      46.7237 
  495000     133.2548   -7135.9417    -6448.376   -780.35338     102002.7      46.7237      46.7237      46.7237 
  496000    128.80325   -7126.0125   -6461.4158   -647.79462     102002.7      46.7237      46.7237      46.7237 
  497000    132.60207   -7117.8674   -6433.6696   -491.32555     102002.7      46.7237      46.7237      46.7237 
  498000    129.76685   -7130.1793   -6460.6107   -781.67055     102002.7      46.7237      46.7237      46.7237 
  499000    133.45387   -7133.0461   -6444.4532    -680.3099     102002.7      46.7237      46.7237      46.7237 
  500000    131.35226   -7131.2562   -6453.5071   -944.23505     102002.7      46.7237      46.7237      46.7237 
  500503    125.44289   -7141.4406   -6494.1826   -951.04232     102002.7      46.7237      46.7237      46.7237 
Loop time of 1265.27 on 16 procs for 500000 steps with 1732 atoms

Performance: 34.143 ns/day, 0.703 hours/ns, 395.171 timesteps/s
99.9% CPU use with 16 MPI tasks x no OpenMP threads

MPI task timing breakdown:
Section |  min time  |  avg time  |  max time  |%varavg| %total
---------------------------------------------------------------
Pair    | 522.33     | 686.02     | 852.55     | 422.5 | 54.22
Bond    | 165.77     | 174.22     | 183.04     |  32.6 | 13.77
Neigh   | 3.9328     | 3.9599     | 3.9855     |   0.9 |  0.31
Comm    | 221        | 388.17     | 543.07     | 550.9 | 30.68
Output  | 0.020906   | 0.021342   | 0.024873   |   0.6 |  0.00
Modify  | 6.8045     | 7.6857     | 8.3496     |  19.6 |  0.61
Other   |            | 5.193      |            |       |  0.41

Nlocal:    108.25 ave 136 max 87 min
Histogram: 4 0 2 1 4 1 1 0 1 2
Nghost:    2200.88 ave 2223 max 2169 min
Histogram: 1 1 2 1 1 1 2 1 5 1
Neighs:    11462.4 ave 16920 max 7415 min
Histogram: 2 3 2 0 1 4 1 1 0 2

Total # of neighbors = 183399
Ave neighs/atom = 105.889
Ave special neighs/atom = 6.65127
Neighbor list builds = 3468
Dangerous builds = 0
Neighbor list info ...
  update every 1 steps, delay 10 steps, check yes
  max neighbors/atom: 2000, page size: 100000
  master list distance cutoff = 16
  ghost atom cutoff = 16
  binsize = 8, bins = 6 6 6
  3 neighbor lists, perpetual/occasional/extra = 3 0 0
  (1) pair buck6d/coul/gauss/dsf, perpetual, skip from (3)
      attributes: half, newton on
      pair build: skip
      stencil: none
      bin: none
  (2) pair lj/cut, perpetual, skip from (3)
      attributes: half, newton on
      pair build: skip
      stencil: none
      bin: none
  (3) neighbor class addition, perpetual
      attributes: half, newton on
      pair build: half/bin/newton
      stencil: half/bin/3d/newton
      bin: standard
Setting up Verlet run ...
  Unit style    : real
  Current step  : 500503
  Time step     : 1
WARNING: Inconsistent image flags (../domain.cpp:786)
Per MPI rank memory allocation (min/avg/max) = 23.03 | 23.3 | 23.34 Mbytes
Step Time TotEng KinEng PotEng E_mol E_pair Temp Pxx Pyy Pzz Pxy Pxz Pyz Cella Cellb Cellc CellAlpha CellBeta CellGamma Volume Press 
  500503       500000   -6494.1826      647.258   -7141.4406    4411.4063   -11552.847    125.44289    -751.9382   -1188.7351    -912.4537    90.554059   -69.318731   -3.8029197      46.7237      46.7237      46.7237           90           90           90     102002.7   -951.04232 
  501000       500497    -6472.788     661.5524   -7134.3404    4435.9489   -11570.289    128.21324   -1027.8465   -1243.6866   -1392.0421    251.58601    2.0601376    95.753667      46.7237      46.7237      46.7237           90           90           90     102002.7   -1221.1917 
  502000       501497   -6432.5921    703.58653   -7136.1787    4395.7985   -11531.977    136.35973    -959.6743   -864.06952   -1122.2406     25.46503    -27.85485    73.563029      46.7237      46.7237      46.7237           90           90           90     102002.7   -981.99479 
  503000       502497   -6485.1199    650.54587   -7135.6657    4402.1964   -11537.862     126.0801   -1361.2213   -1070.9653   -946.62725   -295.08989    109.74486   -77.507385      46.7237      46.7237      46.7237           90           90           90     102002.7   -1126.2713 
  504000       503497   -6455.7965    680.73366   -7136.5302    4406.2849   -11542.815     131.9307   -575.49447   -579.50092   -1162.1082    115.42886   -136.16979   -47.195575      46.7237      46.7237      46.7237           90           90           90     102002.7   -772.36788 
  505000       504497   -6457.0819    675.75057   -7132.8325    4420.7279    -11553.56    130.96494   -553.65708   -574.88876   -1099.2628    9.3213943   -51.174798    150.51825      46.7237      46.7237      46.7237           90           90           90     102002.7   -742.60287 
  506000       505497   -6466.0199    664.19636   -7130.2162    4387.5711   -11517.787    128.72566   -885.95126   -880.30722   -391.29392   -2.1270768    163.11005    27.007061      46.7237      46.7237      46.7237           90           90           90     102002.7   -719.18413 
  507000       506497   -6419.5167    688.96938   -7108.4861    4435.0039    -11543.49    133.52683   -1154.3692   -849.47243   -669.78208   -30.171021   -9.9547053    122.20211      46.7237      46.7237      46.7237           90           90           90     102002.7    -891.2079 
  508000       507497   -6471.5639    656.22682   -7127.7907    4396.1298   -11523.921    127.18111   -625.66506    -1169.071   -467.09867   -209.33238    199.99782    -190.5945      46.7237      46.7237      46.7237           90           90           90     102002.7   -753.94491 
  509000       508497    -6475.892     661.4603   -7137.3523    4419.1314   -11556.484    128.19539   -972.91095   -1449.9584   -968.54729   -181.04797   -257.52904    187.70741      46.7237      46.7237      46.7237           90           90           90     102002.7   -1130.4722 
  510000       509497   -6434.9868    696.82911   -7131.8159    4394.2274   -11526.043     135.0501   -855.56444   -534.59112   -462.44426    124.15219   -68.380401    38.661823      46.7237      46.7237      46.7237           90           90           90     102002.7   -617.53327 
  511000       510497   -6479.4076    660.41526   -7139.8229    4410.5162   -11550.339    127.99286   -710.80354   -636.03395   -485.93649    222.97993    106.29466    31.962862      46.7237      46.7237      46.7237           90           90           90     102002.7   -610.92466 
  512000       511497   -6473.1013    646.48446   -7119.5858    4416.7858   -11536.372    125.29297   -324.11219   -742.32375   -903.82257   -227.99269    80.704058    88.782455      46.7237      46.7237      46.7237           90           90           90     102002.7   -656.75284 
  513000       512497   -6427.8872    678.09049   -7105.9777    4443.3472   -11549.325    131.41843   -1197.0188   -908.20179    -1430.544     26.21612   -318.32595     179.6682      46.7237      46.7237      46.7237           90           90           90     102002.7   -1178.5882 
  514000       513497   -6429.0985    697.85605   -7126.9546    4396.0831   -11523.038    135.24913   -1290.7368   -655.50058   -565.09556    -91.81833   -122.92387    9.4290617      46.7237      46.7237      46.7237           90           90           90     102002.7   -837.11099 
  515000       514497   -6492.4794    671.64903   -7164.1284    4394.2807   -11558.409    130.17004   -789.38612   -1375.9359   -1182.7622   -311.27416   -136.36313   -57.848602      46.7237      46.7237      46.7237           90           90           90     102002.7   -1116.0281 
  516000       515497   -6457.3753     668.9861   -7126.3614    4412.5083    -11538.87    129.65394   -1396.1185   -788.83737   -930.78749   -108.79546   -37.256761    64.744321      46.7237      46.7237      46.7237           90           90           90     102002.7   -1038.5811 
  517000       516497   -6444.9318    693.16628   -7138.0981    4401.6453   -11539.743    134.34022   -1065.1629   -1126.3124    -403.6721   -119.27214   -150.48214   -45.561071      46.7237      46.7237      46.7237           90           90           90     102002.7   -865.04915 
  518000       517497   -6459.5417    672.55252   -7132.0942    4416.9209   -11549.015    130.34514   -843.57339   -855.08358   -874.26494    -130.8097   -240.35641    91.394445      46.7237      46.7237      46.7237           90           90           90     102002.7   -857.64064 
  519000       518497   -6438.9025    685.70354   -7124.6061    4407.5534    -11532.16    132.89389   -810.97389   -545.20776   -740.19781   -243.22781    113.43155    106.71456      46.7237      46.7237      46.7237           90           90           90     102002.7   -698.79316 
  520000       519497   -6466.0076    670.88628   -7136.8938    4400.1715   -11537.065    130.02221   -760.25767   -542.32968   -620.25866    9.5489574   -117.57055    3.0767401      46.7237      46.7237      46.7237           90           90           90     102002.7   -640.94867 
  521000       520497   -6484.2768    676.88634   -7161.1631    4386.6988   -11547.862    131.18506   -904.43961   -678.87847   -715.04006    23.507944    -135.9431   -9.0628611      46.7237      46.7237      46.7237           90           90           90     102002.7   -766.11938 
  522000       521497   -6455.7715    671.45502   -7127.2265    4410.7999   -11538.026    130.13243   -668.39615   -851.12279   -715.46676    135.69723     36.19056   -177.86014      46.7237      46.7237      46.7237           90           90           90     102002.7   -744.99523 
  523000       522497   -6498.9439     645.8916   -7144.8355    4386.0274   -11530.863    125.17807   -600.65858   -903.88301   -1003.8992    10.756867    59.108606    264.50948      46.7237      46.7237      46.7237           90           90           90     102002.7   -836.14692 
  524000       523497   -6473.8649     666.5129   -7140.3777    4403.6783   -11544.056    129.17462   -612.86284   -817.82609    -598.6475    4.1399865    119.19447    249.76591      46.7237      46.7237      46.7237           90           90           90     102002.7   -676.44548 
  525000       524497   -6435.9585    683.59183   -7119.5503    4438.5482   -11558.099    132.48463    -1042.323   -1339.5864   -1029.4246   -135.61156    74.540555    131.58845      46.7237      46.7237      46.7237           90           90           90     102002.7   -1137.1113 
  526000       525497   -6453.8268    659.49931   -7113.3261    4408.8914   -11522.217    127.81534   -1037.6334   -824.47157   -630.59764    80.852503    -140.6574    56.980378      46.7237      46.7237      46.7237           90           90           90     102002.7   -830.90086 
  527000       526497   -6456.6782     673.4122   -7130.0904     4421.523   -11551.613    130.51175   -832.38192   -1103.3988   -499.23526     15.79885    141.97908    27.676262      46.7237      46.7237      46.7237           90           90           90     102002.7     -811.672 
  528000       527497    -6460.104    675.04093   -7135.1449    4416.0635   -11551.208    130.82741   -1005.1154   -497.91419     -594.216    -240.2689   -58.012265   -149.94085      46.7237      46.7237      46.7237           90           90           90     102002.7   -699.08186 
  529000       528497   -6477.0327    664.23614   -7141.2688    4407.7004   -11548.969    128.73337   -429.65491     -1060.91   -493.91788    23.009403   -152.60331   -14.831668      46.7237      46.7237      46.7237           90           90           90     102002.7   -661.49427 
  530000       529497   -6434.3408    695.63579   -7129.9766    4409.6946   -11539.671    134.81883   -734.55135    -783.7497   -1042.3371   -80.527201    39.592448    218.12717      46.7237      46.7237      46.7237           90           90           90     102002.7   -853.54604 
  531000       530497   -6444.3848    677.88409   -7122.2689     4428.262   -11550.531    131.37843   -752.71537   -497.63094   -718.05994    92.686503    48.455624    35.794641      46.7237      46.7237      46.7237           90           90           90     102002.7   -656.13542 
  532000       531497   -6479.1854    668.08583   -7147.2712    4406.4527   -11553.724    129.47946     219.8983   -952.47754   -472.23478    2.8222663   -10.823285    85.636483      46.7237      46.7237      46.7237           90           90           90     102002.7   -401.60467 
  533000       532497   -6437.6565    678.60695   -7116.2634    4403.5552   -11519.819    131.51853   -302.22296   -676.94553   -176.40328   -118.10888    154.01093   -226.77141      46.7237      46.7237      46.7237           90           90           90     102002.7   -385.19059 
  534000       533497   -6471.3344    666.66004   -7137.9945    4405.0082   -11543.003    129.20314    -582.1373   -579.50533   -648.54106    128.46005    110.68646   -86.498047      46.7237      46.7237      46.7237           90           90           90     102002.7   -603.39456 
  535000       534497   -6438.6388    673.57961   -7112.2184    4407.4084   -11519.627    130.54419   -485.60218   -564.23437   -581.89491   -133.07624    71.626115    244.99378      46.7237      46.7237      46.7237           90           90           90     102002.7   -543.91049 
  536000       535497   -6456.9051    677.13577   -7134.0409    4410.1814   -11544.222     131.2334   -460.46595   -442.27011   -584.48363    212.99218    147.10721   -156.88313      46.7237      46.7237      46.7237           90           90           90     102002.7    -495.7399 
  537000       536497   -6471.2066    663.94167   -7135.1483    4389.8433   -11524.992     128.6763   -353.78445    -433.8521   -341.59397    61.754908    45.851582   -163.61126      46.7237      46.7237      46.7237           90           90           90     102002.7   -376.41017 
  538000       537497   -6437.2117    669.91881   -7107.1305    4419.2769   -11526.407    129.83471   -257.80661   -588.79063   -526.92107    184.36326    190.36375   -30.892252      46.7237      46.7237      46.7237           90           90           90     102002.7   -457.83944 
  539000       538497   -6481.6262    664.04731   -7145.6735    4405.3764    -11551.05    128.69677   -320.68133   -84.214551   -849.42355    -10.83439    162.26459   -104.71532      46.7237      46.7237      46.7237           90           90           90     102002.7   -418.10647 
  540000       539497    -6464.178    677.47596    -7141.654     4413.048   -11554.702    131.29933   -337.00999   -416.51869   -234.68619    71.846494    21.796945   -380.07588      46.7237      46.7237      46.7237           90           90           90     102002.7   -329.40496 
  541000       540497    -6457.274    657.94479   -7115.2187    4402.5257   -11517.744    127.51406    126.67825   -474.46015   -640.27255    41.197157   -197.39533   -12.705291      46.7237      46.7237      46.7237           90           90           90     102002.7   -329.35148 
  542000       541497   -6509.4297    658.49659   -7167.9263    4363.5131   -11531.439      127.621   -348.56941   -539.26085   -520.11674   -157.74966   -41.047171   -369.60396      46.7237      46.7237      46.7237           90           90           90     102002.7   -469.31567 
  543000       542497   -6452.6186    669.81356   -7122.4321    4427.7917   -11550.224    129.81431   -1181.5832   -1134.5135   -143.39024   -85.558072   -22.046619    140.51373      46.7237      46.7237      46.7237           90           90           90     102002.7   -819.82898 
  544000       543497   -6455.5398    678.80943   -7134.3493    4409.7763   -11544.126    131.55777   -426.48004   -689.75228   -510.63833   -25.139245    181.21681    114.65986      46.7237      46.7237      46.7237           90           90           90     102002.7   -542.29022 
  545000       544497   -6443.7832    674.94435   -7118.7276    4417.0781   -11535.806    130.80869   -510.56795   -682.60903   -700.41363   -67.430511    186.04486    259.54379      46.7237      46.7237      46.7237           90           90           90     102002.7   -631.19687 
  546000       545497   -6438.3696    677.45133   -7115.8209    4410.5388    -11526.36    131.29456    -1098.795   -966.72218   -188.12687    46.634903    28.809171    -373.4412      46.7237      46.7237      46.7237           90           90           90     102002.7    -751.2147 
  547000       546497   -6476.7148    659.03919    -7135.754    4402.7674   -11538.521    127.72616   -467.69442    -114.8766   -825.38386    184.45296    -163.8702    66.471637      46.7237      46.7237      46.7237           90           90           90     102002.7   -469.31829 
  548000       547497   -6438.0772    674.99714   -7113.0744    4423.1766   -11536.251    130.81892   -739.70822   -817.41659   -1027.5839    56.437155   -8.0220119    281.11527      46.7237      46.7237      46.7237           90           90           90     102002.7   -861.56955 
  549000       548497   -6514.7697    646.58198   -7161.3517    4368.0437   -11529.395    125.31187   -566.70768   -825.20129   -613.33256    149.41817    14.920569   -251.14777      46.7237      46.7237      46.7237           90           90           90     102002.7   -668.41384 
  550000       549497   -6451.7418    688.03023    -7139.772    4399.8147   -11539.587    133.34482   -870.37526   -886.34326   -875.75688   -51.864422   -348.21133   -127.97255      46.7237      46.7237      46.7237           90           90           90     102002.7    -877.4918 
  551000       550497   -6477.2293      660.391   -7137.6203     4409.112   -11546.732    127.98815   -945.59815    -688.9723   -728.23625   -96.352161   -49.487164    91.554754      46.7237      46.7237      46.7237           90           90           90     102002.7   -787.60224 
  552000       551497   -6468.8854     675.8316   -7144.7171    4388.7229    -11533.44    130.98065   -887.55618    -723.5551   -1007.8067    60.995422    182.37209   -15.722944      46.7237      46.7237      46.7237           90           90           90     102002.7   -872.97267 
  553000       552497   -6425.0676    690.55847   -7115.6261    4439.0306   -11554.657    133.83481   -718.24198   -880.75089    -725.4169    237.94243    38.283011    230.44847      46.7237      46.7237      46.7237           90           90           90     102002.7   -774.80326 
  554000       553497   -6457.5623    661.72682   -7119.2891    4421.5514    -11540.84    128.24705   -561.36847   -421.66178   -927.83572   -113.80635    30.237486   -179.53015      46.7237      46.7237      46.7237           90           90           90     102002.7   -636.95532 
  555000       554497   -6436.5095    675.54554    -7112.055    4424.3905   -11536.445     130.9252    -1107.514   -1136.8083   -625.33038    -48.47822    98.129751   -219.52383      46.7237      46.7237      46.7237           90           90           90     102002.7   -956.55091 
[...]
  936000       935497   -6466.3249    668.28282   -7134.6077    4398.6009   -11533.209    129.51764    -750.9445   -671.58371   -587.05102   -222.85524   -234.07168   -74.222292      46.7237      46.7237      46.7237           90           90           90     102002.7   -669.85974 
  937000       936497   -6427.2481    704.05256   -7131.3006    4404.2426   -11535.543    136.45005   -688.30401   -542.38157   -728.50286    37.012442    -141.0899    91.474613      46.7237      46.7237      46.7237           90           90           90     102002.7   -653.06281 
  938000       937497   -6475.7319    657.20649   -7132.9384    4405.4268   -11538.365    127.37098   -833.00604   -1320.3425    -764.2081   -40.147541    171.55667   -136.38058      46.7237      46.7237      46.7237           90           90           90     102002.7   -972.51887 
  939000       938497   -6449.2469    665.41292   -7114.6598    4424.0346   -11538.694    128.96144   -1353.5242   -1275.8014   -741.30747   -69.574013   -151.24273    152.40941      46.7237      46.7237      46.7237           90           90           90     102002.7   -1123.5443 
  940000       939497   -6455.6284    668.96795   -7124.5963    4416.0536    -11540.65    129.65042    -633.5632   -1040.5258   -679.52284   -3.1873864   -21.691272   -64.022946      46.7237      46.7237      46.7237           90           90           90     102002.7   -784.53729 
  941000       940497   -6479.6114    659.79736   -7139.4088    4414.5741   -11553.983     127.8731   -1063.9668   -903.83127   -1001.3737    81.475983    225.93377   -12.329706      46.7237      46.7237      46.7237           90           90           90     102002.7   -989.72393 
  942000       941497    -6463.045    666.29577   -7129.3408    4399.1319   -11528.473    129.13254   -551.38895   -1017.7365   -740.13562    187.07464   -111.82324   -3.6162888      46.7237      46.7237      46.7237           90           90           90     102002.7   -769.75369 
  943000       942497   -6465.5663    672.09425   -7137.6605    4401.5213   -11539.182    130.25632   -1118.1588   -1331.3484   -589.41367   -53.491785   -206.04024    178.68073      46.7237      46.7237      46.7237           90           90           90     102002.7   -1012.9736 
  944000       943497   -6460.9384    681.11688   -7142.0553    4400.2035   -11542.259    132.00497     -765.353   -930.25597   -958.99211    31.274644    -34.08787   -88.059424      46.7237      46.7237      46.7237           90           90           90     102002.7   -884.86703 
  945000       944497   -6446.9349    684.70925   -7131.6441    4415.7083   -11547.352    132.70119   -955.80392   -675.35664   -885.07855    279.63711   -126.57013    89.497622      46.7237      46.7237      46.7237           90           90           90     102002.7   -838.74637 
  946000       945497   -6443.9512    678.62599   -7122.5772    4448.3377   -11570.915    131.52222    -1072.212   -951.17272   -866.72933   -92.093217   -247.68117    -39.73563      46.7237      46.7237      46.7237           90           90           90     102002.7   -963.37134 
  947000       946497   -6473.3054    660.99023   -7134.2957    4400.0915   -11534.387    128.10429   -805.55264   -853.06921   -593.30097    125.96628   -61.089382   -163.93662      46.7237      46.7237      46.7237           90           90           90     102002.7   -750.64094 
  948000       947497    -6459.112    669.89331   -7129.0054    4411.5797   -11540.585    129.82976   -1168.8205   -571.96792   -63.865558    112.74346    10.108243   -175.67158      46.7237      46.7237      46.7237           90           90           90     102002.7   -601.55134 
  949000       948497   -6439.2593    686.50819   -7125.7675    4435.2074   -11560.975    133.04984    -735.3366   -465.41499   -951.88972    52.219939    137.72214    82.061807      46.7237      46.7237      46.7237           90           90           90     102002.7    -717.5471 
  950000       949497   -6470.7096    665.44043     -7136.15    4413.7679   -11549.918    128.96677   -256.12679   -1047.9299   -513.59359   -156.16398   -92.063409    -68.74162      46.7237      46.7237      46.7237           90           90           90     102002.7   -605.88341 
  951000       950497   -6436.4831    673.81207   -7110.2952    4437.8643    -11548.16    130.58925   -1484.7785   -634.45999   -476.98869    43.309109   -59.605535   -36.837537      46.7237      46.7237      46.7237           90           90           90     102002.7   -865.40905 
  952000       951497   -6470.9271    661.13423   -7132.0613    4427.0464   -11559.108     128.1322   -958.53677   -883.57896   -696.78269   -139.74465   -432.96594    93.217484      46.7237      46.7237      46.7237           90           90           90     102002.7   -846.29947 
  953000       952497   -6437.6333    680.39166    -7118.025    4426.4338   -11544.459    131.86442   -623.87794   -594.52505   -284.97892    107.00744    59.386945    96.230825      46.7237      46.7237      46.7237           90           90           90     102002.7    -501.1273 
  954000       953497   -6447.4618    668.52819     -7115.99    4418.4885   -11534.478     129.5652   -321.53066   -286.68235   -1216.7433    223.28161   -75.826246   -307.44814      46.7237      46.7237      46.7237           90           90           90     102002.7   -608.31875 
  955000       954497   -6456.7482    669.94257   -7126.6908    4415.0665   -11541.757    129.83931   -617.76532   -1277.6933   -581.31799    75.004107   -60.406245    93.510221      46.7237      46.7237      46.7237           90           90           90     102002.7   -825.59219 
  956000       955497    -6457.895     670.5174   -7128.4124    4409.5456   -11537.958    129.95072    -747.0165   -470.74052   -516.68118   -385.33296   -108.46941    252.28711      46.7237      46.7237      46.7237           90           90           90     102002.7   -578.14607 
  957000       956497   -6471.5599    655.72007     -7127.28    4410.1281   -11537.408     127.0829   -795.62648   -1041.2856   -1010.7565    199.69962    168.29169    249.22804      46.7237      46.7237      46.7237           90           90           90     102002.7   -949.22284 
  958000       957497    -6473.083    644.61492    -7117.698    4432.4421    -11550.14    124.93065   -873.80278   -851.78335   -434.70783   -71.509602    20.695984   -68.204804      46.7237      46.7237      46.7237           90           90           90     102002.7   -720.09799 
  959000       958497   -6450.3013    680.47829   -7130.7796    4401.5867   -11532.366     131.8812   -591.57037   -923.30895   -275.55997   -143.18919   -75.451091   -248.61139      46.7237      46.7237      46.7237           90           90           90     102002.7    -596.8131 
  960000       959497   -6443.1852    659.21551   -7102.4007    4445.6152   -11548.016    127.76034   -894.43105    -730.6109   -1015.7736   -18.596486   -88.842334    36.622373      46.7237      46.7237      46.7237           90           90           90     102002.7   -880.27186 
  961000       960497   -6496.9409    647.54437   -7144.4853    4399.6721   -11544.157    125.49839   -592.74161   -946.25105   -306.78462   -234.96042     221.1722    2.4822749      46.7237      46.7237      46.7237           90           90           90     102002.7   -615.25909 
  962000       961497   -6436.4201     684.5104   -7120.9305    4420.1594    -11541.09    132.66265   -1057.2404    -613.8752   -877.38588   -50.258827    49.175331    18.396631      46.7237      46.7237      46.7237           90           90           90     102002.7   -849.50049 
  963000       962497    -6467.218    667.06228   -7134.2803    4399.8603   -11534.141    129.28109   -436.58853   -926.04161   -987.55839    69.898898    248.24352   -87.853746      46.7237      46.7237      46.7237           90           90           90     102002.7   -783.39618 
  964000       963497   -6429.2362    684.32323   -7113.5594    4417.8497   -11531.409    132.62638   -515.90667   -638.32901   -861.43127    63.205853    118.59062   -111.87995      46.7237      46.7237      46.7237           90           90           90     102002.7   -671.88898 
  965000       964497   -6455.6361    675.41186    -7131.048     4399.816   -11530.864     130.8993   -812.12874   -977.80601   -235.78588   -38.544546    111.91627   -132.92282      46.7237      46.7237      46.7237           90           90           90     102002.7   -675.24021 
  966000       965497   -6456.8902    670.46377    -7127.354    4419.6772   -11547.031    129.94032   -892.08408   -835.84105   -706.78783    44.071077   -96.407219   -71.059763      46.7237      46.7237      46.7237           90           90           90     102002.7   -811.57098 
  967000       966497   -6442.3755    672.66142   -7115.0369    4428.0286   -11543.066    130.36624   -788.97607    -168.4918    -656.2413    23.533862    187.92883    87.929667      46.7237      46.7237      46.7237           90           90           90     102002.7   -537.90306 
  968000       967497   -6476.5201    669.54995     -7146.07    4381.7412   -11527.811    129.76322   -475.93826   -408.68374   -433.43825    146.15394    12.605643   -102.73218      46.7237      46.7237      46.7237           90           90           90     102002.7   -439.35342 
  969000       968497   -6457.4872    656.71484    -7114.202    4443.5571   -11557.759    127.27569   -763.66492   -1040.4403   -811.49062    140.53179   -212.99828   -196.66538      46.7237      46.7237      46.7237           90           90           90     102002.7   -871.86527 
  970000       969497   -6430.1922    696.26837   -7126.4606    4414.0546   -11540.515    134.94143    -608.3445   -500.03851   -428.69687   -277.72387     186.2778   -101.26546      46.7237      46.7237      46.7237           90           90           90     102002.7   -512.35996 
  971000       970497   -6474.1282    652.55119   -7126.6794    4405.4027   -11532.082    126.46875   -469.18603   -411.00397   -910.45116   -124.42144    242.73037    185.05351      46.7237      46.7237      46.7237           90           90           90     102002.7   -596.88039 
  972000       971497   -6421.4687    703.47749   -7124.9462    4403.5845   -11528.531     136.3386   -365.73039    -1323.917   -472.86374      144.465   -116.04186   -12.494471      46.7237      46.7237      46.7237           90           90           90     102002.7   -720.83705 
  973000       972497    -6447.566    691.53831   -7139.1043    4416.1237   -11555.228    134.02471   -738.78122    -814.3805   -835.98655   -60.034834   -39.924987   -33.463126      46.7237      46.7237      46.7237           90           90           90     102002.7   -796.38275 
  974000       973497   -6467.6173    667.73782   -7135.3551    4394.7902   -11530.145    129.41202   -1212.2553   -915.79619   -877.99949      16.1583    183.03068    137.50465      46.7237      46.7237      46.7237           90           90           90     102002.7    -1002.017 
  975000       974497   -6446.3254     670.0088   -7116.3342    4430.6735   -11547.008    129.85215   -873.82948   -662.04978   -585.36496   -194.46493    23.549108   -87.448286      46.7237      46.7237      46.7237           90           90           90     102002.7   -707.08141 
  976000       975497   -6449.7622    680.90827   -7130.6704    4405.4066   -11536.077    131.96454   -285.15174   -371.26253   -488.38029    173.47318   -157.07994    302.26263      46.7237      46.7237      46.7237           90           90           90     102002.7   -381.59819 
  977000       976497   -6470.5249    659.83726   -7130.3622    4407.6853   -11538.048    127.88084   -1014.1001     -467.962   -208.50708    21.734903   -39.896992   -2.3807713      46.7237      46.7237      46.7237           90           90           90     102002.7   -563.52305 
  978000       977497   -6451.3226    663.27445    -7114.597    4430.8205   -11545.417    128.54699   -79.100157   -443.75408     103.0103   -95.686881   -47.439208   -376.64756      46.7237      46.7237      46.7237           90           90           90     102002.7   -139.94798 
  979000       978497   -6469.7538    667.02619     -7136.78    4408.2006   -11544.981     129.2741   -680.63964   -629.87798   -445.26992    40.087446     56.01831   -122.19706      46.7237      46.7237      46.7237           90           90           90     102002.7   -585.26252 
  980000       979497   -6433.6875    676.28847    -7109.976    4427.4661   -11537.442    131.06919   -636.03283   -338.59746   -596.52929    109.81429   -1.1216666    204.19673      46.7237      46.7237      46.7237           90           90           90     102002.7   -523.71986 
  981000       980497   -6453.3367    665.20131    -7118.538    4453.8832   -11572.421    128.92042   -750.31552   -396.67695   -401.93786   -98.303943   -120.67067    88.517997      46.7237      46.7237      46.7237           90           90           90     102002.7   -516.31011 
  982000       981497   -6441.9903    671.73871    -7113.729    4433.2836   -11547.013    130.18741   -1159.5123   -445.34349   -284.22069   -230.16696   -107.11806     124.8433      46.7237      46.7237      46.7237           90           90           90     102002.7   -629.69215 
  983000       982497   -6445.2516    677.11434    -7122.366    4410.1713   -11532.537    131.22925   -934.51651   -802.46542   -578.33406    297.56239    180.68339    31.865764      46.7237      46.7237      46.7237           90           90           90     102002.7     -771.772 
  984000       983497   -6469.7455    672.81014   -7142.5557    4411.1475   -11553.703    130.39507   -483.87875   -1191.0667   -430.50396   -105.70027   -213.42229    33.268684      46.7237      46.7237      46.7237           90           90           90     102002.7   -701.81648 
  985000       984497   -6448.5899    689.85579   -7138.4457    4400.8921   -11539.338    133.69863   -938.67611   -574.07745   -514.59647   -172.89336   -116.53567   -30.412309      46.7237      46.7237      46.7237           90           90           90     102002.7   -675.78334 
  986000       985497   -6468.5876    647.32055   -7115.9081    4415.7917     -11531.7    125.45501   -395.37403   -714.52956   -1053.7896    231.37825    158.07698    46.367381      46.7237      46.7237      46.7237           90           90           90     102002.7   -721.23105 
  987000       986497   -6443.3302     681.0524   -7124.3826    4421.7359   -11546.118    131.99247   -596.00564    -662.9531   -660.39664    321.75578   -104.08093    219.67486      46.7237      46.7237      46.7237           90           90           90     102002.7   -639.78513 
  988000       987497   -6466.3978    666.66597   -7133.0638    4423.8421   -11556.906    129.20429   -1019.9011   -629.72925   -1497.6568    112.81854    123.39121   -49.247077      46.7237      46.7237      46.7237           90           90           90     102002.7   -1049.0957 
  989000       988497    -6465.678    670.19589   -7135.8739    4382.1445   -11518.018    129.88841   -811.48463   -407.41451   -843.11868   -145.69257    58.766279   -99.340547      46.7237      46.7237      46.7237           90           90           90     102002.7   -687.33927 
  990000       989497   -6445.9915    665.10425   -7111.0957    4454.5511   -11565.647    128.90161   -205.14468   -1125.0576   -1011.3656   -31.936697    228.64407    -78.72487      46.7237      46.7237      46.7237           90           90           90     102002.7   -780.52264 
  991000       990497   -6420.4782    694.23848   -7114.7167    4399.7887   -11514.505    134.54802   -391.65118   -602.56892   -830.99332   -419.40708    6.7416605    196.15111      46.7237      46.7237      46.7237           90           90           90     102002.7   -608.40447 
  992000       991497   -6478.7092    662.80297   -7141.5122    4421.9344   -11563.447    128.45561   -1065.3311   -288.29565   -925.39193   -18.976745   -64.722287    63.661801      46.7237      46.7237      46.7237           90           90           90     102002.7   -759.67289 
  993000       992497   -6453.1535    669.64384   -7122.7973    4403.2626    -11526.06    129.78142   -455.46999   -910.15152   -746.09893    60.201256    131.57498     -107.874      46.7237      46.7237      46.7237           90           90           90     102002.7   -703.90681 
  994000       993497   -6415.2556    710.71379   -7125.9694    4423.1327   -11549.102    137.74105   -779.21544   -385.26124   -837.51071    49.303537   -18.481624    244.77635      46.7237      46.7237      46.7237           90           90           90     102002.7   -667.32913 
  995000       994497   -6448.7371    662.75113   -7111.4883    4428.6787   -11540.167    128.44556   -657.03194   -384.66368   -692.14022    -36.99471   -33.831607   -26.713984      46.7237      46.7237      46.7237           90           90           90     102002.7   -577.94528 
  996000       995497   -6471.2706    676.58112   -7147.8517    4378.1113   -11525.963    131.12591   -586.58794   -578.78672   -1054.1137    24.377941    8.7164803    33.496349      46.7237      46.7237      46.7237           90           90           90     102002.7   -739.82947 
  997000       996497   -6448.5728    692.00993   -7140.5827    4399.6179   -11540.201    134.11611   -305.54115   -466.69003   -865.56555     88.37256   -127.62698    172.67225      46.7237      46.7237      46.7237           90           90           90     102002.7   -545.93224 
  998000       997497   -6470.0285     672.9073   -7142.9358    4394.7967   -11537.733     130.4139   -451.43057   -609.15153   -1238.6494    74.976137   -192.18192    55.415765      46.7237      46.7237      46.7237           90           90           90     102002.7   -766.41049 
  999000       998497    -6439.223    664.89975   -7104.1228    4439.3144   -11543.437    128.86198     -1002.49   -663.58372   -450.26858    193.19714    89.916088   -156.51679      46.7237      46.7237      46.7237           90           90           90     102002.7   -705.44745 
 1000000       999497     -6481.08    661.69709   -7142.7771    4379.6782   -11522.455    128.24128   -551.09141    -897.7963   -416.59489   -214.39616    152.07792    223.05408      46.7237      46.7237      46.7237           90           90           90     102002.7   -621.82754 
 1000503      1000000   -6408.5968    688.83486   -7097.4316    4441.1776   -11538.609    133.50076   -364.78661   -219.10011   -631.91663    52.854949   -237.65498   -23.617114      46.7237      46.7237      46.7237           90           90           90     102002.7   -405.26778 
Loop time of 1416.5 on 16 procs for 500000 steps with 1732 atoms

Performance: 30.498 ns/day, 0.787 hours/ns, 352.982 timesteps/s
99.9% CPU use with 16 MPI tasks x no OpenMP threads

MPI task timing breakdown:
Section |  min time  |  avg time  |  max time  |%varavg| %total
---------------------------------------------------------------
Pair    | 575.88     | 769.12     | 951.74     | 464.3 | 54.30
Bond    | 175.3      | 183.35     | 189.81     |  30.2 | 12.94
Neigh   | 3.9652     | 3.9934     | 4.0204     |   0.9 |  0.28
Comm    | 250        | 432.65     | 619.34     | 615.6 | 30.54
Output  | 0.098241   | 0.10345    | 0.10385    |   0.4 |  0.01
Modify  | 21.114     | 22.002     | 22.675     |  10.7 |  1.55
Other   |            | 5.284      |            |       |  0.37

Nlocal:    108.25 ave 150 max 87 min
Histogram: 4 1 1 6 1 1 1 0 0 1
Nghost:    2207.62 ave 2231 max 2164 min
Histogram: 1 0 0 2 1 1 4 3 1 3
Neighs:    11447.7 ave 19005 max 6737 min
Histogram: 1 2 4 3 1 2 2 0 0 1

Total # of neighbors = 183163
Ave neighs/atom = 105.752
Ave special neighs/atom = 6.65127
Neighbor list builds = 3500
Dangerous builds = 0
Total wall time: 0:44:46
