LAMMPS (30 Mar 2018)
Reading data file ...
  orthogonal box = (0 0 0) to (46.7237 46.7237 46.7237)
  2 by 3 by 4 MPI processor grid
  reading atoms ...
  1749 atoms
  scanning bonds ...
  5 = max bonds/atom
  scanning angles ...
  10 = max angles/atom
  scanning dihedrals ...
  32 = max dihedrals/atom
  scanning impropers ...
  3 = max impropers/atom
  reading bonds ...
  2064 bonds
  reading angles ...
  3696 angles
  reading dihedrals ...
  6240 dihedrals
  reading impropers ...
  1008 impropers
Finding 1-2 1-3 1-4 neighbors ...
  special bond factors lj:   0          0          0         
  special bond factors coul: 0          0          0         
  5 = max # of 1-2 neighbors
  8 = max # of 1-3 neighbors
  20 = max # of 1-4 neighbors
  19 = max # of special neighbors
Finding 1-2 1-3 1-4 neighbors ...
  special bond factors lj:   0          0          1         
  special bond factors coul: 1          1          1         
  5 = max # of 1-2 neighbors
  8 = max # of 1-3 neighbors
  19 = max # of special neighbors
WARNING: Using 'neigh_modify every 1 delay 0 check yes' setting during minimization (../min.cpp:168)
Neighbor list info ...
  update every 1 steps, delay 0 steps, check yes
  max neighbors/atom: 2000, page size: 100000
  master list distance cutoff = 16
  ghost atom cutoff = 16
  binsize = 8, bins = 6 6 6
  3 neighbor lists, perpetual/occasional/extra = 3 0 0
  (1) pair buck6d/coul/gauss/dsf, perpetual, skip from (3)
      attributes: half, newton on
      pair build: skip
      stencil: none
      bin: none
  (2) pair lj/cut, perpetual, skip from (3)
      attributes: half, newton on
      pair build: skip
      stencil: none
      bin: none
  (3) neighbor class addition, perpetual
      attributes: half, newton on
      pair build: half/bin/newton
      stencil: half/bin/3d/newton
      bin: standard
Setting up cg style minimization ...
  Unit style    : real
  Current step  : 0
WARNING: Inconsistent image flags (../domain.cpp:786)
Per MPI rank memory allocation (min/avg/max) = 22.87 | 23.28 | 24.42 Mbytes
Step Temp E_pair E_mol TotEng Press 
       0            0    -11573.28    6482.8914   -5090.3889    6266.3245 
     504            0   -11601.021    3736.5936   -7864.4277   -497.37209 
Loop time of 1.23477 on 24 procs for 504 steps with 1749 atoms

99.8% CPU use with 24 MPI tasks x no OpenMP threads

Minimization stats:
  Stopping criterion = max force evaluations
  Energy initial, next-to-last, final = 
        -5090.38885505     -7864.41705033     -7864.42774293
  Force two-norm initial, final = 2576.95 4.7096
  Force max component initial, final = 152.414 0.51354
  Final line search alpha, max atom move = 0.00323504 0.00166132
  Iterations, force evaluations = 504 1001

MPI task timing breakdown:
Section |  min time  |  avg time  |  max time  |%varavg| %total
---------------------------------------------------------------
Pair    | 0.42015    | 0.60587    | 0.83829    |  12.0 | 49.07
Bond    | 0.12017    | 0.15702    | 0.19795    |   5.0 | 12.72
Neigh   | 0.0057547  | 0.005896   | 0.0059827  |   0.1 |  0.48
Comm    | 0.1944     | 0.44325    | 0.62945    |  14.4 | 35.90
Output  | 0          | 0          | 0          |   0.0 |  0.00
Modify  | 0          | 0          | 0          |   0.0 |  0.00
Other   |            | 0.02273    |            |       |  1.84

Nlocal:    72.875 ave 91 max 56 min
Histogram: 2 1 2 4 3 4 3 3 1 1
Nghost:    1989.46 ave 2163 max 1891 min
Histogram: 14 2 0 0 0 0 0 0 0 8
Neighs:    7626.29 ave 10971 max 3679 min
Histogram: 1 1 3 3 3 2 3 5 2 1

Total # of neighbors = 183031
Ave neighs/atom = 104.649
Ave special neighs/atom = 6.58662
Neighbor list builds = 11
Dangerous builds = 0
Neighbor list info ...
  update every 1 steps, delay 10 steps, check yes
  max neighbors/atom: 2000, page size: 100000
  master list distance cutoff = 16
  ghost atom cutoff = 16
  binsize = 8, bins = 6 6 6
  3 neighbor lists, perpetual/occasional/extra = 3 0 0
  (1) pair buck6d/coul/gauss/dsf, perpetual, skip from (3)
      attributes: half, newton on
      pair build: skip
      stencil: none
      bin: none
  (2) pair lj/cut, perpetual, skip from (3)
      attributes: half, newton on
      pair build: skip
      stencil: none
      bin: none
  (3) neighbor class addition, perpetual
      attributes: half, newton on
      pair build: half/bin/newton
      stencil: half/bin/3d/newton
      bin: standard
Setting up Verlet run ...
  Unit style    : real
  Current step  : 504
  Time step     : 1
WARNING: Inconsistent image flags (../domain.cpp:786)
Per MPI rank memory allocation (min/avg/max) = 22.52 | 22.67 | 23.29 Mbytes
Step Temp PotEng TotEng Press Volume Lx Ly Lz 
     504          110   -7864.4277   -7291.2776   -240.51617     102002.7      46.7237      46.7237      46.7237 
    1000    100.01863   -7371.8311   -6850.6885   -778.29087     102002.7      46.7237      46.7237      46.7237 
    2000    113.19657   -7274.3907    -6684.585   -613.62728     102002.7      46.7237      46.7237      46.7237 
    3000     102.8093   -7257.2941   -6721.6108   -973.39294     102002.7      46.7237      46.7237      46.7237 
    4000    109.45927   -7273.2149   -6702.8822   -592.88207     102002.7      46.7237      46.7237      46.7237 
    5000    108.82882   -7267.9138    -6700.866   -987.58956     102002.7      46.7237      46.7237      46.7237 
    6000    105.63498    -7295.816   -6745.4096    -1027.363     102002.7      46.7237      46.7237      46.7237 
    7000    108.31256   -7265.1049   -6700.7471   -701.47627     102002.7      46.7237      46.7237      46.7237 
    8000    112.03973   -7264.8994   -6681.1214    -976.1635     102002.7      46.7237      46.7237      46.7237 
    9000    109.85256   -7289.7602   -6717.3783   -560.32299     102002.7      46.7237      46.7237      46.7237 
   10000    111.82919   -7270.8743   -6688.1932   -747.16988     102002.7      46.7237      46.7237      46.7237 
   11000    112.01719   -7276.5828   -6692.9222   -798.77069     102002.7      46.7237      46.7237      46.7237 
   12000    108.87427   -7280.6242   -6713.3396   -588.81762     102002.7      46.7237      46.7237      46.7237 
   13000    112.94669   -7286.4942   -6697.9904   -725.22775     102002.7      46.7237      46.7237      46.7237 
   14000    112.83327   -7292.4226   -6704.5098   -564.29134     102002.7      46.7237      46.7237      46.7237 
   15000    109.57811   -7268.9025   -6697.9506    -884.5457     102002.7      46.7237      46.7237      46.7237 
   16000    111.65657   -7277.2309   -6695.4493   -756.52149     102002.7      46.7237      46.7237      46.7237 
   17000    109.81069   -7296.8969   -6724.7332   -602.76331     102002.7      46.7237      46.7237      46.7237 
   18000    108.28711   -7275.9188   -6711.6936   -812.65093     102002.7      46.7237      46.7237      46.7237 
   19000    111.06552   -7271.7824   -6693.0804   -921.20716     102002.7      46.7237      46.7237      46.7237 
   20000    109.43916   -7300.7322   -6730.5042   -644.32991     102002.7      46.7237      46.7237      46.7237 
   21000    107.04632   -7276.5346   -6718.7745    -713.4121     102002.7      46.7237      46.7237      46.7237 
   22000    113.27349   -7262.2668   -6672.0603    -933.2934     102002.7      46.7237      46.7237      46.7237 
   23000    110.49085   -7286.8783   -6711.1706   -665.02952     102002.7      46.7237      46.7237      46.7237 
   24000    108.15069   -7271.9853   -6708.4709   -624.88532     102002.7      46.7237      46.7237      46.7237 
   25000    111.10382   -7296.6359   -6717.7343   -651.26488     102002.7      46.7237      46.7237      46.7237 
   26000    112.43093   -7272.9328   -6687.1163   -672.94361     102002.7      46.7237      46.7237      46.7237 
   27000    110.10219   -7282.3411   -6708.6585   -718.06351     102002.7      46.7237      46.7237      46.7237 
   28000    110.44652   -7273.1866   -6697.7098   -589.52743     102002.7      46.7237      46.7237      46.7237 
   29000    109.12236   -7291.9366   -6723.3593     -763.045     102002.7      46.7237      46.7237      46.7237 
   30000     110.0556   -7274.6047   -6701.1649   -562.28566     102002.7      46.7237      46.7237      46.7237 
   31000     108.8951    -7272.372   -6704.9789   -557.20285     102002.7      46.7237      46.7237      46.7237 
   32000    110.98958   -7281.4491   -6703.1428   -523.57037     102002.7      46.7237      46.7237      46.7237 
   33000    109.66531   -7293.6765   -6722.2703    -602.6615     102002.7      46.7237      46.7237      46.7237 
   34000    109.69334    -7276.922   -6705.3697   -585.58517     102002.7      46.7237      46.7237      46.7237 
   35000    109.00917   -7309.3878   -6741.4003   -402.44461     102002.7      46.7237      46.7237      46.7237 
   36000    111.08651   -7264.0612   -6685.2499   -370.59913     102002.7      46.7237      46.7237      46.7237 
   37000    108.23625   -7270.3162    -6706.356   -382.26802     102002.7      46.7237      46.7237      46.7237 
   38000    109.77815   -7270.0466   -6698.0524   -688.70605     102002.7      46.7237      46.7237      46.7237 
   39000    112.95315   -7283.5782   -6695.0408   -639.77395     102002.7      46.7237      46.7237      46.7237 
   40000    109.76781   -7299.1069   -6727.1666   -825.40033     102002.7      46.7237      46.7237      46.7237 
   41000    111.59331   -7271.8167   -6690.3647   -768.02638     102002.7      46.7237      46.7237      46.7237 
   42000    109.91761   -7263.5745   -6690.8536   -793.99436     102002.7      46.7237      46.7237      46.7237 
   43000    110.28241   -7285.1027    -6710.481   -403.21473     102002.7      46.7237      46.7237      46.7237 
   44000    113.05244   -7287.1187    -6698.064   -633.94732     102002.7      46.7237      46.7237      46.7237 
   45000    106.25133   -7284.5274   -6730.9095   -678.76442     102002.7      46.7237      46.7237      46.7237 
   46000    112.71538    -7286.041   -6698.7424    -562.1074     102002.7      46.7237      46.7237      46.7237 
   47000    109.94027   -7284.0601   -6711.2211   -706.65281     102002.7      46.7237      46.7237      46.7237 
   48000     111.7309   -7287.8899    -6705.721   -566.20487     102002.7      46.7237      46.7237      46.7237 
   49000     108.1953   -7268.7707   -6705.0239   -705.39142     102002.7      46.7237      46.7237      46.7237 
   50000    109.83184   -7297.9686   -6725.6947   -664.86833     102002.7      46.7237      46.7237      46.7237 
   51000    107.33475   -7230.7768   -6671.5138   -598.80933     102002.7      46.7237      46.7237      46.7237 
   52000    109.59287   -7257.6441   -6686.6153   -1024.4571     102002.7      46.7237      46.7237      46.7237 
   53000    110.03908   -7290.8142   -6717.4605   -759.03721     102002.7      46.7237      46.7237      46.7237 
   54000    112.04544    -7260.999   -6677.1912   -553.53761     102002.7      46.7237      46.7237      46.7237 
   55000    111.68455   -7278.2543   -6696.3269   -747.62925     102002.7      46.7237      46.7237      46.7237 
   56000    109.32138   -7276.5977   -6706.9835   -602.63766     102002.7      46.7237      46.7237      46.7237 
   57000    106.51777    -7287.915   -6732.9088    -836.2601     102002.7      46.7237      46.7237      46.7237 
   58000    110.14411   -7267.8026   -6693.9016   -733.91429     102002.7      46.7237      46.7237      46.7237 
   59000    112.32853   -7290.8235   -6705.5406   -719.72313     102002.7      46.7237      46.7237      46.7237 
   60000    109.88503   -7273.3174   -6700.7663   -790.11624     102002.7      46.7237      46.7237      46.7237 
   61000    107.26523   -7275.2132   -6716.3124   -824.15076     102002.7      46.7237      46.7237      46.7237 
   62000    115.73044   -7277.7001   -6674.6918   -654.08569     102002.7      46.7237      46.7237      46.7237 
   63000    107.55569   -7270.8796   -6710.4654   -644.94101     102002.7      46.7237      46.7237      46.7237 
   64000    111.92256   -7277.9797   -6694.8122   -604.37445     102002.7      46.7237      46.7237      46.7237 
   65000    108.61612    -7277.005   -6711.0655   -469.02939     102002.7      46.7237      46.7237      46.7237 
   66000     111.7196    -7272.222    -6690.112   -673.13824     102002.7      46.7237      46.7237      46.7237 
   67000     110.0616    -7280.849   -6707.3778   -660.34124     102002.7      46.7237      46.7237      46.7237 
   68000    106.12095   -7298.8023   -6745.8638   -783.27481     102002.7      46.7237      46.7237      46.7237 
   69000    112.01064   -7282.2326   -6698.6061   -443.97107     102002.7      46.7237      46.7237      46.7237 
   70000    108.12674   -7277.4371   -6714.0475   -678.35668     102002.7      46.7237      46.7237      46.7237 
   71000    112.49242   -7262.0518    -6675.915   -898.73686     102002.7      46.7237      46.7237      46.7237 
   72000    108.34946   -7270.7636   -6706.2135   -483.93495     102002.7      46.7237      46.7237      46.7237 
   73000    106.31605   -7288.2281    -6734.273   -580.08265     102002.7      46.7237      46.7237      46.7237 
   74000    110.45989   -7274.4193   -6698.8728   -684.66609     102002.7      46.7237      46.7237      46.7237 
   75000    112.36161   -7281.7315   -6696.2762   -729.88521     102002.7      46.7237      46.7237      46.7237 
   76000    106.90937   -7274.4846   -6717.4381   -872.47955     102002.7      46.7237      46.7237      46.7237 
   77000    106.98108   -7267.3841   -6709.9639    -957.3195     102002.7      46.7237      46.7237      46.7237 
   78000    110.22667   -7257.4836   -6683.1524   -580.18264     102002.7      46.7237      46.7237      46.7237 
   79000    110.92043   -7276.5062   -6698.5601   -571.95692     102002.7      46.7237      46.7237      46.7237 
   80000    110.33751   -7283.1465   -6708.2377   -558.14037     102002.7      46.7237      46.7237      46.7237 
   81000    112.81026   -7280.6693   -6692.8764   -466.31134     102002.7      46.7237      46.7237      46.7237 
   82000     107.3061   -7285.3491   -6726.2354   -774.92132     102002.7      46.7237      46.7237      46.7237 
   83000    106.29907   -7256.4377   -6702.5711   -709.67061     102002.7      46.7237      46.7237      46.7237 
   84000    111.92051   -7268.8817   -6685.7248   -778.34517     102002.7      46.7237      46.7237      46.7237 
   85000    109.66532   -7283.4798   -6712.0734   -343.61216     102002.7      46.7237      46.7237      46.7237 
   86000    109.25261   -7292.6986   -6723.4427   -318.62735     102002.7      46.7237      46.7237      46.7237 
   87000    112.18584   -7284.1262   -6699.5868   -468.08953     102002.7      46.7237      46.7237      46.7237 
   88000    112.78645   -7309.8526   -6722.1838   -217.55742     102002.7      46.7237      46.7237      46.7237 
   89000    108.16352   -7268.0774   -6704.4961   -353.18545     102002.7      46.7237      46.7237      46.7237 
   90000    106.68935   -7269.6879   -6713.7877   -564.24471     102002.7      46.7237      46.7237      46.7237 
   91000    112.27957   -7302.8821   -6717.8544   -672.76143     102002.7      46.7237      46.7237      46.7237 
   92000    110.16914   -7263.8432   -6689.8117   -977.36954     102002.7      46.7237      46.7237      46.7237 
   93000    110.15181   -7276.8751   -6702.9339   -766.23671     102002.7      46.7237      46.7237      46.7237 
   94000    110.71114   -7287.4969   -6710.6413    -660.2371     102002.7      46.7237      46.7237      46.7237 
   95000    109.63335   -7266.5928    -6695.353   -992.42002     102002.7      46.7237      46.7237      46.7237 
   96000    110.79447   -7263.4654   -6686.1756   -693.50579     102002.7      46.7237      46.7237      46.7237 
   97000     109.4479   -7305.5798   -6735.3063   -994.77587     102002.7      46.7237      46.7237      46.7237 
   98000    111.82396    -7263.373   -6680.7192   -623.14692     102002.7      46.7237      46.7237      46.7237 
   99000    106.66354   -7258.6554   -6702.8897   -585.12498     102002.7      46.7237      46.7237      46.7237 
  100000    107.27317   -7260.6379   -6701.6958    -653.7254     102002.7      46.7237      46.7237      46.7237 
  101000    114.19254   -7284.9809   -6689.9857   -920.43987     102002.7      46.7237      46.7237      46.7237 
  102000    110.52804    -7262.506   -6686.6045   -588.03733     102002.7      46.7237      46.7237      46.7237 
  103000    107.81756   -7273.7077   -6711.9291   -738.94203     102002.7      46.7237      46.7237      46.7237 
  104000    109.07964   -7264.1591   -6695.8044   -547.35754     102002.7      46.7237      46.7237      46.7237 
  105000    112.56919   -7273.8039   -6687.2671   -815.32315     102002.7      46.7237      46.7237      46.7237 
  106000    113.45393   -7289.1281   -6697.9814   -656.50607     102002.7      46.7237      46.7237      46.7237 
  107000    108.75721   -7282.1996    -6715.525   -996.57796     102002.7      46.7237      46.7237      46.7237 
  108000    113.58217   -7270.1145   -6678.2996   -755.73577     102002.7      46.7237      46.7237      46.7237 
  109000     109.9662   -7271.5215   -6698.5475   -838.45052     102002.7      46.7237      46.7237      46.7237 
  110000    109.75395   -7283.7444   -6711.8762    -635.9369     102002.7      46.7237      46.7237      46.7237 
  111000    109.40828    -7254.919    -6684.852   -502.02735     102002.7      46.7237      46.7237      46.7237 
  112000    112.30412   -7292.8791   -6707.7234   -831.09968     102002.7      46.7237      46.7237      46.7237 
  113000    112.79706   -7261.2695   -6673.5454   -585.53959     102002.7      46.7237      46.7237      46.7237 
  114000    110.04707   -7273.4471   -6700.0517   -729.18734     102002.7      46.7237      46.7237      46.7237 
  115000    111.03875   -7288.6174   -6710.0548   -742.85555     102002.7      46.7237      46.7237      46.7237 
  116000    111.04893   -7259.7632   -6681.1476   -682.70277     102002.7      46.7237      46.7237      46.7237 
  117000    110.56827   -7276.2906   -6700.1795   -719.04292     102002.7      46.7237      46.7237      46.7237 
  118000    110.26778   -7299.2462   -6724.7007   -414.77544     102002.7      46.7237      46.7237      46.7237 
  119000    111.90716   -7293.4532   -6710.3658   -777.64125     102002.7      46.7237      46.7237      46.7237 
  120000    108.11148   -7283.9273   -6720.6172   -909.27505     102002.7      46.7237      46.7237      46.7237 
  121000    111.64133   -7274.9519   -6693.2496   -718.91266     102002.7      46.7237      46.7237      46.7237 
  122000    114.66827   -7287.0512   -6689.5772   -820.91326     102002.7      46.7237      46.7237      46.7237 
  123000    109.75756    -7277.268   -6705.3811   -739.90139     102002.7      46.7237      46.7237      46.7237 
  124000    110.93943   -7292.5504   -6714.5054   -658.56692     102002.7      46.7237      46.7237      46.7237 
  125000    109.02407   -7266.2741    -6698.209   -780.75973     102002.7      46.7237      46.7237      46.7237 
  126000     110.3512   -7277.2616   -6702.2816   -891.84836     102002.7      46.7237      46.7237      46.7237 
  127000    111.03598   -7273.6953   -6695.1472   -776.64673     102002.7      46.7237      46.7237      46.7237 
  128000    113.80556   -7279.8004   -6686.8215   -892.08074     102002.7      46.7237      46.7237      46.7237 
  129000     111.9585   -7297.2879    -6713.933   -743.16243     102002.7      46.7237      46.7237      46.7237 
  130000    111.06784   -7283.6164   -6704.9023    -681.7039     102002.7      46.7237      46.7237      46.7237 
  131000    108.45858   -7286.4528   -6721.3341   -1112.9548     102002.7      46.7237      46.7237      46.7237 
  132000    111.94153   -7277.9149   -6694.6485   -702.85251     102002.7      46.7237      46.7237      46.7237 
  133000    108.84604   -7265.4283   -6698.2908   -654.92534     102002.7      46.7237      46.7237      46.7237 
  134000    107.98048   -7281.1303   -6718.5028   -704.13795     102002.7      46.7237      46.7237      46.7237 
  135000    110.38844   -7290.4917   -6715.3176   -970.72062     102002.7      46.7237      46.7237      46.7237 
  136000    109.14991   -7284.8161   -6716.0953   -671.29845     102002.7      46.7237      46.7237      46.7237 
  137000    111.92848   -7279.2183   -6696.0199    -470.4413     102002.7      46.7237      46.7237      46.7237 
  138000    109.63261      -7270.9   -6699.6641   -818.23023     102002.7      46.7237      46.7237      46.7237 
  139000    111.15609   -7309.2772   -6730.1033   -640.34418     102002.7      46.7237      46.7237      46.7237 
  140000    108.97161   -7268.3552   -6700.5634    -678.6571     102002.7      46.7237      46.7237      46.7237 
  141000     106.9896   -7278.7103   -6721.2457   -729.92336     102002.7      46.7237      46.7237      46.7237 
  142000    109.09021   -7290.4091   -6721.9994   -847.15765     102002.7      46.7237      46.7237      46.7237 
  143000    110.68923   -7282.3228   -6705.5814   -857.00084     102002.7      46.7237      46.7237      46.7237 
  144000    108.96257   -7280.5038   -6712.7592   -788.66463     102002.7      46.7237      46.7237      46.7237 
  145000    111.12224    -7275.129   -6696.1315   -610.77287     102002.7      46.7237      46.7237      46.7237 
  146000    111.42816   -7283.5795    -6702.988   -526.24966     102002.7      46.7237      46.7237      46.7237 
  147000    110.97012   -7304.2194   -6726.0145   -765.56954     102002.7      46.7237      46.7237      46.7237 
  148000    112.25384   -7264.7577    -6679.864   -618.76293     102002.7      46.7237      46.7237      46.7237 
  149000    111.19026   -7275.6615   -6696.3095   -881.61463     102002.7      46.7237      46.7237      46.7237 
  150000    110.91489   -7289.9309   -6712.0137   -391.72471     102002.7      46.7237      46.7237      46.7237 
  151000    111.77856   -7275.1275   -6692.7102   -811.30826     102002.7      46.7237      46.7237      46.7237 
  152000     108.0405   -7293.7335   -6730.7932   -393.68063     102002.7      46.7237      46.7237      46.7237 
  153000    110.92143   -7276.7679   -6698.8167   -609.52879     102002.7      46.7237      46.7237      46.7237 
  154000    115.80181   -7270.1543    -6666.774   -922.00035     102002.7      46.7237      46.7237      46.7237 
  155000    110.31608   -7296.8873   -6722.0902   -716.45135     102002.7      46.7237      46.7237      46.7237 
  156000    109.20546   -7294.5284   -6725.5182    -839.0647     102002.7      46.7237      46.7237      46.7237 
  157000     108.0447   -7259.2713   -6696.3091    -1000.123     102002.7      46.7237      46.7237      46.7237 
  158000    110.65418   -7289.5481   -6712.9894   -766.73342     102002.7      46.7237      46.7237      46.7237 
  159000    111.88596   -7296.1998   -6713.2229   -691.57382     102002.7      46.7237      46.7237      46.7237 
  160000    109.51932   -7267.4016    -6696.756   -1076.7177     102002.7      46.7237      46.7237      46.7237 
  161000    109.65041   -7285.7669   -6714.4383     -841.478     102002.7      46.7237      46.7237      46.7237 
  162000    107.36574   -7249.9619   -6690.5374    -709.8993     102002.7      46.7237      46.7237      46.7237 
  163000    110.21927   -7287.2162   -6712.9235   -893.64979     102002.7      46.7237      46.7237      46.7237 
  164000     107.6527   -7289.5749   -6728.6552   -924.00242     102002.7      46.7237      46.7237      46.7237 
  165000    112.53076   -7283.9298   -6697.5932   -786.41832     102002.7      46.7237      46.7237      46.7237 
  166000    113.73213   -7281.4912    -6688.895   -649.43412     102002.7      46.7237      46.7237      46.7237 
  167000      111.389   -7302.0657   -6721.6782   -593.62911     102002.7      46.7237      46.7237      46.7237 
  168000    112.97554   -7254.9795   -6666.3254   -928.89256     102002.7      46.7237      46.7237      46.7237 
  169000      109.116   -7262.8604   -6694.3163   -1017.7656     102002.7      46.7237      46.7237      46.7237 
  170000     107.0818   -7282.0017   -6724.0567   -798.44131     102002.7      46.7237      46.7237      46.7237 
  171000    104.04394   -7279.9569   -6737.8405   -741.32698     102002.7      46.7237      46.7237      46.7237 
  172000    112.81006   -7284.2424   -6696.4506   -726.55135     102002.7      46.7237      46.7237      46.7237 
  173000     110.0015   -7300.6684   -6727.5104   -637.64479     102002.7      46.7237      46.7237      46.7237 
  174000    113.59414   -7293.9337   -6702.0564   -704.41409     102002.7      46.7237      46.7237      46.7237 
  175000    108.81207   -7292.8908   -6725.9303    -746.0364     102002.7      46.7237      46.7237      46.7237 
  176000    110.51583    -7296.999   -6721.1612   -753.35693     102002.7      46.7237      46.7237      46.7237 
  177000    107.36814   -7267.2074   -6707.7704   -906.25619     102002.7      46.7237      46.7237      46.7237 
  178000    110.96751   -7276.4533    -6698.262   -912.34772     102002.7      46.7237      46.7237      46.7237 
  179000    111.10427   -7274.4934   -6695.5894   -776.56056     102002.7      46.7237      46.7237      46.7237 
  180000    109.31271   -7284.1369   -6714.5678   -925.57692     102002.7      46.7237      46.7237      46.7237 
  181000    105.11438   -7269.3613   -6721.6675    -750.4929     102002.7      46.7237      46.7237      46.7237 
  182000    112.52329   -7273.0743   -6686.7767   -476.89483     102002.7      46.7237      46.7237      46.7237 
  183000    107.08126   -7302.2288   -6744.2867   -913.39065     102002.7      46.7237      46.7237      46.7237 
  184000    107.41027   -7276.7988   -6717.1423   -810.65528     102002.7      46.7237      46.7237      46.7237 
  185000    111.44018   -7269.4049   -6688.7507   -884.55492     102002.7      46.7237      46.7237      46.7237 
  186000    107.83363     -7278.48   -6716.6176   -731.24235     102002.7      46.7237      46.7237      46.7237 
  187000    112.48612    -7300.988    -6714.884   -624.72171     102002.7      46.7237      46.7237      46.7237 
  188000    107.95908   -7284.8074   -6722.2914   -825.10425     102002.7      46.7237      46.7237      46.7237 
  189000    112.70494   -7278.2233   -6690.9792   -538.46463     102002.7      46.7237      46.7237      46.7237 
  190000    108.01887   -7288.8924   -6726.0648   -859.62912     102002.7      46.7237      46.7237      46.7237 
  191000     109.8883   -7269.9138   -6697.3456   -626.76479     102002.7      46.7237      46.7237      46.7237 
  192000    110.56006   -7286.9798   -6710.9114   -807.30786     102002.7      46.7237      46.7237      46.7237 
  193000    110.30718   -7285.7279   -6710.9772   -727.29631     102002.7      46.7237      46.7237      46.7237 
  194000    109.48737   -7253.0989   -6682.6198   -1088.2753     102002.7      46.7237      46.7237      46.7237 
  195000    110.10771   -7277.2886   -6703.5772   -635.65506     102002.7      46.7237      46.7237      46.7237 
  196000    107.00011   -7296.5717   -6739.0524   -790.51402     102002.7      46.7237      46.7237      46.7237 
  197000    110.02347   -7280.8661   -6707.5936   -798.37739     102002.7      46.7237      46.7237      46.7237 
  198000    109.36011   -7285.9297   -6716.1137    -865.3703     102002.7      46.7237      46.7237      46.7237 
  199000    109.26914   -7260.8076   -6691.4655    -951.3429     102002.7      46.7237      46.7237      46.7237 
  200000    110.90938   -7279.0411   -6701.1526   -956.36949     102002.7      46.7237      46.7237      46.7237 
  201000     108.7513   -7271.9391   -6705.2952   -1056.8877     102002.7      46.7237      46.7237      46.7237 
  202000    109.47061   -7273.1985   -6702.8067   -864.41826     102002.7      46.7237      46.7237      46.7237 
  203000    106.42439   -7270.6338   -6716.1142   -594.25277     102002.7      46.7237      46.7237      46.7237 
  204000    112.41188   -7277.7391   -6692.0219   -616.46469     102002.7      46.7237      46.7237      46.7237 
  205000    109.96238   -7271.9368   -6698.9826   -909.86627     102002.7      46.7237      46.7237      46.7237 
  206000    111.75042   -7292.4798   -6710.2091   -717.12734     102002.7      46.7237      46.7237      46.7237 
  207000    108.85114    -7265.605   -6698.4409   -709.60343     102002.7      46.7237      46.7237      46.7237 
  208000    108.21384   -7306.6157   -6742.7722   -627.95545     102002.7      46.7237      46.7237      46.7237 
  209000    108.75161   -7266.7384   -6700.0929   -908.09373     102002.7      46.7237      46.7237      46.7237 
  210000    108.47207   -7284.6399   -6719.4509   -864.43853     102002.7      46.7237      46.7237      46.7237 
  211000    108.15547   -7245.3616   -6681.8223   -744.78076     102002.7      46.7237      46.7237      46.7237 
  212000    109.64635   -7270.6732   -6699.3657   -660.26436     102002.7      46.7237      46.7237      46.7237 
  213000    108.35547   -7296.1335   -6731.5521   -703.68614     102002.7      46.7237      46.7237      46.7237 
  214000    110.44576   -7274.9775   -6699.5047   -599.63767     102002.7      46.7237      46.7237      46.7237 
  215000     109.4357   -7270.1307   -6699.9208   -401.65136     102002.7      46.7237      46.7237      46.7237 
  216000    111.18571   -7257.2041   -6677.8758   -748.60002     102002.7      46.7237      46.7237      46.7237 
  217000    109.99677   -7290.8123    -6717.679   -613.75545     102002.7      46.7237      46.7237      46.7237 
  218000    111.00741   -7277.4966   -6699.0974   -636.28952     102002.7      46.7237      46.7237      46.7237 
  219000    111.69315   -7287.5353   -6705.5631   -739.26111     102002.7      46.7237      46.7237      46.7237 
  220000    111.17021   -7292.1667   -6712.9192   -796.68856     102002.7      46.7237      46.7237      46.7237 
  221000    106.49187   -7295.7681   -6740.8969   -493.15435     102002.7      46.7237      46.7237      46.7237 
  222000    111.28005   -7283.5721   -6703.7523   -919.15821     102002.7      46.7237      46.7237      46.7237 
  223000    110.77814   -7256.1347   -6678.9301    -830.3262     102002.7      46.7237      46.7237      46.7237 
  224000    113.08645   -7278.9358   -6689.7038   -461.52284     102002.7      46.7237      46.7237      46.7237 
  225000    110.65892   -7286.4307   -6709.8472   -738.07209     102002.7      46.7237      46.7237      46.7237 
  226000    107.47775   -7264.5434   -6704.5353   -483.15959     102002.7      46.7237      46.7237      46.7237 
  227000    108.23894   -7292.2802    -6728.306    -579.0751     102002.7      46.7237      46.7237      46.7237 
  228000    113.26008   -7284.3891   -6694.2525    -696.3118     102002.7      46.7237      46.7237      46.7237 
  229000    109.60786   -7279.5353   -6708.4283   -577.69214     102002.7      46.7237      46.7237      46.7237 
  230000    107.55941   -7278.3489   -6717.9153    -634.6941     102002.7      46.7237      46.7237      46.7237 
  231000    108.23689     -7255.02   -6691.0565   -843.34041     102002.7      46.7237      46.7237      46.7237 
  232000    112.48001   -7287.0671   -6700.9949    -878.5564     102002.7      46.7237      46.7237      46.7237 
  233000     112.2917   -7260.4266   -6675.3356   -750.40354     102002.7      46.7237      46.7237      46.7237 
  234000    108.69859   -7280.3494   -6713.9802   -650.68336     102002.7      46.7237      46.7237      46.7237 
  235000    112.98434   -7277.9582   -6689.2583   -717.13813     102002.7      46.7237      46.7237      46.7237 
  236000     114.2701   -7282.3048   -6686.9055   -674.12692     102002.7      46.7237      46.7237      46.7237 
  237000    110.25901   -7294.1491   -6719.6494   -638.79878     102002.7      46.7237      46.7237      46.7237 
  238000    108.27491    -7280.963   -6716.8014   -870.54709     102002.7      46.7237      46.7237      46.7237 
  239000    109.60894   -7272.3097   -6701.1971   -972.14965     102002.7      46.7237      46.7237      46.7237 
  240000    108.97942   -7273.7338   -6705.9014    -1004.614     102002.7      46.7237      46.7237      46.7237 
  241000     113.1708   -7291.2723   -6701.6008    -913.2371     102002.7      46.7237      46.7237      46.7237 
  242000    109.01133   -7265.0633   -6697.0646   -936.77396     102002.7      46.7237      46.7237      46.7237 
  243000    109.04748   -7278.5308   -6710.3437   -634.02325     102002.7      46.7237      46.7237      46.7237 
  244000     111.0441   -7278.5676   -6699.9772   -976.65937     102002.7      46.7237      46.7237      46.7237 
  245000    114.24667   -7274.6195   -6679.3423   -401.38569     102002.7      46.7237      46.7237      46.7237 
  246000    108.72753    -7282.927    -6716.407   -807.47771     102002.7      46.7237      46.7237      46.7237 
  247000    111.73336   -7274.0098   -6691.8281   -567.42729     102002.7      46.7237      46.7237      46.7237 
  248000     110.6307   -7277.4284    -6700.992   -649.78059     102002.7      46.7237      46.7237      46.7237 
  249000    108.46057   -7270.6313   -6705.5023   -737.07037     102002.7      46.7237      46.7237      46.7237 
  250000    110.82559   -7277.8213   -6700.3695   -422.69939     102002.7      46.7237      46.7237      46.7237 
  251000    109.71679   -7288.4915    -6716.817   -840.83336     102002.7      46.7237      46.7237      46.7237 
  252000    107.31679   -7283.1288   -6723.9594   -812.14191     102002.7      46.7237      46.7237      46.7237 
  253000    109.98739   -7276.5807   -6703.4962   -504.50059     102002.7      46.7237      46.7237      46.7237 
  254000    111.75335   -7275.4441   -6693.1582   -671.41026     102002.7      46.7237      46.7237      46.7237 
  255000    107.62327   -7292.8153    -6732.049   -701.84146     102002.7      46.7237      46.7237      46.7237 
  256000    108.23259   -7273.7911     -6709.85   -629.92495     102002.7      46.7237      46.7237      46.7237 
  257000    109.04001   -7270.1373   -6701.9892   -983.21389     102002.7      46.7237      46.7237      46.7237 
  258000    110.16137   -7263.9922   -6690.0012    -743.5952     102002.7      46.7237      46.7237      46.7237 
  259000    111.27943   -7296.3303   -6716.5137   -976.61015     102002.7      46.7237      46.7237      46.7237 
  260000    111.84319   -7284.9404   -6702.1864   -1001.8646     102002.7      46.7237      46.7237      46.7237 
  261000    109.85704   -7276.0607   -6703.6555     -696.017     102002.7      46.7237      46.7237      46.7237 
  262000    111.28592   -7285.8455   -6705.9951   -956.16461     102002.7      46.7237      46.7237      46.7237 
  263000    113.90273   -7264.6125   -6671.1274    -818.6846     102002.7      46.7237      46.7237      46.7237 
  264000    113.09273   -7282.1657    -6692.901   -788.88771     102002.7      46.7237      46.7237      46.7237 
  265000     113.5372     -7260.73   -6669.1494   -558.99666     102002.7      46.7237      46.7237      46.7237 
  266000    106.96959   -7265.0402   -6707.6799   -986.08727     102002.7      46.7237      46.7237      46.7237 
  267000    109.18004    -7253.231   -6684.3532   -850.07468     102002.7      46.7237      46.7237      46.7237 
  268000    103.88064   -7288.0601   -6746.7946   -970.95719     102002.7      46.7237      46.7237      46.7237 
  269000     108.2715    -7273.909   -6709.7651   -942.37559     102002.7      46.7237      46.7237      46.7237 
  270000    108.94132   -7274.1131   -6706.4792   -454.44848     102002.7      46.7237      46.7237      46.7237 
  271000    110.35494   -7256.1322   -6681.1327   -551.21788     102002.7      46.7237      46.7237      46.7237 
  272000    109.79494   -7281.7472   -6709.6655    -670.2285     102002.7      46.7237      46.7237      46.7237 
  273000    109.95294   -7272.2332   -6699.3283   -677.38103     102002.7      46.7237      46.7237      46.7237 
  274000     109.5968   -7292.1412   -6721.0919   -888.00532     102002.7      46.7237      46.7237      46.7237 
  275000    111.50655   -7254.4743   -6673.4743   -535.31057     102002.7      46.7237      46.7237      46.7237 
  276000    111.99393   -7278.5959   -6695.0565   -738.22622     102002.7      46.7237      46.7237      46.7237 
  277000    104.45887   -7256.9448   -6712.6664   -740.99176     102002.7      46.7237      46.7237      46.7237 
  278000    111.10122   -7298.7484   -6719.8604   -573.68193     102002.7      46.7237      46.7237      46.7237 
  279000    111.29393   -7262.8303   -6682.9382   -781.66592     102002.7      46.7237      46.7237      46.7237 
  280000    108.91496   -7287.1931   -6719.6965   -665.61322     102002.7      46.7237      46.7237      46.7237 
  281000    109.95496   -7263.8869   -6690.9714   -550.68401     102002.7      46.7237      46.7237      46.7237 
  282000    108.48536   -7301.2966   -6736.0385   -621.47682     102002.7      46.7237      46.7237      46.7237 
  283000    111.35011   -7283.1329    -6702.948   -572.58977     102002.7      46.7237      46.7237      46.7237 
  284000     108.3711   -7281.8729     -6717.21   -658.81677     102002.7      46.7237      46.7237      46.7237 
  285000    109.87726   -7285.4633   -6712.9526   -662.57772     102002.7      46.7237      46.7237      46.7237 
  286000    108.64701   -7287.7513   -6721.6508   -651.74754     102002.7      46.7237      46.7237      46.7237 
  287000     109.8369   -7293.7087   -6721.4084   -785.12796     102002.7      46.7237      46.7237      46.7237 
  288000    113.55647   -7263.7437   -6672.0627   -1048.8105     102002.7      46.7237      46.7237      46.7237 
  289000    113.44218   -7279.1476   -6688.0622   -559.93771     102002.7      46.7237      46.7237      46.7237 
  290000    109.00571   -7281.1558   -6713.1863   -796.90802     102002.7      46.7237      46.7237      46.7237 
  291000     110.0512   -7267.6091   -6694.1921   -598.90556     102002.7      46.7237      46.7237      46.7237 
  292000    107.95591   -7289.1086   -6726.6091   -595.63874     102002.7      46.7237      46.7237      46.7237 
  293000    110.95446   -7273.4232   -6695.2998   -709.90569     102002.7      46.7237      46.7237      46.7237 
  294000    109.93621   -7279.0855   -6706.2677   -404.89513     102002.7      46.7237      46.7237      46.7237 
  295000    110.31048   -7265.9361   -6691.1682   -773.25309     102002.7      46.7237      46.7237      46.7237 
  296000    107.46444   -7268.0396   -6708.1009   -773.37549     102002.7      46.7237      46.7237      46.7237 
  297000    112.12574   -7268.9301   -6684.7039   -527.28413     102002.7      46.7237      46.7237      46.7237 
  298000    110.73639   -7279.8536   -6702.8666   -716.64725     102002.7      46.7237      46.7237      46.7237 
  299000    111.34031   -7261.2963   -6681.1625   -721.99526     102002.7      46.7237      46.7237      46.7237 
  300000    108.99933   -7279.5131   -6711.5769   -654.28382     102002.7      46.7237      46.7237      46.7237 
  301000    113.43558     -7287.85   -6696.7989   -738.70724     102002.7      46.7237      46.7237      46.7237 
  302000    115.22316   -7290.4739   -6690.1087   -570.81479     102002.7      46.7237      46.7237      46.7237 
  303000    107.69726   -7278.1054   -6716.9536   -538.86879     102002.7      46.7237      46.7237      46.7237 
  304000    109.92578   -7275.5574    -6702.794   -851.45747     102002.7      46.7237      46.7237      46.7237 
  305000    110.33632   -7293.1014   -6718.1989   -539.86695     102002.7      46.7237      46.7237      46.7237 
  306000    112.49237   -7272.5375   -6686.4009   -792.08575     102002.7      46.7237      46.7237      46.7237 
  307000    110.26745    -7288.594   -6714.0503   -994.49542     102002.7      46.7237      46.7237      46.7237 
  308000    110.93214   -7273.2658   -6695.2588   -342.06508     102002.7      46.7237      46.7237      46.7237 
  309000    111.02321   -7280.5198   -6702.0382   -715.63773     102002.7      46.7237      46.7237      46.7237 
  310000    110.13581   -7287.0596   -6713.2018   -346.29896     102002.7      46.7237      46.7237      46.7237 
  311000    111.40943   -7285.0634   -6704.5695   -834.13436     102002.7      46.7237      46.7237      46.7237 
  312000    110.79008   -7282.3579   -6705.0911    -837.9134     102002.7      46.7237      46.7237      46.7237 
  313000    111.46649   -7289.6953    -6708.904   -765.63767     102002.7      46.7237      46.7237      46.7237 
  314000     112.0609   -7265.5435   -6681.6551   -482.32443     102002.7      46.7237      46.7237      46.7237 
  315000    107.08023   -7286.5577   -6728.6208   -526.66547     102002.7      46.7237      46.7237      46.7237 
  316000      112.354   -7284.6951   -6699.2796   -507.31027     102002.7      46.7237      46.7237      46.7237 
  317000    107.02218   -7293.3156   -6735.6812   -380.16742     102002.7      46.7237      46.7237      46.7237 
  318000    107.98527   -7280.2302   -6717.5777   -626.06412     102002.7      46.7237      46.7237      46.7237 
  319000    114.73769   -7277.3867    -6679.551     -550.082     102002.7      46.7237      46.7237      46.7237 
  320000    106.11983   -7282.5487    -6729.616   -783.58457     102002.7      46.7237      46.7237      46.7237 
  321000    111.15823   -7279.7363   -6700.5512   -914.17455     102002.7      46.7237      46.7237      46.7237 
  322000    110.96092    -7277.835    -6699.678   -701.21972     102002.7      46.7237      46.7237      46.7237 
  323000    107.25295   -7288.1439   -6729.3072   -961.89352     102002.7      46.7237      46.7237      46.7237 
  324000    107.16979   -7255.2682   -6696.8647   -874.03399     102002.7      46.7237      46.7237      46.7237 
  325000    106.25176   -7287.9579   -6734.3378   -1011.1273     102002.7      46.7237      46.7237      46.7237 
  326000    110.38377   -7282.1076   -6706.9579   -906.02136     102002.7      46.7237      46.7237      46.7237 
  327000    110.88389   -7272.8508   -6695.0952   -944.20168     102002.7      46.7237      46.7237      46.7237 
  328000    109.71495   -7258.4918   -6686.8269   -1234.1373     102002.7      46.7237      46.7237      46.7237 
  329000    115.39826   -7303.6108   -6702.3332   -725.19117     102002.7      46.7237      46.7237      46.7237 
  330000    105.50312   -7267.7805   -6718.0612   -944.68305     102002.7      46.7237      46.7237      46.7237 
  331000    111.08816   -7276.4232   -6697.6032   -450.87152     102002.7      46.7237      46.7237      46.7237 
  332000    109.23164   -7281.5707   -6712.4241   -742.87041     102002.7      46.7237      46.7237      46.7237 
  333000    110.57891   -7278.0311   -6701.8646   -622.39241     102002.7      46.7237      46.7237      46.7237 
  334000    109.47882   -7277.3294   -6706.8949   -509.48936     102002.7      46.7237      46.7237      46.7237 
  335000    109.59376   -7274.0727   -6703.0392   -597.09134     102002.7      46.7237      46.7237      46.7237 
  336000    108.78543    -7297.561   -6730.7392   -439.34085     102002.7      46.7237      46.7237      46.7237 
  337000    107.18252   -7277.7021   -6719.2323   -470.49379     102002.7      46.7237      46.7237      46.7237 
  338000    107.85942   -7238.3374   -6676.3406   -564.34667     102002.7      46.7237      46.7237      46.7237 
  339000    106.31833    -7266.964   -6712.9971   -586.28074     102002.7      46.7237      46.7237      46.7237 
  340000    109.80455   -7294.6348    -6722.503    -668.9543     102002.7      46.7237      46.7237      46.7237 
  341000     113.9473   -7265.2531   -6671.5357   -562.69478     102002.7      46.7237      46.7237      46.7237 
  342000    108.30845   -7270.6818   -6706.3453   -724.28321     102002.7      46.7237      46.7237      46.7237 
  343000    111.48065   -7262.6696   -6681.8046   -614.18016     102002.7      46.7237      46.7237      46.7237 
  344000    111.59921   -7291.4179   -6709.9351   -594.01211     102002.7      46.7237      46.7237      46.7237 
  345000    109.47219   -7300.9186   -6730.5186   -812.71652     102002.7      46.7237      46.7237      46.7237 
  346000    109.42014   -7282.2976   -6712.1688   -638.95017     102002.7      46.7237      46.7237      46.7237 
  347000    106.11335   -7293.7389     -6740.84   -713.23555     102002.7      46.7237      46.7237      46.7237 
  348000    110.88927     -7270.26   -6692.4763   -483.58341     102002.7      46.7237      46.7237      46.7237 
  349000     106.8687   -7284.4801   -6727.6455   -789.08809     102002.7      46.7237      46.7237      46.7237 
  350000    110.85462   -7275.1438   -6697.5406   -745.51854     102002.7      46.7237      46.7237      46.7237 
  351000     113.3299   -7282.8675   -6692.3671   -565.74771     102002.7      46.7237      46.7237      46.7237 
  352000    110.77453   -7301.2852   -6724.0994   -626.37022     102002.7      46.7237      46.7237      46.7237 
  353000    110.78456   -7272.5635   -6695.3254   -414.10002     102002.7      46.7237      46.7237      46.7237 
  354000     110.4314   -7299.9539   -6724.5559   -704.83143     102002.7      46.7237      46.7237      46.7237 
  355000    111.32839    -7274.874   -6694.8023   -467.11661     102002.7      46.7237      46.7237      46.7237 
  356000    108.65121   -7297.4866   -6731.3643   -552.76017     102002.7      46.7237      46.7237      46.7237 
  357000    107.96427   -7268.2421    -6705.699   -624.77285     102002.7      46.7237      46.7237      46.7237 
  358000    113.97908   -7268.4715   -6674.5885    -742.0624     102002.7      46.7237      46.7237      46.7237 
  359000    111.11557   -7292.4603   -6713.4976   -773.55275     102002.7      46.7237      46.7237      46.7237 
  360000    109.28453   -7260.1426   -6690.7204   -471.90251     102002.7      46.7237      46.7237      46.7237 
  361000    110.86407   -7271.6371   -6693.9847   -754.94117     102002.7      46.7237      46.7237      46.7237 
  362000    108.09871   -7293.7952   -6730.5516   -924.59303     102002.7      46.7237      46.7237      46.7237 
  363000    107.86044   -7265.2625   -6703.2605   -709.32852     102002.7      46.7237      46.7237      46.7237 
  364000    110.93392   -7272.8218   -6694.8056   -600.71598     102002.7      46.7237      46.7237      46.7237 
  365000    111.66317   -7258.4832   -6676.6672   -754.54872     102002.7      46.7237      46.7237      46.7237 
  366000    108.16534   -7283.7094   -6720.1187   -721.98465     102002.7      46.7237      46.7237      46.7237 
  367000    107.06428   -7256.7198   -6698.8661   -783.66479     102002.7      46.7237      46.7237      46.7237 
  368000    111.05628   -7279.4674   -6700.8135   -836.97784     102002.7      46.7237      46.7237      46.7237 
  369000    108.24724   -7273.9624   -6709.9449   -705.60621     102002.7      46.7237      46.7237      46.7237 
  370000    112.34719   -7278.1223   -6692.7422    -711.8789     102002.7      46.7237      46.7237      46.7237 
  371000    107.22285   -7272.3456   -6713.6657   -612.86132     102002.7      46.7237      46.7237      46.7237 
  372000     108.7389   -7280.5356   -6713.9563   -438.86587     102002.7      46.7237      46.7237      46.7237 
  373000    107.42125    -7255.722   -6696.0083   -638.71563     102002.7      46.7237      46.7237      46.7237 
  374000    110.62686   -7281.3475   -6704.9312   -492.83985     102002.7      46.7237      46.7237      46.7237 
  375000    111.02123   -7277.7778   -6699.3066   -330.57649     102002.7      46.7237      46.7237      46.7237 
  376000    111.36178   -7271.3314   -6691.0857   -929.94527     102002.7      46.7237      46.7237      46.7237 
  377000    109.22738   -7286.0555    -6716.931    -823.0915     102002.7      46.7237      46.7237      46.7237 
  378000    111.53315   -7270.5346   -6689.3961   -1023.6557     102002.7      46.7237      46.7237      46.7237 
  379000    113.18288   -7278.4494    -6688.715   -796.96085     102002.7      46.7237      46.7237      46.7237 
  380000    107.12877   -7278.6736   -6720.4839   -780.62266     102002.7      46.7237      46.7237      46.7237 
  381000    112.10903   -7262.9828   -6678.8436   -492.24173     102002.7      46.7237      46.7237      46.7237 
  382000    107.69976   -7282.2085   -6721.0436   -763.87914     102002.7      46.7237      46.7237      46.7237 
  383000    107.41307   -7268.9317   -6709.2607   -686.00267     102002.7      46.7237      46.7237      46.7237 
  384000    112.06428   -7270.2555   -6686.3495   -758.07217     102002.7      46.7237      46.7237      46.7237 
  385000    110.19718   -7274.0216    -6699.844   -1003.2569     102002.7      46.7237      46.7237      46.7237 
  386000    113.21651   -7271.4261   -6681.5164   -664.54344     102002.7      46.7237      46.7237      46.7237 
  387000    108.89285   -7290.8605   -6723.4791   -762.66525     102002.7      46.7237      46.7237      46.7237 
  388000    111.12227   -7271.9132   -6692.9155   -804.04257     102002.7      46.7237      46.7237      46.7237 
  389000    113.54574   -7286.1744   -6694.5493   -808.51398     102002.7      46.7237      46.7237      46.7237 
  390000    109.44713   -7286.4845    -6716.215   -849.67828     102002.7      46.7237      46.7237      46.7237 
  391000    110.15538   -7304.4479   -6730.4882   -737.02816     102002.7      46.7237      46.7237      46.7237 
  392000    112.00631   -7277.9925   -6694.3885   -752.41545     102002.7      46.7237      46.7237      46.7237 
  393000    110.49198   -7286.1274   -6710.4138   -656.53482     102002.7      46.7237      46.7237      46.7237 
  394000    109.74988   -7267.1948   -6695.3479   -590.71685     102002.7      46.7237      46.7237      46.7237 
  395000    113.81413   -7269.4206   -6676.3971   -685.86559     102002.7      46.7237      46.7237      46.7237 
  396000    112.03598   -7299.4543   -6715.6958   -703.54713     102002.7      46.7237      46.7237      46.7237 
  397000    111.72637   -7260.4787   -6678.3334   -654.82446     102002.7      46.7237      46.7237      46.7237 
  398000    109.45041   -7291.9234   -6721.6369   -749.91755     102002.7      46.7237      46.7237      46.7237 
  399000    112.15354   -7281.9475   -6697.5764   -779.60686     102002.7      46.7237      46.7237      46.7237 
  400000    108.08263   -7278.3212   -6715.1615   -734.44763     102002.7      46.7237      46.7237      46.7237 
  401000    108.24404   -7303.1115   -6739.1107   -546.56946     102002.7      46.7237      46.7237      46.7237 
  402000    111.33765   -7291.7638   -6711.6439   -671.59747     102002.7      46.7237      46.7237      46.7237 
  403000    113.91451   -7279.1571   -6685.6105   -714.84358     102002.7      46.7237      46.7237      46.7237 
  404000    111.24339   -7298.0564   -6718.4277   -459.25734     102002.7      46.7237      46.7237      46.7237 
  405000    113.43172   -7284.0622   -6693.0312   -442.88557     102002.7      46.7237      46.7237      46.7237 
  406000     110.6764   -7272.3229   -6695.6484   -778.96497     102002.7      46.7237      46.7237      46.7237 
  407000     106.9701   -7283.7146   -6726.3516   -1111.0881     102002.7      46.7237      46.7237      46.7237 
  408000    110.86522   -7279.5524   -6701.8941   -630.73907     102002.7      46.7237      46.7237      46.7237 
  409000    107.91518   -7281.2482   -6718.9609   -842.10679     102002.7      46.7237      46.7237      46.7237 
  410000    110.80858   -7288.6645   -6711.3013   -413.56355     102002.7      46.7237      46.7237      46.7237 
  411000     111.3423   -7270.1313   -6689.9872   -791.42332     102002.7      46.7237      46.7237      46.7237 
  412000    108.37307   -7279.8094   -6715.1363   -1187.0952     102002.7      46.7237      46.7237      46.7237 
  413000    108.51001   -7278.9035   -6713.5169   -533.03566     102002.7      46.7237      46.7237      46.7237 
  414000     107.4767   -7293.7328   -6733.7302   -1026.1982     102002.7      46.7237      46.7237      46.7237 
  415000    111.23609   -7284.1902   -6704.5994   -713.66923     102002.7      46.7237      46.7237      46.7237 
  416000    114.66657   -7256.2279   -6658.7628   -588.66192     102002.7      46.7237      46.7237      46.7237 
  417000    112.55363   -7298.5985   -6712.1428   -618.73126     102002.7      46.7237      46.7237      46.7237 
  418000    110.26022   -7270.6871    -6696.181   -876.21437     102002.7      46.7237      46.7237      46.7237 
  419000    108.87797   -7271.0726   -6703.7688   -575.83555     102002.7      46.7237      46.7237      46.7237 
  420000    111.73627   -7270.4848   -6688.2879    -809.7205     102002.7      46.7237      46.7237      46.7237 
  421000    107.69836   -7286.6325   -6725.4749   -519.36582     102002.7      46.7237      46.7237      46.7237 
  422000    110.02258   -7282.7949   -6709.5271   -445.15471     102002.7      46.7237      46.7237      46.7237 
  423000    108.51728   -7278.2346   -6712.8101   -759.05385     102002.7      46.7237      46.7237      46.7237 
  424000    107.44317   -7281.9496   -6722.1217   -806.14727     102002.7      46.7237      46.7237      46.7237 
  425000    111.70915   -7277.6286    -6695.573   -949.28998     102002.7      46.7237      46.7237      46.7237 
  426000    109.16196   -7276.3386    -6707.555   -946.13469     102002.7      46.7237      46.7237      46.7237 
  427000    109.01967   -7266.6331   -6698.5909   -599.45103     102002.7      46.7237      46.7237      46.7237 
  428000     105.7167   -7278.5112   -6727.6789   -981.09027     102002.7      46.7237      46.7237      46.7237 
  429000    113.26845   -7279.4028   -6689.2225   -847.66389     102002.7      46.7237      46.7237      46.7237 
  430000    113.57527    -7284.315    -6692.536    -665.9633     102002.7      46.7237      46.7237      46.7237 
  431000    109.14286   -7282.0062   -6713.3221    -624.0914     102002.7      46.7237      46.7237      46.7237 
  432000    108.61838   -7274.5354   -6708.5841   -530.80307     102002.7      46.7237      46.7237      46.7237 
  433000    111.66621   -7252.1858   -6670.3539   -1035.6197     102002.7      46.7237      46.7237      46.7237 
  434000    109.98797   -7277.8335   -6704.7461    -706.5836     102002.7      46.7237      46.7237      46.7237 
  435000     110.0674    -7273.566   -6700.0647   -546.53576     102002.7      46.7237      46.7237      46.7237 
  436000    110.67886   -7277.9373     -6701.25   -705.99229     102002.7      46.7237      46.7237      46.7237 
  437000     110.3961   -7272.9792   -6697.7651   -710.67785     102002.7      46.7237      46.7237      46.7237 
  438000    109.21422   -7270.7512   -6701.6954   -575.04765     102002.7      46.7237      46.7237      46.7237 
  439000    107.70706   -7280.7935   -6719.5907   -365.33675     102002.7      46.7237      46.7237      46.7237 
  440000    110.31855   -7252.2987   -6677.4888   -605.15338     102002.7      46.7237      46.7237      46.7237 
  441000    113.52502   -7291.9656   -6700.4484   -507.69811     102002.7      46.7237      46.7237      46.7237 
  442000    107.86023   -7251.7018   -6689.7008   -595.04065     102002.7      46.7237      46.7237      46.7237 
  443000    109.25396   -7276.1506   -6706.8876   -860.77794     102002.7      46.7237      46.7237      46.7237 
  444000    109.91402   -7272.2393   -6699.5372   -640.73044     102002.7      46.7237      46.7237      46.7237 
  445000    111.49161   -7279.3644   -6698.4423   -587.16205     102002.7      46.7237      46.7237      46.7237 
  446000    108.95191   -7285.8364   -6718.1473   -417.80652     102002.7      46.7237      46.7237      46.7237 
  447000    110.04338   -7266.0907   -6692.7146   -725.90478     102002.7      46.7237      46.7237      46.7237 
  448000    110.20622   -7290.7986    -6716.574   -223.96047     102002.7      46.7237      46.7237      46.7237 
  449000     112.7232   -7275.3281   -6687.9889   -855.77714     102002.7      46.7237      46.7237      46.7237 
  450000    111.86962   -7294.1008   -6711.2091   -584.46623     102002.7      46.7237      46.7237      46.7237 
  451000    116.37594   -7255.7298   -6649.3581   -442.42255     102002.7      46.7237      46.7237      46.7237 
  452000    111.30686   -7297.6032   -6717.6437   -999.38847     102002.7      46.7237      46.7237      46.7237 
  453000    115.83679   -7278.0991   -6674.5366   -583.86102     102002.7      46.7237      46.7237      46.7237 
  454000    108.77248   -7268.4802    -6701.726   -784.09178     102002.7      46.7237      46.7237      46.7237 
  455000    109.72597   -7298.3455   -6726.6232   -569.04037     102002.7      46.7237      46.7237      46.7237 
  456000    109.68341   -7259.6001   -6688.0995   -675.52319     102002.7      46.7237      46.7237      46.7237 
  457000    112.29044   -7307.2638   -6722.1794   -972.71906     102002.7      46.7237      46.7237      46.7237 
  458000    112.02655   -7267.9268   -6684.2174   -614.54105     102002.7      46.7237      46.7237      46.7237 
  459000    109.96524   -7274.8738   -6701.9048   -1006.8447     102002.7      46.7237      46.7237      46.7237 
  460000    110.42862   -7274.7097   -6699.3263   -822.66702     102002.7      46.7237      46.7237      46.7237 
  461000    103.61488   -7294.1295   -6754.2487   -701.14236     102002.7      46.7237      46.7237      46.7237 
  462000    110.47702   -7274.1883   -6698.5526   -890.28146     102002.7      46.7237      46.7237      46.7237 
  463000    108.03203    -7296.848   -6733.9519   -583.66745     102002.7      46.7237      46.7237      46.7237 
  464000    110.57406   -7271.2069   -6695.0656   -831.82463     102002.7      46.7237      46.7237      46.7237 
  465000    108.57434   -7279.4456   -6713.7238   -446.71463     102002.7      46.7237      46.7237      46.7237 
  466000    110.18497   -7275.6637   -6701.5498   -787.77514     102002.7      46.7237      46.7237      46.7237 
  467000    111.98756   -7282.5544   -6699.0481   -682.96285     102002.7      46.7237      46.7237      46.7237 
  468000    108.24397    -7281.213   -6717.2126   -962.68031     102002.7      46.7237      46.7237      46.7237 
  469000    109.28028   -7264.1555   -6694.7554   -558.45869     102002.7      46.7237      46.7237      46.7237 
  470000    111.77776   -7281.2261    -6698.813   -612.97702     102002.7      46.7237      46.7237      46.7237 
  471000    108.35139   -7257.6484   -6693.0883   -768.07412     102002.7      46.7237      46.7237      46.7237 
  472000    109.36871   -7272.3229    -6702.462   -644.51118     102002.7      46.7237      46.7237      46.7237 
  473000    105.89283    -7293.153    -6741.403   -509.00346     102002.7      46.7237      46.7237      46.7237 
  474000    111.18501   -7278.9633   -6699.6387   -807.71772     102002.7      46.7237      46.7237      46.7237 
  475000    107.51347   -7286.9678   -6726.7736   -978.21385     102002.7      46.7237      46.7237      46.7237 
  476000    109.65586   -7258.8001   -6687.4431   -763.98542     102002.7      46.7237      46.7237      46.7237 
  477000    108.26091   -7297.6043   -6733.5156   -585.94622     102002.7      46.7237      46.7237      46.7237 
  478000    111.80751   -7269.8725   -6687.3044   -720.93997     102002.7      46.7237      46.7237      46.7237 
  479000    109.44076   -7276.2236   -6705.9874   -758.91159     102002.7      46.7237      46.7237      46.7237 
  480000    111.29305   -7267.6705    -6687.783   -1231.6681     102002.7      46.7237      46.7237      46.7237 
  481000    111.08738   -7288.1975   -6709.3816   -906.28841     102002.7      46.7237      46.7237      46.7237 
  482000    108.02216   -7300.6837    -6737.839   -927.73505     102002.7      46.7237      46.7237      46.7237 
  483000    110.84602   -7278.1418   -6700.5835   -801.65897     102002.7      46.7237      46.7237      46.7237 
  484000    108.09886   -7269.2895   -6706.0452   -870.83558     102002.7      46.7237      46.7237      46.7237 
  485000    108.06143   -7259.7408   -6696.6914   -726.43627     102002.7      46.7237      46.7237      46.7237 
  486000    109.30065   -7299.0737   -6729.5674   -962.68872     102002.7      46.7237      46.7237      46.7237 
  487000    109.51965    -7278.184   -6707.5367   -655.76616     102002.7      46.7237      46.7237      46.7237 
  488000    112.34888   -7276.8386   -6691.4497    -533.5209     102002.7      46.7237      46.7237      46.7237 
  489000    108.60608    -7282.596   -6716.7088   -767.89103     102002.7      46.7237      46.7237      46.7237 
  490000     110.6436   -7272.5795   -6696.0759   -670.65568     102002.7      46.7237      46.7237      46.7237 
  491000    111.32942   -7288.0741    -6707.997    -737.3938     102002.7      46.7237      46.7237      46.7237 
  492000    105.50387   -7282.9364   -6733.2131   -770.93301     102002.7      46.7237      46.7237      46.7237 
  493000    110.17862   -7279.2126   -6705.1318   -812.03589     102002.7      46.7237      46.7237      46.7237 
  494000    110.50367   -7284.8252   -6709.0507   -628.62449     102002.7      46.7237      46.7237      46.7237 
  495000    106.11134   -7267.0513   -6714.1629   -586.53566     102002.7      46.7237      46.7237      46.7237 
  496000    113.50921   -7269.2399   -6677.8052   -758.54971     102002.7      46.7237      46.7237      46.7237 
  497000    105.93355   -7261.2286   -6709.2665   -656.88438     102002.7      46.7237      46.7237      46.7237 
  498000     108.3336   -7280.3717   -6715.9042    -619.9088     102002.7      46.7237      46.7237      46.7237 
  499000    108.76374   -7285.7659   -6719.0572   -568.69594     102002.7      46.7237      46.7237      46.7237 
  500000    110.26489   -7266.7358   -6692.2054   -631.54207     102002.7      46.7237      46.7237      46.7237 
  500504     112.2714   -7275.5257   -6690.5406   -585.70659     102002.7      46.7237      46.7237      46.7237 
Loop time of 572.811 on 24 procs for 500000 steps with 1749 atoms

Performance: 75.417 ns/day, 0.318 hours/ns, 872.888 timesteps/s
99.9% CPU use with 24 MPI tasks x no OpenMP threads

MPI task timing breakdown:
Section |  min time  |  avg time  |  max time  |%varavg| %total
---------------------------------------------------------------
Pair    | 174.86     | 276.7      | 366.95     | 320.4 | 48.31
Bond    | 72.103     | 78.163     | 85.097     |  39.0 | 13.65
Neigh   | 1.9172     | 1.9386     | 1.9516     |   1.0 |  0.34
Comm    | 113.31     | 208.84     | 313.44     | 373.8 | 36.46
Output  | 0.3104     | 0.31065    | 0.31405    |   0.1 |  0.05
Modify  | 3.446      | 3.8616     | 4.1796     |  10.1 |  0.67
Other   |            | 2.994      |            |       |  0.52

Nlocal:    72.875 ave 96 max 54 min
Histogram: 2 2 2 2 5 5 2 3 0 1
Nghost:    1998.88 ave 2157 max 1903 min
Histogram: 9 7 0 0 0 0 0 0 0 8
Neighs:    7638.42 ave 10030 max 3661 min
Histogram: 1 2 1 1 2 4 3 1 3 6

Total # of neighbors = 183322
Ave neighs/atom = 104.815
Ave special neighs/atom = 6.58662
Neighbor list builds = 3563
Dangerous builds = 0
Neighbor list info ...
  update every 1 steps, delay 10 steps, check yes
  max neighbors/atom: 2000, page size: 100000
  master list distance cutoff = 16
  ghost atom cutoff = 16
  binsize = 8, bins = 6 6 6
  3 neighbor lists, perpetual/occasional/extra = 3 0 0
  (1) pair buck6d/coul/gauss/dsf, perpetual, skip from (3)
      attributes: half, newton on
      pair build: skip
      stencil: none
      bin: none
  (2) pair lj/cut, perpetual, skip from (3)
      attributes: half, newton on
      pair build: skip
      stencil: none
      bin: none
  (3) neighbor class addition, perpetual
      attributes: half, newton on
      pair build: half/bin/newton
      stencil: half/bin/3d/newton
      bin: standard
Setting up Verlet run ...
  Unit style    : real
  Current step  : 500504
  Time step     : 1
WARNING: Inconsistent image flags (../domain.cpp:786)
Per MPI rank memory allocation (min/avg/max) = 24.11 | 24.45 | 24.57 Mbytes
Step Time TotEng KinEng PotEng E_mol E_pair Temp Pxx Pyy Pzz Pxy Pxz Pyz Cella Cellb Cellc CellAlpha CellBeta CellGamma Volume Press 
  500504       500000   -6690.5406    584.98517   -7275.5257     4314.975   -11590.501     112.2714   -479.11084   -668.23199   -609.77693     64.22155    30.971283   -28.659183      46.7237      46.7237      46.7237           90           90           90     102002.7   -585.70659 
  501000       500496   -6688.6005     580.5112   -7269.1117      4326.07   -11595.182    111.41274    -681.6364   -898.42759   -765.78401    111.11365    25.355759    23.241451      46.7237      46.7237      46.7237           90           90           90     102002.7   -781.94933 
  502000       501496      -6716.2    577.62901    -7293.829    4302.1408    -11595.97    110.85959   -591.20596   -230.18522   -577.34185   0.21596086    -182.1185   -493.27816      46.7237      46.7237      46.7237           90           90           90     102002.7   -466.24434 
  503000       502496   -6722.5966    581.42689   -7304.0235    4262.8204   -11566.844    111.58848   -464.71775   -543.87054   -731.03817    12.905214    122.67643   -48.205138      46.7237      46.7237      46.7237           90           90           90     102002.7   -579.87548 
  504000       503496   -6696.9604    587.10173   -7284.0622    4311.4269   -11595.489    112.67761   -836.54256   -734.04779   -637.24228   -136.11998    142.94644   -25.630353      46.7237      46.7237      46.7237           90           90           90     102002.7   -735.94421 
  505000       504496   -6715.0901    575.73851   -7290.8286    4299.0265   -11589.855    110.49676   -524.50766   -1137.6254   -506.99278    131.73632    80.622148   -99.706635      46.7237      46.7237      46.7237           90           90           90     102002.7   -723.04194 
  506000       505496   -6707.6018    571.57998   -7279.1818    4310.3135   -11589.495    109.69865   -568.04799   -945.75643   -272.34711   -216.94462    93.241714    123.09358      46.7237      46.7237      46.7237           90           90           90     102002.7   -595.38384 
  507000       506496   -6685.0873    595.46666    -7280.554    4324.0211   -11604.575    114.28302    -975.2056   -892.91048   -563.64533   -170.52283   -109.18006    292.45826      46.7237      46.7237      46.7237           90           90           90     102002.7   -810.58713 
  508000       507496   -6724.1019    568.15668   -7292.2586    4296.9019    -11589.16    109.04164   -843.30516   -757.87533   -916.62295    37.063672    71.510118   -127.43767      46.7237      46.7237      46.7237           90           90           90     102002.7   -839.26781 
  509000       508496   -6702.8546    575.62968   -7278.4843    4309.6232   -11588.107    110.47587   -717.81584   -495.06759     -257.906    145.16832    -21.86943   -150.63093      46.7237      46.7237      46.7237           90           90           90     102002.7   -490.26314 
  510000       509496   -6703.0323     578.9074   -7281.9397    4306.8278   -11588.768    111.10494   -752.88626   -655.29938    -724.4173   -32.954552    28.496004    86.531065      46.7237      46.7237      46.7237           90           90           90     102002.7   -710.86764 
  511000       510496   -6719.6704    568.21192   -7287.8823    4293.7508   -11581.633    109.05225   -544.49486   -699.07408   -608.28019   -144.20412   -103.31419   -20.723017      46.7237      46.7237      46.7237           90           90           90     102002.7   -617.28304 
  512000       511496    -6686.894    569.80858   -7256.7026    4317.6694   -11574.372    109.35868   -666.81636   -644.55532    -729.9112     31.48006    20.061998   -6.7998422      46.7237      46.7237      46.7237           90           90           90     102002.7   -680.42762 
  513000       512496   -6723.2132    556.15744   -7279.3707    4312.4286   -11591.799    106.73873   -463.36568   -707.91448   -673.03575     156.9853   -150.06684   -40.650973      46.7237      46.7237      46.7237           90           90           90     102002.7   -614.77197 
  514000       513496   -6703.6011    598.33113   -7301.9322     4281.465   -11583.397    114.83278    -661.0207   -753.78125   -591.77792    254.31495    89.159663   -64.652321      46.7237      46.7237      46.7237           90           90           90     102002.7   -668.85996 
  515000       514496   -6708.1768    550.43132   -7258.6081    4344.4391   -11603.047    105.63976   -767.44818   -1022.4041   -612.24294    189.91314    35.931488    12.254504      46.7237      46.7237      46.7237           90           90           90     102002.7   -800.69841 
  516000       515496   -6722.4215    559.96018   -7282.3817    4289.2558   -11571.637    107.46856   -346.63761   -726.07042   -102.44688    229.53536    22.998058    34.365487      46.7237      46.7237      46.7237           90           90           90     102002.7   -391.71831 
  517000       516496   -6704.8479    564.67755   -7269.5255     4303.559   -11573.085    108.37392   -860.34862   -487.61491   -495.31566    70.112655   -106.17272    205.28704      46.7237      46.7237      46.7237           90           90           90     102002.7    -614.4264 
  518000       517496   -6684.9148    576.64298   -7261.5578    4338.7937   -11600.352    110.67035   -850.46097   -654.78371   -676.62854   -8.6940273    -150.0533    26.771088      46.7237      46.7237      46.7237           90           90           90     102002.7   -727.29107 
  519000       518496   -6718.9549    567.55044   -7286.5054    4300.3232   -11586.829    108.92529   -652.86536   -747.57439   -293.69305    -248.2326   -192.05184    163.47036      46.7237      46.7237      46.7237           90           90           90     102002.7   -564.71093 
  520000       519496   -6699.4327    575.98472   -7275.4175    4328.3916   -11603.809    110.54401   -380.66978   -1104.6663   -985.35556   -44.256418   -72.336025     143.3128      46.7237      46.7237      46.7237           90           90           90     102002.7   -823.56387 
  521000       520496   -6701.6644    579.32272   -7280.9871    4307.9423   -11588.929    111.18465   -850.71973    -1003.924    -769.2625     26.92728   -169.27972    57.814594      46.7237      46.7237      46.7237           90           90           90     102002.7    -874.6354 
  522000       521496   -6706.9456    564.05907   -7271.0046     4330.301   -11601.306    108.25522   -490.25746   -955.95156   -467.98633    254.88615   -246.00614    64.944282      46.7237      46.7237      46.7237           90           90           90     102002.7   -638.06512 
  523000       522496     -6721.19    569.88031   -7291.0703    4301.9572   -11593.027    109.37245   -588.06918   -876.32506   -144.23758    226.82403    -39.18942   -16.547132      46.7237      46.7237      46.7237           90           90           90     102002.7   -536.21061 
  524000       523496   -6697.2987    575.69331    -7272.992     4310.087   -11583.079    110.48809   -669.82187   -756.24371   -844.49517   -279.49828    125.86739    131.04961      46.7237      46.7237      46.7237           90           90           90     102002.7   -756.85358 
  525000       524496   -6704.1207    587.31315   -7291.4339    4300.1309   -11591.565    112.71819   -712.27935   -712.56034   -419.47787    60.516314   -116.71518   -181.03101      46.7237      46.7237      46.7237           90           90           90     102002.7   -614.77252 
  526000       525496   -6694.4131    582.70335   -7277.1165    4316.4271   -11593.544    111.83347   -1122.1253   -342.39939    -252.3527    173.91247    47.247469    42.915354      46.7237      46.7237      46.7237           90           90           90     102002.7   -572.29247 
  527000       526496   -6704.9061     564.7507   -7269.6568    4316.9312   -11586.588    108.38796   -684.98947   -451.56389   -776.35327   -54.994146    231.00169    154.91583      46.7237      46.7237      46.7237           90           90           90     102002.7   -637.63554 
  528000       527496   -6729.8214    545.04127   -7274.8627    4299.4709   -11574.334    104.60529   -840.37281   -1167.2958   -861.10347   -110.64627   -294.18414     158.4462      46.7237      46.7237      46.7237           90           90           90     102002.7   -956.25736 
  529000       528496   -6697.3712    582.79267   -7280.1639    4292.2925   -11572.456    111.85061   -941.62168   -958.03783    -269.3976    7.7028864   -12.245182   -292.93742      46.7237      46.7237      46.7237           90           90           90     102002.7   -723.01903 
  530000       529496    -6722.328     571.8708   -7294.1988    4293.2732   -11587.472    109.75446   -520.16725   -718.27701   -555.76646   -175.02363   -133.22965    163.11116      46.7237      46.7237      46.7237           90           90           90     102002.7   -598.07024 
  531000       530496   -6705.4978     578.2441   -7283.7419    4302.5474   -11586.289    110.97764    -1015.689   -656.37942   -660.10784    35.805878     62.95996    281.99484      46.7237      46.7237      46.7237           90           90           90     102002.7   -777.39208 
  532000       531496   -6673.3178    585.62553   -7258.9433     4326.474   -11585.417     112.3943   -580.72163   -935.12689   -173.58008    2.2113563     101.5121    132.78075      46.7237      46.7237      46.7237           90           90           90     102002.7   -563.14287 
  533000       532496   -6722.2734    561.23511   -7283.5085    4294.5926   -11578.101    107.71324   -169.69586   -704.24584   -625.90124    63.780402    61.169845   -9.2752533      46.7237      46.7237      46.7237           90           90           90     102002.7   -499.94765 
  534000       533496   -6707.6907    580.26348   -7287.9542    4297.7766   -11585.731     111.3652   -526.07061    -584.6175   -327.12197   -214.44786   -303.01731    -60.85871      46.7237      46.7237      46.7237           90           90           90     102002.7   -479.27003 
  535000       534496   -6695.9798    574.46781   -7270.4476    4326.6556   -11597.103    110.25289   -742.34277     -761.122   -788.02911    68.324064    -121.7815   -22.515416      46.7237      46.7237      46.7237           90           90           90     102002.7   -763.83129 
  536000       535496   -6695.4667    580.65115   -7276.1179    4306.2051   -11582.323     111.4396   -970.21937   -254.87627   -755.95609   -80.816582    74.609022    31.109355      46.7237      46.7237      46.7237           90           90           90     102002.7   -660.35057 
  537000       536496   -6688.4987    574.41114   -7262.9098    4321.3801    -11584.29    110.24201   -516.24777   -544.30263   -317.86067    39.035297    93.810594    145.34395      46.7237      46.7237      46.7237           90           90           90     102002.7   -459.47036 
  538000       537496   -6738.0702    565.39427   -7303.4644    4272.0176   -11575.482    108.51148   -801.08599    -503.6231   -242.39834   -43.517928    26.805467    4.7934148      46.7237      46.7237      46.7237           90           90           90     102002.7   -515.70248 
  539000       538496   -6698.3824    570.68198   -7269.0644    4325.7677   -11594.832     109.5263    -837.4399    -442.5209   -862.08123    248.62246    171.71609    57.870801      46.7237      46.7237      46.7237           90           90           90     102002.7   -714.01401 
  540000       539496   -6681.1317    593.40069   -7274.5324    4310.1273    -11584.66    113.88652   -894.69453   -233.15025   -563.79573   -119.00123    160.27207     192.1879      46.7237      46.7237      46.7237           90           90           90     102002.7   -563.88017 
  541000       540496   -6711.5405    577.12911   -7288.6697    4290.6993   -11579.369    110.76365   -234.47697   -736.65624   -477.64495    69.860498    -30.15629    121.19774      46.7237      46.7237      46.7237           90           90           90     102002.7   -482.92605 
  542000       541496   -6693.5238    581.37456   -7274.8983    4317.9392   -11592.838    111.57844   -795.74525   -732.16756   -513.05474   -220.23128   -138.37133   -32.549652      46.7237      46.7237      46.7237           90           90           90     102002.7   -680.32251 
  543000       542496   -6698.3218    568.32026   -7266.6421    4305.4101   -11572.052    109.07304   -808.23425    -861.7128   -825.21848   -129.70851    71.633765   -115.90799      46.7237      46.7237      46.7237           90           90           90     102002.7   -831.72184 
  544000       543496   -6704.4437    587.99998   -7292.4437    4281.3168    -11573.76    112.85001   -298.68798   -610.57823   -409.26315   -4.4651013    28.266053   -104.81245      46.7237      46.7237      46.7237           90           90           90     102002.7   -439.50979 
  545000       544496   -6689.3453    589.39778   -7278.7431    4320.5122   -11599.255    113.11827   -608.29634   -919.27266   -665.24214   -132.87855    120.87042     15.32935      46.7237      46.7237      46.7237           90           90           90     102002.7   -730.93705 
  546000       545496   -6722.9559    569.40614    -7292.362    4285.4118   -11577.774    109.28144   -616.67485   -1026.5432   -725.89085    33.548684    132.63118    4.3770039      46.7237      46.7237      46.7237           90           90           90     102002.7   -789.70297 
  547000       546496   -6672.4602    594.61483   -7267.0751    4309.4669   -11576.542    114.11954   -491.88096   -720.86507   -662.78472    -10.21398   -164.63095   -82.729048      46.7237      46.7237      46.7237           90           90           90     102002.7   -625.17692 
  548000       547496   -6705.9644    567.07851   -7273.0429     4316.276   -11589.319    108.83472   -451.79477   -934.95963   -558.45525   -292.38684    67.790604   -254.29331      46.7237      46.7237      46.7237           90           90           90     102002.7   -648.40322 
  549000       548496   -6708.2355    564.79118   -7273.0267    4318.7008   -11591.728    108.39573   -738.42809   -906.00282   -858.22371    67.601033    47.193636    59.816913      46.7237      46.7237      46.7237           90           90           90     102002.7    -834.2182 
  550000       549496   -6686.1005    576.72797   -7262.8285    4323.7946   -11586.623    110.68666   -730.76299   -691.58207   -359.43579   -47.220948    116.57231   -237.80913      46.7237      46.7237      46.7237           90           90           90     102002.7   -593.92695 
  551000       550496   -6701.1937    578.41935   -7279.6131    4304.2329   -11583.846    111.01127   -537.17029   -470.64263   -183.31528    -178.0093    -70.89098   -247.01155      46.7237      46.7237      46.7237           90           90           90     102002.7   -397.04273 
  552000       551496   -6719.3816    581.37342    -7300.755    4280.1986   -11580.954    111.57822   -187.84636   -969.29954   -519.55041    1.6235279    99.384903   -225.87515      46.7237      46.7237      46.7237           90           90           90     102002.7   -558.89877 
  553000       552496   -6688.5978    573.03581   -7261.6336     4322.252   -11583.886    109.97805   -704.11859   -1248.7777   -515.95005   -31.712236   -432.22725    136.28504      46.7237      46.7237      46.7237           90           90           90     102002.7   -822.94878 
  554000       553496     -6696.75    561.76004   -7258.5101    4334.0133   -11592.523    107.81399   -673.43236   -537.37711   -797.71643    27.533163    3.3852933    10.473873      46.7237      46.7237      46.7237           90           90           90     102002.7   -669.50863 
  555000       554496   -6707.0942    567.56722   -7274.6614    4313.6918   -11588.353    108.92851   -703.69486    -544.3184   -445.40976   -106.07895     59.25982     66.88034      46.7237      46.7237      46.7237           90           90           90     102002.7   -564.47434 
[...]
  936000       935496   -6707.8345    565.01492   -7272.8494    4317.4178   -11590.267    108.43867     -631.741   -625.51407   -1291.7333   -112.95179   -148.88115   -28.498598      46.7237      46.7237      46.7237           90           90           90     102002.7    -849.6628 
  937000       936496     -6675.97    586.45011   -7262.4201    4318.8351   -11581.255    112.55255   -804.24444   -842.71732   -947.25338   -187.40019    155.19958    69.191259      46.7237      46.7237      46.7237           90           90           90     102002.7   -864.73838 
  938000       937496   -6701.6103    574.01237   -7275.6227    4312.6706   -11588.293    110.16548   -1006.3066   -970.25403   -567.76468    67.979364    84.461271   -119.34583      46.7237      46.7237      46.7237           90           90           90     102002.7   -848.10842 
  939000       938496   -6714.5198    566.72618   -7281.2459    4295.1968   -11576.443     108.7671   -730.08952   -680.24449   -121.02926   -175.21313     9.755989   -146.27031      46.7237      46.7237      46.7237           90           90           90     102002.7   -510.45442 
  940000       939496   -6701.5549    576.29668   -7277.8516    4307.4702   -11585.322    110.60389   -466.14375   -673.48007   -593.03012   -18.015489    26.222367   -142.19691      46.7237      46.7237      46.7237           90           90           90     102002.7   -577.55131 
  941000       940496   -6689.7432    572.15608   -7261.8993    4317.0483   -11578.948    109.80921   -1048.7452   -682.88167   -986.99291   -130.74957     153.5342    -112.1115      46.7237      46.7237      46.7237           90           90           90     102002.7   -906.20659 
  942000       941496   -6694.8568    573.91878   -7268.7756    4335.2713   -11604.047    110.14752   -830.00273   -534.62656   -337.73617   -212.13502    243.61583    185.12679      46.7237      46.7237      46.7237           90           90           90     102002.7   -567.45515 
  943000       942496   -6727.1855    549.06706   -7276.2526    4302.2102   -11578.463    105.37793   -925.63043   -936.49899   -735.10594    60.690892    -89.13408    -16.79798      46.7237      46.7237      46.7237           90           90           90     102002.7   -865.74512 
  944000       943496   -6714.1477    578.39483   -7292.5425    4295.3999   -11587.942    111.00657   -495.27898    -526.4438   -762.98981    56.652258   -121.63682   -166.21678      46.7237      46.7237      46.7237           90           90           90     102002.7   -594.90419 
  945000       944496   -6683.2429    579.75745   -7263.0003     4326.128   -11589.128    111.26808   -600.42782   -317.48453   -677.76189   -97.881057    4.8910586  -0.35746748      46.7237      46.7237      46.7237           90           90           90     102002.7   -531.89142 
  946000       945496   -6705.1589    564.66562   -7269.8245    4298.5533   -11568.378    108.37163   -841.28083   -1019.4536    -556.2317   -84.393502   -17.701891    31.728928      46.7237      46.7237      46.7237           90           90           90     102002.7   -805.65539 
  947000       946496    -6699.794    564.93686   -7264.7309    4313.0919   -11577.823    108.42369   -536.96663   -770.26517   -844.61996     224.3956   -74.447995    36.406332      46.7237      46.7237      46.7237           90           90           90     102002.7   -717.28392 
  948000       947496   -6709.1231     573.1825   -7282.3056    4304.2236   -11586.529    110.00621   -894.06919   -502.86616   -643.15075   0.95461748   -105.31008   -101.77099      46.7237      46.7237      46.7237           90           90           90     102002.7    -680.0287 
  949000       948496   -6699.6678    568.91097   -7268.5788    4320.8868   -11589.466    109.18641   -1021.1394    -619.5589   -1203.9601    24.700116   -193.19189   -135.81268      46.7237      46.7237      46.7237           90           90           90     102002.7   -948.21947 
  950000       949496    -6718.586    567.51421   -7286.1002    4314.7343   -11600.834    108.91834   -1011.9672   -604.11759   -488.42641    110.73848   -263.45007    43.231791      46.7237      46.7237      46.7237           90           90           90     102002.7   -701.50373 
  951000       950496   -6707.9372     569.4452   -7277.3824    4325.2242   -11602.607    109.28894   -791.62886   -575.01292   -1331.8296    35.119059   -137.79724    77.712684      46.7237      46.7237      46.7237           90           90           90     102002.7   -899.49044 
  952000       951496   -6676.9085    587.88583   -7264.7943    4331.7346   -11596.529     112.8281   -290.52727    -313.3307   -629.91825   -118.35538   -227.52972    -243.3076      46.7237      46.7237      46.7237           90           90           90     102002.7   -411.25874 
  953000       952496   -6692.3341    591.78384   -7284.1179    4298.9384   -11583.056    113.57621   -896.30781   -485.66323   -456.23236    106.97375    -31.67768    22.266354      46.7237      46.7237      46.7237           90           90           90     102002.7   -612.73447 
  954000       953496     -6694.04     587.8344   -7281.8744    4299.8896   -11581.764    112.81823   -805.22239   -718.98032    -245.7144   -167.01584   -308.75514      200.981      46.7237      46.7237      46.7237           90           90           90     102002.7   -589.97237 
  955000       954496   -6692.4618    589.34272   -7281.8046     4298.855    -11580.66    113.10771   -409.37075   -934.69993    -886.6565   -99.642203    119.40872     332.2317      46.7237      46.7237      46.7237           90           90           90     102002.7   -743.57573 
  956000       955496   -6730.9072    556.97984   -7287.8871     4294.861   -11582.748    106.89656   -418.67102   -432.15101   -884.53719    56.110506    201.10739     102.5578      46.7237      46.7237      46.7237           90           90           90     102002.7   -578.45307 
  957000       956496    -6687.877    582.85083   -7270.7278    4313.4142   -11584.142    111.86177   -773.52524   -673.85637   -913.16342   -51.923948    44.425612    233.27599      46.7237      46.7237      46.7237           90           90           90     102002.7   -786.84834 
  958000       957496   -6715.6406    574.77658   -7290.4172    4300.3526    -11590.77    110.31215   -1013.5837   -233.64972    -1166.229   -269.21734   -80.904668    436.17375      46.7237      46.7237      46.7237           90           90           90     102002.7   -804.48747 
  959000       958496   -6700.2732    588.58812   -7288.8613    4301.3093   -11590.171    112.96288    -557.8486   -502.23606   -608.19506   -14.964084   -42.151011    19.215547      46.7237      46.7237      46.7237           90           90           90     102002.7   -556.09324 
  960000       959496   -6708.6401    574.98783   -7283.6279    4306.5253   -11590.153    110.35269   -888.73133   -492.82698   -893.79226   -173.80203   -283.34072    143.00515      46.7237      46.7237      46.7237           90           90           90     102002.7   -758.45019 
  961000       960496   -6689.8632    575.41068   -7265.2739    4327.7841   -11593.058    110.43384   -510.62486   -812.71896   -666.03603    115.17479   -34.966277   -59.720387      46.7237      46.7237      46.7237           90           90           90     102002.7   -663.12662 
  962000       961496   -6708.0728    563.76409   -7271.8369    4317.4274   -11589.264    108.19861    -967.8894   -464.91199   -845.71004    97.972966   -265.20437   -10.333834      46.7237      46.7237      46.7237           90           90           90     102002.7   -759.50381 
  963000       962496   -6729.1749    564.60503   -7293.7799     4280.843   -11574.623       108.36   -609.21998    -520.6094   -744.45297   -217.39201   0.36046865    134.21036      46.7237      46.7237      46.7237           90           90           90     102002.7   -624.76078 
  964000       963496   -6698.9089    577.34353   -7276.2524    4323.1515   -11599.404     110.8048   -523.23927   -737.17755   -607.24018    310.43883    30.733204    164.56176      46.7237      46.7237      46.7237           90           90           90     102002.7   -622.55233 
  965000       964496   -6738.1561    542.18996    -7280.346    4323.9513   -11604.297    104.05806   -919.35111    -719.1932   -1145.0389    62.716976    31.211687   -55.577581      46.7237      46.7237      46.7237           90           90           90     102002.7   -927.86107 
  966000       965496   -6704.5785    569.67246   -7274.2509    4301.6612   -11575.912    109.33255   -731.12271   -646.86954   -280.53582   -210.67045    109.03089   -120.48646      46.7237      46.7237      46.7237           90           90           90     102002.7   -552.84269 
  967000       966496   -6670.4221    596.29512   -7266.7172    4339.3702   -11606.087    114.44202      -605.19   -468.82946   -918.15692   -91.227358    13.504303   -87.455084      46.7237      46.7237      46.7237           90           90           90     102002.7   -664.05879 
  968000       967496    -6718.087    556.44545   -7274.5325    4315.2711   -11589.804      106.794   -666.12746   -857.36499   -1414.9409    112.18009    115.93476    277.11746      46.7237      46.7237      46.7237           90           90           90     102002.7   -979.47778 
  969000       968496   -6731.5688    550.16413   -7281.7329    4330.7241   -11612.457    105.58848   -998.04136   -586.57478   -394.91039    32.400943    119.50719   -118.33194      46.7237      46.7237      46.7237           90           90           90     102002.7   -659.84217 
  970000       969496    -6703.764    576.88212   -7280.6461    4294.8161   -11575.462    110.71625   -654.66069   -994.52454   -565.97845   -220.62357   -134.04818    58.410568      46.7237      46.7237      46.7237           90           90           90     102002.7   -738.38789 
  971000       970496   -6697.0171    575.27763   -7272.2947    4316.0378   -11588.333    110.40831   -599.41632   -337.04926   -649.07848    206.90497    77.544332    43.631865      46.7237      46.7237      46.7237           90           90           90     102002.7   -528.51469 
  972000       971496   -6727.3825      563.188   -7290.5705    4301.0305   -11591.601    108.08805   -617.22223   -825.63366   -613.19391     213.7802     206.0108     23.12803      46.7237      46.7237      46.7237           90           90           90     102002.7   -685.34994 
  973000       972496   -6723.5885    568.29485   -7291.8833    4303.8421   -11595.725    109.06816   -980.88486   -564.99629   -708.50862    94.798694    108.53874   -74.028225      46.7237      46.7237      46.7237           90           90           90     102002.7   -751.46325 
  974000       973496   -6694.9752    577.18785   -7272.1631    4320.6693   -11592.832    110.77492   -800.36091   -566.10628   -925.65668   -71.278719    41.834772    20.021141      46.7237      46.7237      46.7237           90           90           90     102002.7   -764.04129 
  975000       974496   -6689.9128    590.88606   -7280.7988    4295.7987   -11576.598    113.40391   -624.91002   -973.32544   -622.43793   -105.06611    193.35738    209.81432      46.7237      46.7237      46.7237           90           90           90     102002.7   -740.22446 
  976000       975496   -6720.1343    559.10313   -7279.2374    4310.4144   -11589.652    107.30407   -652.53055   -610.68852   -556.10289    223.51499    29.656338   -216.70015      46.7237      46.7237      46.7237           90           90           90     102002.7   -606.44066 
  977000       976496   -6682.1267     591.6254   -7273.7521    4315.1189   -11588.871     113.5458   -833.99007    -561.9133   -583.09192   -100.55288   -275.72507   -39.048697      46.7237      46.7237      46.7237           90           90           90     102002.7   -659.66509 
  978000       977496    -6683.296     591.3655   -7274.6615    4312.1741   -11586.836    113.49592   -742.56957   -628.03333   -702.85131     -127.092    1.6581099     222.0287      46.7237      46.7237      46.7237           90           90           90     102002.7    -691.1514 
  979000       978496   -6706.4106    574.15148   -7280.5621    4323.6108   -11604.173    110.19218   -583.76159   -689.52644    -523.1289     169.9811    32.636478    114.70144      46.7237      46.7237      46.7237           90           90           90     102002.7   -598.80564 
  980000       979496   -6714.1178    580.66791   -7294.7857    4298.5694   -11593.355    111.44282   -377.14335   -725.21484   -418.85067    128.18307    1.9936352    132.63131      46.7237      46.7237      46.7237           90           90           90     102002.7   -507.06962 
  981000       980496   -6682.2903    580.28103   -7262.5714    4321.7848   -11584.356    111.36857    -927.6378   -517.37129    -677.6557   -152.83106   -25.252564    38.184004      46.7237      46.7237      46.7237           90           90           90     102002.7   -707.55493 
  982000       981496   -6693.7649    584.91122   -7278.6762    4310.4568   -11589.133     112.2572   -647.02055   -1390.9342   -881.51003    130.11768   -134.78033    221.25932      46.7237      46.7237      46.7237           90           90           90     102002.7   -973.15492 
  983000       982496   -6716.8792    575.63676    -7292.516    4288.8244    -11581.34    110.47723   -613.82138    -402.4211   -1034.0554   -9.3904485    71.099434    43.997786      46.7237      46.7237      46.7237           90           90           90     102002.7   -683.43261 
  984000       983496   -6689.3135    579.84939   -7269.1629    4318.0344   -11587.197    111.28573   -1175.5183   -617.31064    -1111.645   -276.85404   -196.93739   -44.966965      46.7237      46.7237      46.7237           90           90           90     102002.7   -968.15797 
  985000       984496    -6706.751    568.14484   -7274.8958    4324.4142    -11599.31    109.03937   -352.27849   -417.71904   -1086.1261   -212.60329     242.4516    256.77753      46.7237      46.7237      46.7237           90           90           90     102002.7   -618.70787 
  986000       985496   -6693.1959    576.08174   -7269.2776     4299.317   -11568.595    110.56264   -647.00266   -221.83513   -1058.7626    32.100809    333.48437   0.10377812      46.7237      46.7237      46.7237           90           90           90     102002.7   -642.53347 
  987000       986496   -6679.7662    598.75291   -7278.5191    4311.8286   -11590.348    114.91373   -672.47179   -315.36123   -461.26618   -3.1197505   -188.03039   -192.53632      46.7237      46.7237      46.7237           90           90           90     102002.7   -483.03307 
  988000       987496   -6721.5313    549.30246   -7270.8338    4303.1446   -11573.978    105.42311   -355.80279   -527.55917   -911.08864    87.779656     -111.146   -88.067156      46.7237      46.7237      46.7237           90           90           90     102002.7    -598.1502 
  989000       988496   -6695.3085    577.24107   -7272.5496     4320.493   -11593.043    110.78514   -1041.3065   -597.22362   -943.77311    14.119644    117.41445    -82.60933      46.7237      46.7237      46.7237           90           90           90     102002.7   -860.76776 
  990000       989496   -6706.2515    572.24163   -7278.4932    4317.7804   -11596.274    109.82563   -888.54185   -251.17065   -498.49163   -50.812517   -3.7158894   -184.03484      46.7237      46.7237      46.7237           90           90           90     102002.7   -546.06804 
  991000       990496   -6710.5687    567.51207   -7278.0807    4303.6261   -11581.707    108.91793   -448.09754   -751.82672   -932.09821    125.41057   -412.65992   -307.57898      46.7237      46.7237      46.7237           90           90           90     102002.7   -710.67416 
  992000       991496   -6688.2339    599.03565   -7287.2695    4293.3836   -11580.653    114.96799   -693.04922    -253.0151   -896.91074    10.013302   -132.58582   -54.781393      46.7237      46.7237      46.7237           90           90           90     102002.7   -614.32502 
  993000       992496   -6731.8177    555.00525    -7286.823    4299.7491   -11586.572     106.5176   -769.23011   -769.31935   -913.85907    38.478217   -60.945371   -65.733673      46.7237      46.7237      46.7237           90           90           90     102002.7   -817.46951 
  994000       993496   -6695.2112    577.39432   -7272.6055    4327.2168   -11599.822    110.81455   -615.00334   -630.37394   -314.85094     -37.6338   -181.06127    461.24389      46.7237      46.7237      46.7237           90           90           90     102002.7   -520.07607 
  995000       994496   -6714.9162    562.63676   -7277.5529     4294.982   -11572.535    107.98225   -748.36827   -523.76977   -867.89853   -11.517031     71.85798   -91.792592      46.7237      46.7237      46.7237           90           90           90     102002.7   -713.34552 
  996000       995496   -6659.6848    605.63026   -7265.3151    4337.2828   -11602.598    116.23364   -867.40152   -450.02048   -1205.2461    26.741549    85.894594    182.59682      46.7237      46.7237      46.7237           90           90           90     102002.7   -840.88937 
  997000       996496   -6719.3508    575.29009   -7294.6409    4294.0908   -11588.732     110.4107   -500.84562   -959.08743   -471.49257    23.371216   -76.569078    93.293054      46.7237      46.7237      46.7237           90           90           90     102002.7   -643.80854 
  998000       997496   -6711.6525    579.51187   -7291.1643    4312.4558    -11603.62    111.22095   -813.24758   -450.75226   -792.94052   -127.15491   -183.03582    147.37736      46.7237      46.7237      46.7237           90           90           90     102002.7   -685.64679 
  999000       998496   -6727.2445    562.60521   -7289.8497    4292.2401    -11582.09     107.9762   -514.78559   -682.90152   -597.47541    149.27737    27.996009     -51.4818      46.7237      46.7237      46.7237           90           90           90     102002.7   -598.38751 
 1000000       999496   -6704.0388    586.17761   -7290.2164    4285.1921   -11575.409    112.50025   -484.89571   -544.62116   -828.64385   -201.66856    119.88731    7.2992343      46.7237      46.7237      46.7237           90           90           90     102002.7    -619.3869 
 1000504      1000000   -6724.8618    562.76874   -7287.6305    4304.2505   -11591.881    108.00758   -858.88694   -719.45787   -965.14056    34.641057   -54.347201   -26.626864      46.7237      46.7237      46.7237           90           90           90     102002.7   -847.82845 
Loop time of 634.136 on 24 procs for 500000 steps with 1749 atoms

Performance: 68.124 ns/day, 0.352 hours/ns, 788.474 timesteps/s
99.9% CPU use with 24 MPI tasks x no OpenMP threads

MPI task timing breakdown:
Section |  min time  |  avg time  |  max time  |%varavg| %total
---------------------------------------------------------------
Pair    | 189.15     | 305.29     | 420.67     | 361.6 | 48.14
Bond    | 71.96      | 82.25      | 94.479     |  70.5 | 12.97
Neigh   | 1.9055     | 1.9295     | 1.9452     |   1.1 |  0.30
Comm    | 111.01     | 229.28     | 350.98     | 440.8 | 36.16
Output  | 0.34525    | 0.41046    | 0.41354    |   2.1 |  0.06
Modify  | 11.536     | 11.971     | 12.314     |   6.1 |  1.89
Other   |            | 3.006      |            |       |  0.47

Nlocal:    72.875 ave 101 max 43 min
Histogram: 1 2 2 5 1 3 3 4 1 2
Nghost:    1990.71 ave 2161 max 1894 min
Histogram: 9 6 1 0 0 0 0 0 4 4
Neighs:    7640.58 ave 12666 max 3067 min
Histogram: 1 2 4 5 3 1 2 1 2 3

Total # of neighbors = 183374
Ave neighs/atom = 104.845
Ave special neighs/atom = 6.58662
Neighbor list builds = 3546
Dangerous builds = 0
Total wall time: 0:20:08
